/*--------------------------------*- C++ -*----------------------------------*\
| =========                 |                                                 |
| \\      /  F ield         | OpenFOAM: The Open Source CFD Toolbox           |
|  \\    /   O peration     | Version:  2512                                  |
|   \\  /    A nd           | Website:  www.openfoam.com                      |
|    \\/     M anipulation  |                                                 |
\*---------------------------------------------------------------------------*/
FoamFile
{
    version     2.0;
    format      ascii;
    arch        "LSB;label=32;scalar=64";
    class       volScalarField;
    location    "0.004";
    object      alphat;
}
// * * * * * * * * * * * * * * * * * * * * * * * * * * * * * * * * * * * * * //

dimensions      [1 -1 -1 0 0 0 0];

internalField   nonuniform List<scalar> 
100000
(
1.33761e-07
2.61922e-08
1.07565e-08
5.86322e-09
3.79107e-09
2.75342e-09
2.17332e-09
1.82372e-09
1.59968e-09
1.44821e-09
1.34095e-09
1.26191e-09
1.20161e-09
1.15425e-09
1.11611e-09
1.08477e-09
1.05859e-09
1.03642e-09
1.01744e-09
1.00105e-09
9.86796e-10
9.74326e-10
9.63363e-10
9.53687e-10
9.45118e-10
9.37509e-10
9.30738e-10
9.24703e-10
9.19317e-10
9.14506e-10
9.10209e-10
9.0637e-10
9.02943e-10
8.99887e-10
8.97166e-10
8.94749e-10
8.92608e-10
8.90719e-10
8.89059e-10
8.87609e-10
8.86351e-10
8.8527e-10
8.8435e-10
8.83579e-10
8.82945e-10
8.82438e-10
8.82047e-10
8.81764e-10
8.81581e-10
8.81491e-10
8.81486e-10
8.81561e-10
8.81711e-10
8.81929e-10
8.82212e-10
8.82555e-10
8.82953e-10
8.83404e-10
8.83903e-10
8.84449e-10
8.85036e-10
8.85664e-10
8.86329e-10
8.87028e-10
8.8776e-10
8.88523e-10
8.89313e-10
8.90129e-10
8.90968e-10
8.91828e-10
8.92707e-10
8.93601e-10
8.94507e-10
8.95425e-10
8.9635e-10
8.97281e-10
8.98217e-10
8.99156e-10
9.00097e-10
9.01041e-10
9.01986e-10
9.02934e-10
9.03883e-10
9.04836e-10
9.05791e-10
9.0675e-10
9.07712e-10
9.08677e-10
9.09647e-10
9.1062e-10
9.11597e-10
9.12578e-10
9.13563e-10
9.14552e-10
9.15545e-10
9.16542e-10
9.17543e-10
9.18549e-10
9.19558e-10
9.20572e-10
9.2159e-10
9.22612e-10
9.23639e-10
9.24671e-10
9.25707e-10
9.26747e-10
9.27793e-10
9.28843e-10
9.29898e-10
9.30957e-10
9.3202e-10
9.33086e-10
9.34155e-10
9.35227e-10
9.363e-10
9.37375e-10
9.3845e-10
9.39526e-10
9.40601e-10
9.41676e-10
9.42751e-10
9.43826e-10
9.44901e-10
9.45976e-10
9.47052e-10
9.48129e-10
9.49207e-10
9.50287e-10
9.51368e-10
9.52451e-10
9.53535e-10
9.54622e-10
9.55711e-10
9.56802e-10
9.57896e-10
9.58992e-10
9.60092e-10
9.61194e-10
9.62299e-10
9.63407e-10
9.64519e-10
9.65633e-10
9.66752e-10
9.67873e-10
9.68998e-10
9.70125e-10
9.71256e-10
9.7239e-10
9.73527e-10
9.74666e-10
9.75808e-10
9.76952e-10
9.78098e-10
9.79246e-10
9.80397e-10
9.8155e-10
9.82705e-10
9.83862e-10
9.85022e-10
9.86184e-10
9.87348e-10
9.88515e-10
9.89684e-10
9.90855e-10
9.92029e-10
9.93206e-10
9.94386e-10
9.95568e-10
9.96753e-10
9.97941e-10
9.99132e-10
1.00033e-09
1.00152e-09
1.00272e-09
1.00392e-09
1.00513e-09
1.00634e-09
1.00755e-09
1.00877e-09
1.00998e-09
1.0112e-09
1.01243e-09
1.01365e-09
1.01488e-09
1.01611e-09
1.01734e-09
1.01858e-09
1.01982e-09
1.02106e-09
1.0223e-09
1.02355e-09
1.0248e-09
1.02605e-09
1.02731e-09
1.02857e-09
1.02983e-09
1.0311e-09
1.03237e-09
1.03365e-09
1.03492e-09
1.0362e-09
1.03749e-09
1.03878e-09
1.04007e-09
1.04136e-09
1.04266e-09
1.04397e-09
1.04527e-09
1.04658e-09
1.04789e-09
1.04921e-09
1.05052e-09
1.05185e-09
1.05317e-09
1.0545e-09
1.05583e-09
1.05716e-09
1.0585e-09
1.05984e-09
1.06118e-09
1.06253e-09
1.06388e-09
1.06523e-09
1.06659e-09
1.06795e-09
1.06931e-09
1.07068e-09
1.07205e-09
1.07342e-09
1.0748e-09
1.07618e-09
1.07757e-09
1.07896e-09
1.08035e-09
1.08174e-09
1.08314e-09
1.08455e-09
1.08595e-09
1.08736e-09
1.08878e-09
1.0902e-09
1.09162e-09
1.09305e-09
1.09448e-09
1.09591e-09
1.09735e-09
1.09879e-09
1.10023e-09
1.10168e-09
1.10314e-09
1.10459e-09
1.10605e-09
1.10752e-09
1.10899e-09
1.11046e-09
1.11194e-09
1.11342e-09
1.1149e-09
1.11639e-09
1.11789e-09
1.11938e-09
1.12088e-09
1.12239e-09
1.1239e-09
1.12541e-09
1.12693e-09
1.12845e-09
1.12997e-09
1.1315e-09
1.13304e-09
1.13458e-09
1.13612e-09
1.13766e-09
1.13921e-09
1.14077e-09
1.14233e-09
1.14389e-09
1.14546e-09
1.14703e-09
1.1486e-09
1.15018e-09
1.15177e-09
1.15336e-09
1.15495e-09
1.15655e-09
1.15815e-09
1.15975e-09
1.16137e-09
1.16298e-09
1.1646e-09
1.16622e-09
1.16785e-09
1.16948e-09
1.17112e-09
1.17276e-09
1.17441e-09
1.17606e-09
1.17771e-09
1.17937e-09
1.18104e-09
1.18271e-09
1.18438e-09
1.18606e-09
1.18774e-09
1.18943e-09
1.19112e-09
1.19281e-09
1.19451e-09
1.19622e-09
1.19793e-09
1.19964e-09
1.20136e-09
1.20309e-09
1.20482e-09
1.20655e-09
1.20829e-09
1.21003e-09
1.21178e-09
1.21353e-09
1.21529e-09
1.21705e-09
1.21882e-09
1.22059e-09
1.22237e-09
1.22415e-09
1.22594e-09
1.22773e-09
1.22953e-09
1.23133e-09
1.23314e-09
1.23495e-09
1.23677e-09
1.23859e-09
1.24041e-09
1.24225e-09
1.24408e-09
1.24593e-09
1.24777e-09
1.24962e-09
1.25148e-09
1.25334e-09
1.25521e-09
1.25709e-09
1.25896e-09
1.26085e-09
1.26273e-09
1.26463e-09
1.26653e-09
1.26843e-09
1.27034e-09
1.27226e-09
1.27418e-09
1.2761e-09
1.27803e-09
1.27997e-09
1.28191e-09
1.28386e-09
1.28581e-09
1.28777e-09
1.28973e-09
1.2917e-09
1.29367e-09
1.29565e-09
1.29763e-09
1.29962e-09
1.30162e-09
1.30362e-09
1.30563e-09
1.30764e-09
1.30966e-09
1.31168e-09
1.31371e-09
1.31575e-09
1.31779e-09
1.31983e-09
1.32188e-09
1.32394e-09
1.326e-09
1.32807e-09
1.33015e-09
1.33223e-09
1.33431e-09
1.3364e-09
1.3385e-09
1.3406e-09
1.34271e-09
1.34483e-09
1.34695e-09
1.34907e-09
1.35121e-09
1.35334e-09
1.35549e-09
1.35764e-09
1.35979e-09
1.36195e-09
1.36412e-09
1.3663e-09
1.36848e-09
1.37066e-09
1.37285e-09
1.37505e-09
1.37725e-09
1.37946e-09
1.38168e-09
1.3839e-09
1.38613e-09
1.38836e-09
1.3906e-09
1.39285e-09
1.3951e-09
1.39736e-09
1.39962e-09
1.40189e-09
1.40417e-09
1.40645e-09
1.40874e-09
1.41104e-09
1.41334e-09
1.41565e-09
1.41796e-09
1.42028e-09
1.42261e-09
1.42494e-09
1.42728e-09
1.42963e-09
1.43198e-09
1.43434e-09
1.43671e-09
1.43908e-09
1.44146e-09
1.44384e-09
1.44623e-09
1.44863e-09
1.45103e-09
1.45344e-09
1.45586e-09
1.45828e-09
1.46071e-09
1.46315e-09
1.46559e-09
1.46804e-09
1.4705e-09
1.47296e-09
1.47543e-09
1.47791e-09
1.48039e-09
1.48288e-09
1.48537e-09
1.48788e-09
1.49039e-09
1.4929e-09
1.49543e-09
1.49796e-09
1.50049e-09
1.50304e-09
1.50558e-09
1.50814e-09
1.51071e-09
1.51328e-09
1.51585e-09
1.51844e-09
1.52103e-09
1.52363e-09
1.52623e-09
1.52884e-09
1.53146e-09
1.53409e-09
1.53672e-09
1.53936e-09
1.542e-09
1.54466e-09
1.54732e-09
1.54998e-09
1.55266e-09
1.55534e-09
1.55803e-09
1.56072e-09
1.56343e-09
1.56614e-09
1.56885e-09
1.57158e-09
1.57431e-09
1.57705e-09
1.57979e-09
1.58254e-09
1.5853e-09
1.58807e-09
1.59084e-09
1.59363e-09
1.59641e-09
1.59921e-09
1.60201e-09
1.60482e-09
1.60764e-09
1.61047e-09
1.6133e-09
1.61614e-09
1.61898e-09
1.62184e-09
1.6247e-09
1.62757e-09
1.63044e-09
1.63333e-09
1.63622e-09
1.63912e-09
1.64202e-09
1.64494e-09
1.64786e-09
1.65079e-09
1.65372e-09
1.65666e-09
1.65962e-09
1.66257e-09
1.66554e-09
1.66851e-09
1.67149e-09
1.67448e-09
1.67748e-09
1.68048e-09
1.68349e-09
1.68651e-09
1.68954e-09
1.69257e-09
1.69561e-09
1.69866e-09
1.70172e-09
1.70479e-09
1.70786e-09
1.71094e-09
1.71403e-09
1.71712e-09
1.72023e-09
1.72334e-09
1.72646e-09
1.72958e-09
1.73272e-09
1.73586e-09
1.73901e-09
1.74217e-09
1.74533e-09
1.74851e-09
1.75169e-09
1.75488e-09
1.75808e-09
1.76128e-09
1.76449e-09
1.76771e-09
1.77094e-09
1.77418e-09
1.77742e-09
1.78068e-09
1.78394e-09
1.78721e-09
1.79048e-09
1.79377e-09
1.79706e-09
1.80036e-09
1.80367e-09
1.80699e-09
1.81031e-09
1.81364e-09
1.81699e-09
1.82033e-09
1.82369e-09
1.82706e-09
1.83043e-09
1.83381e-09
1.8372e-09
1.8406e-09
1.844e-09
1.84742e-09
1.85084e-09
1.85427e-09
1.85771e-09
1.86116e-09
1.86461e-09
1.86807e-09
1.87155e-09
1.87503e-09
1.87851e-09
1.88201e-09
1.88551e-09
1.88903e-09
1.89255e-09
1.89608e-09
1.89962e-09
1.90316e-09
1.90672e-09
1.91028e-09
1.91385e-09
1.91743e-09
1.92102e-09
1.92461e-09
1.92822e-09
1.93183e-09
1.93545e-09
1.93908e-09
1.94272e-09
1.94636e-09
1.95002e-09
1.95368e-09
1.95735e-09
1.96103e-09
1.96472e-09
1.96842e-09
1.97213e-09
1.97584e-09
1.97956e-09
1.98329e-09
1.98703e-09
1.99078e-09
1.99454e-09
1.9983e-09
2.00208e-09
2.00586e-09
2.00965e-09
2.01345e-09
2.01726e-09
2.02107e-09
2.0249e-09
2.02873e-09
2.03258e-09
2.03643e-09
2.04029e-09
2.04415e-09
2.04803e-09
2.05192e-09
2.05581e-09
2.05971e-09
2.06362e-09
2.06755e-09
2.07147e-09
2.07541e-09
2.07936e-09
2.08331e-09
2.08728e-09
2.09125e-09
2.09523e-09
2.09922e-09
2.10322e-09
2.10722e-09
2.11124e-09
2.11526e-09
2.1193e-09
2.12334e-09
2.12739e-09
2.13145e-09
2.13552e-09
2.1396e-09
2.14368e-09
2.14778e-09
2.15188e-09
2.15599e-09
2.16011e-09
2.16424e-09
2.16838e-09
2.17253e-09
2.17669e-09
2.18085e-09
2.18503e-09
2.18921e-09
2.1934e-09
2.1976e-09
2.20181e-09
2.20603e-09
2.21026e-09
2.21449e-09
2.21874e-09
2.22299e-09
2.22725e-09
2.23153e-09
2.23581e-09
2.24009e-09
2.24439e-09
2.2487e-09
2.25302e-09
2.25734e-09
2.26168e-09
2.26602e-09
2.27037e-09
2.27473e-09
2.2791e-09
2.28348e-09
2.28787e-09
2.29226e-09
2.29667e-09
2.30108e-09
2.3055e-09
2.30994e-09
2.31438e-09
2.31883e-09
2.32329e-09
2.32775e-09
2.33223e-09
2.33672e-09
2.34121e-09
2.34571e-09
2.35023e-09
2.35475e-09
2.35928e-09
2.36382e-09
2.36837e-09
2.37293e-09
2.37749e-09
2.38207e-09
2.38665e-09
2.39125e-09
2.39585e-09
2.40046e-09
2.40508e-09
2.40971e-09
2.41435e-09
2.41899e-09
2.42365e-09
2.42832e-09
2.43299e-09
2.43767e-09
2.44237e-09
2.44707e-09
2.45178e-09
2.4565e-09
2.46123e-09
2.46596e-09
2.47071e-09
2.47546e-09
2.48023e-09
2.485e-09
2.48978e-09
2.49458e-09
2.49938e-09
2.50418e-09
2.509e-09
2.51383e-09
2.51867e-09
2.52351e-09
2.52837e-09
2.53323e-09
2.5381e-09
2.54298e-09
2.54787e-09
2.55277e-09
2.55768e-09
2.5626e-09
2.56752e-09
2.57246e-09
2.5774e-09
2.58235e-09
2.58732e-09
2.59229e-09
2.59727e-09
2.60225e-09
2.60725e-09
2.61226e-09
2.61727e-09
2.6223e-09
2.62733e-09
2.63237e-09
2.63743e-09
2.64249e-09
2.64756e-09
2.65263e-09
2.65772e-09
2.66282e-09
2.66792e-09
2.67304e-09
2.67816e-09
2.68329e-09
2.68843e-09
2.69358e-09
2.69874e-09
2.70391e-09
2.70908e-09
2.71427e-09
2.71946e-09
2.72467e-09
2.72988e-09
2.7351e-09
2.74033e-09
2.74557e-09
2.75081e-09
2.75607e-09
2.76133e-09
2.76661e-09
2.77189e-09
2.77718e-09
2.78248e-09
2.78779e-09
2.79311e-09
2.79844e-09
2.80377e-09
2.80911e-09
2.81447e-09
2.81983e-09
2.8252e-09
2.83058e-09
2.83597e-09
2.84136e-09
2.84677e-09
2.85218e-09
2.85761e-09
2.86304e-09
2.86848e-09
2.87393e-09
2.87939e-09
2.88485e-09
2.89033e-09
2.89581e-09
2.90131e-09
2.90681e-09
2.91232e-09
2.91784e-09
2.92336e-09
2.9289e-09
2.93445e-09
2.94e-09
2.94556e-09
2.95113e-09
2.95671e-09
2.9623e-09
2.96789e-09
2.9735e-09
2.97911e-09
2.98474e-09
2.99037e-09
2.996e-09
3.00165e-09
3.00731e-09
3.01297e-09
3.01865e-09
3.02433e-09
3.03002e-09
3.03572e-09
3.04142e-09
3.04714e-09
3.05286e-09
3.0586e-09
3.06434e-09
3.07009e-09
3.07584e-09
3.08161e-09
3.08738e-09
3.09317e-09
3.09896e-09
3.10476e-09
3.11057e-09
3.11638e-09
3.12221e-09
3.12804e-09
3.13388e-09
3.13973e-09
3.14559e-09
3.15145e-09
3.15733e-09
3.16321e-09
3.1691e-09
3.175e-09
3.18091e-09
3.18682e-09
3.19274e-09
3.19868e-09
3.20461e-09
3.21056e-09
3.21652e-09
3.22248e-09
3.22845e-09
3.23443e-09
3.24042e-09
3.24642e-09
3.25242e-09
3.25844e-09
3.26446e-09
3.27048e-09
3.27652e-09
3.28257e-09
3.28862e-09
3.29468e-09
3.30075e-09
3.30682e-09
3.31291e-09
3.319e-09
3.3251e-09
3.33121e-09
3.33732e-09
3.34345e-09
3.34958e-09
3.35572e-09
3.36186e-09
3.36802e-09
3.37418e-09
3.38035e-09
3.38653e-09
3.39272e-09
3.39891e-09
3.40511e-09
3.41132e-09
3.41754e-09
3.42376e-09
3.43e-09
3.43624e-09
3.44248e-09
3.44874e-09
3.455e-09
3.46127e-09
3.46755e-09
3.47384e-09
3.48013e-09
3.48643e-09
3.49274e-09
3.49906e-09
3.50538e-09
3.51172e-09
3.51806e-09
3.5244e-09
3.53076e-09
3.53712e-09
3.54349e-09
3.54987e-09
3.55626e-09
3.56265e-09
3.56905e-09
3.57546e-09
3.58188e-09
3.5883e-09
3.59473e-09
3.60117e-09
3.60762e-09
3.61408e-09
3.62054e-09
3.62701e-09
3.63349e-09
3.63998e-09
3.64648e-09
3.65298e-09
3.6595e-09
3.66602e-09
3.67255e-09
3.67909e-09
3.68563e-09
3.69219e-09
3.69875e-09
3.70533e-09
3.71191e-09
3.7185e-09
3.7251e-09
3.73171e-09
3.73833e-09
3.74497e-09
3.75161e-09
3.75826e-09
3.76492e-09
3.77159e-09
3.77828e-09
3.78498e-09
3.79168e-09
3.7984e-09
3.80514e-09
3.81189e-09
3.81865e-09
3.82542e-09
3.83221e-09
3.83902e-09
3.84584e-09
3.85268e-09
3.85953e-09
3.86641e-09
3.8733e-09
3.88021e-09
3.88715e-09
3.89411e-09
3.90109e-09
3.90809e-09
3.91513e-09
3.92219e-09
3.92928e-09
3.93641e-09
3.94357e-09
3.95076e-09
3.958e-09
3.96527e-09
3.97259e-09
3.97996e-09
3.98739e-09
3.99487e-09
4.00241e-09
4.01002e-09
4.0177e-09
4.02546e-09
4.0333e-09
4.04125e-09
4.04929e-09
4.05747e-09
4.06578e-09
4.07428e-09
4.08302e-09
4.0921e-09
4.10164e-09
4.11182e-09
4.12306e-09
4.13735e-09
4.15668e-09
2.46384e-06
4.00516e-07
1.06848e-07
4.25893e-08
2.37488e-08
1.68308e-08
1.38799e-08
1.24966e-08
1.18064e-08
1.14452e-08
1.12474e-08
1.11334e-08
1.10635e-08
1.10176e-08
1.09852e-08
1.09607e-08
1.09414e-08
1.09255e-08
1.09121e-08
1.09006e-08
1.08908e-08
1.08822e-08
1.08747e-08
1.08682e-08
1.08625e-08
1.08575e-08
1.08531e-08
1.08493e-08
1.08459e-08
1.08431e-08
1.08405e-08
1.08384e-08
1.08365e-08
1.0835e-08
1.08337e-08
1.08326e-08
1.08318e-08
1.08312e-08
1.08307e-08
1.08304e-08
1.08303e-08
1.08303e-08
1.08304e-08
1.08306e-08
1.0831e-08
1.08314e-08
1.0832e-08
1.08326e-08
1.08333e-08
1.08341e-08
1.0835e-08
1.08359e-08
1.08369e-08
1.08379e-08
1.0839e-08
1.08402e-08
1.08414e-08
1.08426e-08
1.08439e-08
1.08452e-08
1.08466e-08
1.0848e-08
1.08494e-08
1.08508e-08
1.08523e-08
1.08538e-08
1.08553e-08
1.08569e-08
1.08584e-08
1.086e-08
1.08616e-08
1.08632e-08
1.08648e-08
1.08664e-08
1.0868e-08
1.08696e-08
1.08712e-08
1.08728e-08
1.08745e-08
1.08761e-08
1.08777e-08
1.08794e-08
1.0881e-08
1.08826e-08
1.08843e-08
1.08859e-08
1.08876e-08
1.08893e-08
1.08909e-08
1.08926e-08
1.08943e-08
1.0896e-08
1.08976e-08
1.08993e-08
1.0901e-08
1.09027e-08
1.09044e-08
1.09062e-08
1.09079e-08
1.09096e-08
1.09113e-08
1.09131e-08
1.09148e-08
1.09165e-08
1.09183e-08
1.09201e-08
1.09218e-08
1.09236e-08
1.09253e-08
1.09271e-08
1.09289e-08
1.09307e-08
1.09325e-08
1.09342e-08
1.0936e-08
1.09378e-08
1.09396e-08
1.09414e-08
1.09432e-08
1.0945e-08
1.09467e-08
1.09485e-08
1.09503e-08
1.09521e-08
1.09539e-08
1.09557e-08
1.09575e-08
1.09593e-08
1.09611e-08
1.09629e-08
1.09647e-08
1.09665e-08
1.09683e-08
1.09701e-08
1.0972e-08
1.09738e-08
1.09756e-08
1.09774e-08
1.09793e-08
1.09811e-08
1.09829e-08
1.09848e-08
1.09866e-08
1.09885e-08
1.09903e-08
1.09922e-08
1.09941e-08
1.09959e-08
1.09978e-08
1.09996e-08
1.10015e-08
1.10034e-08
1.10053e-08
1.10071e-08
1.1009e-08
1.10109e-08
1.10128e-08
1.10147e-08
1.10166e-08
1.10184e-08
1.10203e-08
1.10222e-08
1.10241e-08
1.1026e-08
1.10279e-08
1.10298e-08
1.10318e-08
1.10337e-08
1.10356e-08
1.10375e-08
1.10394e-08
1.10413e-08
1.10433e-08
1.10452e-08
1.10471e-08
1.10491e-08
1.1051e-08
1.10529e-08
1.10549e-08
1.10568e-08
1.10588e-08
1.10607e-08
1.10627e-08
1.10646e-08
1.10666e-08
1.10686e-08
1.10705e-08
1.10725e-08
1.10745e-08
1.10764e-08
1.10784e-08
1.10804e-08
1.10824e-08
1.10843e-08
1.10863e-08
1.10883e-08
1.10903e-08
1.10923e-08
1.10943e-08
1.10963e-08
1.10983e-08
1.11003e-08
1.11023e-08
1.11043e-08
1.11063e-08
1.11084e-08
1.11104e-08
1.11124e-08
1.11144e-08
1.11165e-08
1.11185e-08
1.11205e-08
1.11226e-08
1.11246e-08
1.11267e-08
1.11287e-08
1.11308e-08
1.11328e-08
1.11349e-08
1.11369e-08
1.1139e-08
1.1141e-08
1.11431e-08
1.11452e-08
1.11472e-08
1.11493e-08
1.11514e-08
1.11535e-08
1.11555e-08
1.11576e-08
1.11597e-08
1.11618e-08
1.11639e-08
1.1166e-08
1.11681e-08
1.11702e-08
1.11723e-08
1.11744e-08
1.11765e-08
1.11786e-08
1.11807e-08
1.11828e-08
1.1185e-08
1.11871e-08
1.11892e-08
1.11913e-08
1.11935e-08
1.11956e-08
1.11977e-08
1.11999e-08
1.1202e-08
1.12042e-08
1.12063e-08
1.12085e-08
1.12106e-08
1.12128e-08
1.1215e-08
1.12171e-08
1.12193e-08
1.12215e-08
1.12236e-08
1.12258e-08
1.1228e-08
1.12302e-08
1.12324e-08
1.12345e-08
1.12367e-08
1.12389e-08
1.12411e-08
1.12433e-08
1.12455e-08
1.12477e-08
1.12499e-08
1.12521e-08
1.12544e-08
1.12566e-08
1.12588e-08
1.1261e-08
1.12632e-08
1.12655e-08
1.12677e-08
1.12699e-08
1.12722e-08
1.12744e-08
1.12767e-08
1.12789e-08
1.12811e-08
1.12834e-08
1.12857e-08
1.12879e-08
1.12902e-08
1.12924e-08
1.12947e-08
1.1297e-08
1.12992e-08
1.13015e-08
1.13038e-08
1.13061e-08
1.13084e-08
1.13106e-08
1.13129e-08
1.13152e-08
1.13175e-08
1.13198e-08
1.13221e-08
1.13244e-08
1.13267e-08
1.1329e-08
1.13313e-08
1.13337e-08
1.1336e-08
1.13383e-08
1.13406e-08
1.1343e-08
1.13453e-08
1.13476e-08
1.135e-08
1.13523e-08
1.13546e-08
1.1357e-08
1.13593e-08
1.13617e-08
1.1364e-08
1.13664e-08
1.13687e-08
1.13711e-08
1.13735e-08
1.13758e-08
1.13782e-08
1.13806e-08
1.1383e-08
1.13853e-08
1.13877e-08
1.13901e-08
1.13925e-08
1.13949e-08
1.13973e-08
1.13997e-08
1.14021e-08
1.14045e-08
1.14069e-08
1.14093e-08
1.14117e-08
1.14141e-08
1.14166e-08
1.1419e-08
1.14214e-08
1.14238e-08
1.14263e-08
1.14287e-08
1.14311e-08
1.14336e-08
1.1436e-08
1.14385e-08
1.14409e-08
1.14434e-08
1.14458e-08
1.14483e-08
1.14507e-08
1.14532e-08
1.14557e-08
1.14581e-08
1.14606e-08
1.14631e-08
1.14656e-08
1.14681e-08
1.14705e-08
1.1473e-08
1.14755e-08
1.1478e-08
1.14805e-08
1.1483e-08
1.14855e-08
1.1488e-08
1.14905e-08
1.14931e-08
1.14956e-08
1.14981e-08
1.15006e-08
1.15031e-08
1.15057e-08
1.15082e-08
1.15107e-08
1.15133e-08
1.15158e-08
1.15184e-08
1.15209e-08
1.15235e-08
1.1526e-08
1.15286e-08
1.15311e-08
1.15337e-08
1.15363e-08
1.15388e-08
1.15414e-08
1.1544e-08
1.15466e-08
1.15491e-08
1.15517e-08
1.15543e-08
1.15569e-08
1.15595e-08
1.15621e-08
1.15647e-08
1.15673e-08
1.15699e-08
1.15725e-08
1.15751e-08
1.15777e-08
1.15804e-08
1.1583e-08
1.15856e-08
1.15882e-08
1.15909e-08
1.15935e-08
1.15961e-08
1.15988e-08
1.16014e-08
1.16041e-08
1.16067e-08
1.16094e-08
1.1612e-08
1.16147e-08
1.16174e-08
1.162e-08
1.16227e-08
1.16254e-08
1.16281e-08
1.16307e-08
1.16334e-08
1.16361e-08
1.16388e-08
1.16415e-08
1.16442e-08
1.16469e-08
1.16496e-08
1.16523e-08
1.1655e-08
1.16577e-08
1.16604e-08
1.16631e-08
1.16659e-08
1.16686e-08
1.16713e-08
1.16741e-08
1.16768e-08
1.16795e-08
1.16823e-08
1.1685e-08
1.16878e-08
1.16905e-08
1.16933e-08
1.1696e-08
1.16988e-08
1.17015e-08
1.17043e-08
1.17071e-08
1.17099e-08
1.17126e-08
1.17154e-08
1.17182e-08
1.1721e-08
1.17238e-08
1.17266e-08
1.17294e-08
1.17322e-08
1.1735e-08
1.17378e-08
1.17406e-08
1.17434e-08
1.17462e-08
1.1749e-08
1.17519e-08
1.17547e-08
1.17575e-08
1.17603e-08
1.17632e-08
1.1766e-08
1.17689e-08
1.17717e-08
1.17746e-08
1.17774e-08
1.17803e-08
1.17831e-08
1.1786e-08
1.17889e-08
1.17917e-08
1.17946e-08
1.17975e-08
1.18004e-08
1.18032e-08
1.18061e-08
1.1809e-08
1.18119e-08
1.18148e-08
1.18177e-08
1.18206e-08
1.18235e-08
1.18264e-08
1.18293e-08
1.18323e-08
1.18352e-08
1.18381e-08
1.1841e-08
1.1844e-08
1.18469e-08
1.18498e-08
1.18528e-08
1.18557e-08
1.18587e-08
1.18616e-08
1.18646e-08
1.18675e-08
1.18705e-08
1.18734e-08
1.18764e-08
1.18794e-08
1.18824e-08
1.18853e-08
1.18883e-08
1.18913e-08
1.18943e-08
1.18973e-08
1.19003e-08
1.19033e-08
1.19063e-08
1.19093e-08
1.19123e-08
1.19153e-08
1.19183e-08
1.19213e-08
1.19244e-08
1.19274e-08
1.19304e-08
1.19335e-08
1.19365e-08
1.19395e-08
1.19426e-08
1.19456e-08
1.19487e-08
1.19517e-08
1.19548e-08
1.19578e-08
1.19609e-08
1.1964e-08
1.19671e-08
1.19701e-08
1.19732e-08
1.19763e-08
1.19794e-08
1.19825e-08
1.19856e-08
1.19887e-08
1.19918e-08
1.19949e-08
1.1998e-08
1.20011e-08
1.20042e-08
1.20073e-08
1.20104e-08
1.20135e-08
1.20167e-08
1.20198e-08
1.20229e-08
1.20261e-08
1.20292e-08
1.20324e-08
1.20355e-08
1.20387e-08
1.20418e-08
1.2045e-08
1.20482e-08
1.20513e-08
1.20545e-08
1.20577e-08
1.20608e-08
1.2064e-08
1.20672e-08
1.20704e-08
1.20736e-08
1.20768e-08
1.208e-08
1.20832e-08
1.20864e-08
1.20896e-08
1.20928e-08
1.2096e-08
1.20992e-08
1.21025e-08
1.21057e-08
1.21089e-08
1.21122e-08
1.21154e-08
1.21186e-08
1.21219e-08
1.21251e-08
1.21284e-08
1.21317e-08
1.21349e-08
1.21382e-08
1.21414e-08
1.21447e-08
1.2148e-08
1.21513e-08
1.21546e-08
1.21578e-08
1.21611e-08
1.21644e-08
1.21677e-08
1.2171e-08
1.21743e-08
1.21776e-08
1.21809e-08
1.21843e-08
1.21876e-08
1.21909e-08
1.21942e-08
1.21975e-08
1.22009e-08
1.22042e-08
1.22076e-08
1.22109e-08
1.22143e-08
1.22176e-08
1.2221e-08
1.22243e-08
1.22277e-08
1.2231e-08
1.22344e-08
1.22378e-08
1.22412e-08
1.22445e-08
1.22479e-08
1.22513e-08
1.22547e-08
1.22581e-08
1.22615e-08
1.22649e-08
1.22683e-08
1.22717e-08
1.22751e-08
1.22786e-08
1.2282e-08
1.22854e-08
1.22888e-08
1.22923e-08
1.22957e-08
1.22991e-08
1.23026e-08
1.2306e-08
1.23095e-08
1.23129e-08
1.23164e-08
1.23199e-08
1.23233e-08
1.23268e-08
1.23303e-08
1.23338e-08
1.23372e-08
1.23407e-08
1.23442e-08
1.23477e-08
1.23512e-08
1.23547e-08
1.23582e-08
1.23617e-08
1.23652e-08
1.23687e-08
1.23723e-08
1.23758e-08
1.23793e-08
1.23828e-08
1.23864e-08
1.23899e-08
1.23934e-08
1.2397e-08
1.24005e-08
1.24041e-08
1.24076e-08
1.24112e-08
1.24148e-08
1.24183e-08
1.24219e-08
1.24255e-08
1.24291e-08
1.24326e-08
1.24362e-08
1.24398e-08
1.24434e-08
1.2447e-08
1.24506e-08
1.24542e-08
1.24578e-08
1.24614e-08
1.24651e-08
1.24687e-08
1.24723e-08
1.24759e-08
1.24796e-08
1.24832e-08
1.24868e-08
1.24905e-08
1.24941e-08
1.24978e-08
1.25014e-08
1.25051e-08
1.25088e-08
1.25124e-08
1.25161e-08
1.25198e-08
1.25234e-08
1.25271e-08
1.25308e-08
1.25345e-08
1.25382e-08
1.25419e-08
1.25456e-08
1.25493e-08
1.2553e-08
1.25567e-08
1.25604e-08
1.25641e-08
1.25679e-08
1.25716e-08
1.25753e-08
1.25791e-08
1.25828e-08
1.25865e-08
1.25903e-08
1.2594e-08
1.25978e-08
1.26015e-08
1.26053e-08
1.26091e-08
1.26128e-08
1.26166e-08
1.26204e-08
1.26242e-08
1.2628e-08
1.26317e-08
1.26355e-08
1.26393e-08
1.26431e-08
1.26469e-08
1.26507e-08
1.26546e-08
1.26584e-08
1.26622e-08
1.2666e-08
1.26698e-08
1.26737e-08
1.26775e-08
1.26813e-08
1.26852e-08
1.2689e-08
1.26929e-08
1.26967e-08
1.27006e-08
1.27044e-08
1.27083e-08
1.27122e-08
1.2716e-08
1.27199e-08
1.27238e-08
1.27277e-08
1.27316e-08
1.27355e-08
1.27394e-08
1.27433e-08
1.27472e-08
1.27511e-08
1.2755e-08
1.27589e-08
1.27628e-08
1.27667e-08
1.27707e-08
1.27746e-08
1.27785e-08
1.27825e-08
1.27864e-08
1.27903e-08
1.27943e-08
1.27982e-08
1.28022e-08
1.28062e-08
1.28101e-08
1.28141e-08
1.28181e-08
1.2822e-08
1.2826e-08
1.283e-08
1.2834e-08
1.2838e-08
1.2842e-08
1.2846e-08
1.285e-08
1.2854e-08
1.2858e-08
1.2862e-08
1.2866e-08
1.287e-08
1.2874e-08
1.28781e-08
1.28821e-08
1.28861e-08
1.28902e-08
1.28942e-08
1.28983e-08
1.29023e-08
1.29064e-08
1.29104e-08
1.29145e-08
1.29186e-08
1.29226e-08
1.29267e-08
1.29308e-08
1.29349e-08
1.29389e-08
1.2943e-08
1.29471e-08
1.29512e-08
1.29553e-08
1.29594e-08
1.29635e-08
1.29676e-08
1.29718e-08
1.29759e-08
1.298e-08
1.29841e-08
1.29882e-08
1.29924e-08
1.29965e-08
1.30007e-08
1.30048e-08
1.30089e-08
1.30131e-08
1.30173e-08
1.30214e-08
1.30256e-08
1.30297e-08
1.30339e-08
1.30381e-08
1.30423e-08
1.30464e-08
1.30506e-08
1.30548e-08
1.3059e-08
1.30632e-08
1.30674e-08
1.30716e-08
1.30758e-08
1.308e-08
1.30842e-08
1.30885e-08
1.30927e-08
1.30969e-08
1.31011e-08
1.31054e-08
1.31096e-08
1.31139e-08
1.31181e-08
1.31223e-08
1.31266e-08
1.31309e-08
1.31351e-08
1.31394e-08
1.31436e-08
1.31479e-08
1.31522e-08
1.31565e-08
1.31607e-08
1.3165e-08
1.31693e-08
1.31736e-08
1.31779e-08
1.31822e-08
1.31865e-08
1.31908e-08
1.31951e-08
1.31994e-08
1.32038e-08
1.32081e-08
1.32124e-08
1.32167e-08
1.32211e-08
1.32254e-08
1.32297e-08
1.32341e-08
1.32384e-08
1.32428e-08
1.32471e-08
1.32515e-08
1.32558e-08
1.32602e-08
1.32646e-08
1.32689e-08
1.32733e-08
1.32777e-08
1.32821e-08
1.32865e-08
1.32909e-08
1.32953e-08
1.32996e-08
1.33041e-08
1.33085e-08
1.33129e-08
1.33173e-08
1.33217e-08
1.33261e-08
1.33305e-08
1.3335e-08
1.33394e-08
1.33438e-08
1.33483e-08
1.33527e-08
1.33572e-08
1.33616e-08
1.33661e-08
1.33705e-08
1.3375e-08
1.33794e-08
1.33839e-08
1.33884e-08
1.33929e-08
1.33974e-08
1.34018e-08
1.34063e-08
1.34108e-08
1.34153e-08
1.34198e-08
1.34243e-08
1.34288e-08
1.34334e-08
1.34379e-08
1.34424e-08
1.34469e-08
1.34515e-08
1.3456e-08
1.34606e-08
1.34651e-08
1.34697e-08
1.34743e-08
1.34788e-08
1.34834e-08
1.3488e-08
1.34926e-08
1.34972e-08
1.35018e-08
1.35064e-08
1.3511e-08
1.35156e-08
1.35203e-08
1.35249e-08
1.35296e-08
1.35342e-08
1.35389e-08
1.35436e-08
1.35483e-08
1.3553e-08
1.35577e-08
1.35624e-08
1.35671e-08
1.35719e-08
1.35766e-08
1.35814e-08
1.35862e-08
1.3591e-08
1.35959e-08
1.36007e-08
1.36056e-08
1.36105e-08
1.36154e-08
1.36204e-08
1.36253e-08
1.36303e-08
1.36353e-08
1.36404e-08
1.36455e-08
1.36506e-08
1.36558e-08
1.3661e-08
1.36663e-08
1.36716e-08
1.3677e-08
1.36824e-08
1.36879e-08
1.36935e-08
1.36992e-08
1.37049e-08
1.37107e-08
1.37166e-08
1.37226e-08
1.37288e-08
1.37351e-08
1.37417e-08
1.37486e-08
1.37561e-08
1.37647e-08
1.37756e-08
1.37884e-08
1.74947e-05
3.80055e-06
1.35515e-06
6.366e-07
3.82998e-07
2.82048e-07
2.38323e-07
2.18342e-07
2.0896e-07
2.04531e-07
2.02472e-07
2.01552e-07
2.01173e-07
2.01044e-07
2.01024e-07
2.01049e-07
2.01087e-07
2.01127e-07
2.01164e-07
2.01196e-07
2.01224e-07
2.01248e-07
2.01269e-07
2.01287e-07
2.01303e-07
2.01317e-07
2.01329e-07
2.0134e-07
2.0135e-07
2.01359e-07
2.01368e-07
2.01376e-07
2.01383e-07
2.01389e-07
2.01396e-07
2.01402e-07
2.01407e-07
2.01412e-07
2.01417e-07
2.01422e-07
2.01427e-07
2.01431e-07
2.01435e-07
2.01439e-07
2.01443e-07
2.01447e-07
2.01451e-07
2.01454e-07
2.01458e-07
2.01461e-07
2.01464e-07
2.01468e-07
2.01471e-07
2.01474e-07
2.01477e-07
2.0148e-07
2.01484e-07
2.01487e-07
2.0149e-07
2.01493e-07
2.01495e-07
2.01498e-07
2.01501e-07
2.01504e-07
2.01507e-07
2.0151e-07
2.01512e-07
2.01515e-07
2.01517e-07
2.0152e-07
2.01522e-07
2.01525e-07
2.01527e-07
2.01529e-07
2.01531e-07
2.01533e-07
2.01535e-07
2.01537e-07
2.01539e-07
2.01541e-07
2.01543e-07
2.01545e-07
2.01547e-07
2.01549e-07
2.01551e-07
2.01553e-07
2.01556e-07
2.01558e-07
2.0156e-07
2.01562e-07
2.01564e-07
2.01567e-07
2.01569e-07
2.01571e-07
2.01574e-07
2.01576e-07
2.01578e-07
2.01581e-07
2.01583e-07
2.01585e-07
2.01588e-07
2.0159e-07
2.01593e-07
2.01595e-07
2.01598e-07
2.016e-07
2.01603e-07
2.01605e-07
2.01608e-07
2.0161e-07
2.01612e-07
2.01615e-07
2.01617e-07
2.0162e-07
2.01622e-07
2.01624e-07
2.01627e-07
2.01629e-07
2.01631e-07
2.01634e-07
2.01636e-07
2.01638e-07
2.01641e-07
2.01643e-07
2.01645e-07
2.01648e-07
2.0165e-07
2.01653e-07
2.01655e-07
2.01657e-07
2.0166e-07
2.01662e-07
2.01665e-07
2.01667e-07
2.0167e-07
2.01672e-07
2.01675e-07
2.01677e-07
2.0168e-07
2.01682e-07
2.01685e-07
2.01687e-07
2.0169e-07
2.01693e-07
2.01695e-07
2.01698e-07
2.017e-07
2.01703e-07
2.01705e-07
2.01708e-07
2.0171e-07
2.01713e-07
2.01715e-07
2.01718e-07
2.01721e-07
2.01723e-07
2.01726e-07
2.01728e-07
2.01731e-07
2.01733e-07
2.01736e-07
2.01738e-07
2.01741e-07
2.01744e-07
2.01746e-07
2.01749e-07
2.01751e-07
2.01754e-07
2.01757e-07
2.01759e-07
2.01762e-07
2.01764e-07
2.01767e-07
2.0177e-07
2.01772e-07
2.01775e-07
2.01778e-07
2.0178e-07
2.01783e-07
2.01785e-07
2.01788e-07
2.01791e-07
2.01793e-07
2.01796e-07
2.01799e-07
2.01801e-07
2.01804e-07
2.01807e-07
2.01809e-07
2.01812e-07
2.01815e-07
2.01817e-07
2.0182e-07
2.01823e-07
2.01825e-07
2.01828e-07
2.01831e-07
2.01833e-07
2.01836e-07
2.01839e-07
2.01841e-07
2.01844e-07
2.01847e-07
2.0185e-07
2.01852e-07
2.01855e-07
2.01858e-07
2.01861e-07
2.01863e-07
2.01866e-07
2.01869e-07
2.01871e-07
2.01874e-07
2.01877e-07
2.0188e-07
2.01882e-07
2.01885e-07
2.01888e-07
2.01891e-07
2.01893e-07
2.01896e-07
2.01899e-07
2.01902e-07
2.01904e-07
2.01907e-07
2.0191e-07
2.01913e-07
2.01915e-07
2.01918e-07
2.01921e-07
2.01924e-07
2.01926e-07
2.01929e-07
2.01932e-07
2.01935e-07
2.01938e-07
2.0194e-07
2.01943e-07
2.01946e-07
2.01949e-07
2.01952e-07
2.01954e-07
2.01957e-07
2.0196e-07
2.01963e-07
2.01966e-07
2.01968e-07
2.01971e-07
2.01974e-07
2.01977e-07
2.0198e-07
2.01983e-07
2.01985e-07
2.01988e-07
2.01991e-07
2.01994e-07
2.01997e-07
2.02e-07
2.02002e-07
2.02005e-07
2.02008e-07
2.02011e-07
2.02014e-07
2.02017e-07
2.0202e-07
2.02022e-07
2.02025e-07
2.02028e-07
2.02031e-07
2.02034e-07
2.02037e-07
2.0204e-07
2.02042e-07
2.02045e-07
2.02048e-07
2.02051e-07
2.02054e-07
2.02057e-07
2.0206e-07
2.02063e-07
2.02066e-07
2.02068e-07
2.02071e-07
2.02074e-07
2.02077e-07
2.0208e-07
2.02083e-07
2.02086e-07
2.02089e-07
2.02092e-07
2.02095e-07
2.02097e-07
2.021e-07
2.02103e-07
2.02106e-07
2.02109e-07
2.02112e-07
2.02115e-07
2.02118e-07
2.02121e-07
2.02124e-07
2.02127e-07
2.0213e-07
2.02132e-07
2.02135e-07
2.02138e-07
2.02141e-07
2.02144e-07
2.02147e-07
2.0215e-07
2.02153e-07
2.02156e-07
2.02159e-07
2.02162e-07
2.02165e-07
2.02168e-07
2.02171e-07
2.02174e-07
2.02177e-07
2.0218e-07
2.02183e-07
2.02185e-07
2.02188e-07
2.02191e-07
2.02194e-07
2.02197e-07
2.022e-07
2.02203e-07
2.02206e-07
2.02209e-07
2.02212e-07
2.02215e-07
2.02218e-07
2.02221e-07
2.02224e-07
2.02227e-07
2.0223e-07
2.02233e-07
2.02236e-07
2.02239e-07
2.02242e-07
2.02245e-07
2.02248e-07
2.02251e-07
2.02254e-07
2.02257e-07
2.0226e-07
2.02263e-07
2.02266e-07
2.02269e-07
2.02272e-07
2.02275e-07
2.02278e-07
2.02281e-07
2.02284e-07
2.02287e-07
2.0229e-07
2.02293e-07
2.02296e-07
2.02299e-07
2.02302e-07
2.02305e-07
2.02308e-07
2.02311e-07
2.02314e-07
2.02317e-07
2.0232e-07
2.02323e-07
2.02326e-07
2.02329e-07
2.02332e-07
2.02335e-07
2.02338e-07
2.02341e-07
2.02344e-07
2.02347e-07
2.0235e-07
2.02353e-07
2.02356e-07
2.02359e-07
2.02362e-07
2.02365e-07
2.02368e-07
2.02371e-07
2.02374e-07
2.02377e-07
2.02381e-07
2.02384e-07
2.02387e-07
2.0239e-07
2.02393e-07
2.02396e-07
2.02399e-07
2.02402e-07
2.02405e-07
2.02408e-07
2.02411e-07
2.02414e-07
2.02417e-07
2.0242e-07
2.02423e-07
2.02426e-07
2.02429e-07
2.02432e-07
2.02435e-07
2.02438e-07
2.02441e-07
2.02444e-07
2.02448e-07
2.02451e-07
2.02454e-07
2.02457e-07
2.0246e-07
2.02463e-07
2.02466e-07
2.02469e-07
2.02472e-07
2.02475e-07
2.02478e-07
2.02481e-07
2.02484e-07
2.02487e-07
2.0249e-07
2.02493e-07
2.02496e-07
2.025e-07
2.02503e-07
2.02506e-07
2.02509e-07
2.02512e-07
2.02515e-07
2.02518e-07
2.02521e-07
2.02524e-07
2.02527e-07
2.0253e-07
2.02533e-07
2.02536e-07
2.02539e-07
2.02542e-07
2.02546e-07
2.02549e-07
2.02552e-07
2.02555e-07
2.02558e-07
2.02561e-07
2.02564e-07