/*--------------------------------*- C++ -*----------------------------------*\
| =========                 |                                                 |
| \\      /  F ield         | OpenFOAM: The Open Source CFD Toolbox           |
|  \\    /   O peration     | Version:  2512                                  |
|   \\  /    A nd           | Website:  www.openfoam.com                      |
|    \\/     M anipulation  |                                                 |
\*---------------------------------------------------------------------------*/
FoamFile
{
    version     2.0;
    format      ascii;
    arch        "LSB;label=32;scalar=64";
    class       volVectorField;
    location    "0.004";
    object      B;
}
// * * * * * * * * * * * * * * * * * * * * * * * * * * * * * * * * * * * * * //

dimensions      [1 0 -2 0 0 -1 0];

internalField   nonuniform List<vector> 
100000
(
(0.187958 20.0559 0)
(0.183621 20.0322 0)
(0.172929 20.0357 0)
(0.162568 20.0319 0)
(0.154152 20.0266 0)
(0.147427 20.0219 0)
(0.141996 20.0181 0)
(0.13756 20.0148 0)
(0.133899 20.0121 0)
(0.130851 20.0099 0)
(0.128292 20.0082 0)
(0.12613 20.0067 0)
(0.124291 20.0056 0)
(0.12272 20.0047 0)
(0.121369 20.0039 0)
(0.120203 20.0033 0)
(0.119192 20.0028 0)
(0.118311 20.0024 0)
(0.117541 20.0021 0)
(0.116867 20.0018 0)
(0.116274 20.0016 0)
(0.115752 20.0014 0)
(0.115291 20.0012 0)
(0.114885 20.001 0)
(0.114525 20.0009 0)
(0.114207 20.0008 0)
(0.113926 20.0007 0)
(0.113678 20.0006 0)
(0.11346 20.0005 0)
(0.113267 20.0004 0)
(0.113099 20.0004 0)
(0.112952 20.0003 0)
(0.112824 20.0002 0)
(0.112713 20.0002 0)
(0.112618 20.0001 0)
(0.112538 20.0001 0)
(0.112471 20.0001 0)
(0.112417 20 0)
(0.112373 20 0)
(0.112339 20 0)
(0.112315 19.9999 0)
(0.112299 19.9999 0)
(0.112291 19.9999 0)
(0.11229 19.9999 0)
(0.112296 19.9999 0)
(0.112308 19.9998 0)
(0.112325 19.9998 0)
(0.112348 19.9998 0)
(0.112376 19.9998 0)
(0.112408 19.9998 0)
(0.112445 19.9998 0)
(0.112485 19.9998 0)
(0.112529 19.9997 0)
(0.112577 19.9997 0)
(0.112627 19.9997 0)
(0.11268 19.9997 0)
(0.112737 19.9997 0)
(0.112795 19.9997 0)
(0.112856 19.9997 0)
(0.112919 19.9997 0)
(0.112984 19.9997 0)
(0.113051 19.9997 0)
(0.113119 19.9997 0)
(0.113189 19.9997 0)
(0.113261 19.9997 0)
(0.113334 19.9997 0)
(0.113408 19.9996 0)
(0.113484 19.9996 0)
(0.11356 19.9996 0)
(0.113638 19.9996 0)
(0.113716 19.9996 0)
(0.113795 19.9996 0)
(0.113875 19.9996 0)
(0.113956 19.9996 0)
(0.114037 19.9996 0)
(0.114119 19.9996 0)
(0.114201 19.9996 0)
(0.114284 19.9996 0)
(0.114367 19.9996 0)
(0.11445 19.9996 0)
(0.114534 19.9996 0)
(0.114617 19.9996 0)
(0.114701 19.9996 0)
(0.114786 19.9996 0)
(0.11487 19.9996 0)
(0.114954 19.9996 0)
(0.115039 19.9996 0)
(0.115124 19.9996 0)
(0.115209 19.9996 0)
(0.115294 19.9996 0)
(0.115379 19.9997 0)
(0.115464 19.9997 0)
(0.115549 19.9997 0)
(0.115635 19.9997 0)
(0.11572 19.9997 0)
(0.115806 19.9997 0)
(0.115891 19.9997 0)
(0.115977 19.9996 0)
(0.116063 19.9996 0)
(0.116149 19.9996 0)
(0.116235 19.9996 0)
(0.116321 19.9996 0)
(0.116408 19.9996 0)
(0.116494 19.9996 0)
(0.11658 19.9996 0)
(0.116667 19.9996 0)
(0.116754 19.9996 0)
(0.11684 19.9996 0)
(0.116927 19.9996 0)
(0.117014 19.9996 0)
(0.117101 19.9996 0)
(0.117188 19.9996 0)
(0.117275 19.9996 0)
(0.117362 19.9996 0)
(0.11745 19.9996 0)
(0.117537 19.9996 0)
(0.117624 19.9996 0)
(0.117711 19.9996 0)
(0.117798 19.9996 0)
(0.117885 19.9996 0)
(0.117973 19.9996 0)
(0.11806 19.9997 0)
(0.118147 19.9997 0)
(0.118233 19.9997 0)
(0.11832 19.9997 0)
(0.118407 19.9997 0)
(0.118494 19.9997 0)
(0.118581 19.9997 0)
(0.118667 19.9997 0)
(0.118754 19.9997 0)
(0.118841 19.9997 0)
(0.118927 19.9997 0)
(0.119014 19.9997 0)
(0.119101 19.9997 0)
(0.119187 19.9997 0)
(0.119274 19.9997 0)
(0.11936 19.9997 0)
(0.119447 19.9997 0)
(0.119534 19.9997 0)
(0.11962 19.9997 0)
(0.119707 19.9997 0)
(0.119794 19.9997 0)
(0.119881 19.9997 0)
(0.119967 19.9997 0)
(0.120054 19.9997 0)
(0.120141 19.9997 0)
(0.120228 19.9997 0)
(0.120315 19.9997 0)
(0.120402 19.9997 0)
(0.120489 19.9997 0)
(0.120576 19.9997 0)
(0.120663 19.9997 0)
(0.12075 19.9997 0)
(0.120837 19.9997 0)
(0.120924 19.9997 0)
(0.121011 19.9997 0)
(0.121098 19.9997 0)
(0.121185 19.9997 0)
(0.121272 19.9997 0)
(0.121359 19.9997 0)
(0.121445 19.9997 0)
(0.121532 19.9997 0)
(0.121619 19.9997 0)
(0.121706 19.9997 0)
(0.121793 19.9997 0)
(0.12188 19.9997 0)
(0.121967 19.9997 0)
(0.122054 19.9997 0)
(0.122141 19.9997 0)
(0.122228 19.9997 0)
(0.122315 19.9997 0)
(0.122402 19.9997 0)
(0.122489 19.9997 0)
(0.122575 19.9997 0)
(0.122662 19.9997 0)
(0.122749 19.9997 0)
(0.122836 19.9997 0)
(0.122923 19.9997 0)
(0.12301 19.9997 0)
(0.123097 19.9997 0)
(0.123184 19.9997 0)
(0.123271 19.9997 0)
(0.123358 19.9997 0)
(0.123445 19.9997 0)
(0.123531 19.9997 0)
(0.123618 19.9997 0)
(0.123705 19.9997 0)
(0.123792 19.9997 0)
(0.123879 19.9997 0)
(0.123966 19.9997 0)
(0.124053 19.9997 0)
(0.12414 19.9997 0)
(0.124227 19.9997 0)
(0.124314 19.9997 0)
(0.1244 19.9997 0)
(0.124487 19.9997 0)
(0.124574 19.9997 0)
(0.124661 19.9997 0)
(0.124748 19.9997 0)
(0.124835 19.9997 0)
(0.124922 19.9997 0)
(0.125009 19.9997 0)
(0.125096 19.9997 0)
(0.125183 19.9997 0)
(0.12527 19.9997 0)
(0.125357 19.9997 0)
(0.125444 19.9997 0)
(0.125532 19.9997 0)
(0.125619 19.9997 0)
(0.125706 19.9997 0)
(0.125793 19.9997 0)
(0.12588 19.9997 0)
(0.125967 19.9997 0)
(0.126054 19.9997 0)
(0.126141 19.9997 0)
(0.126228 19.9997 0)
(0.126315 19.9997 0)
(0.126402 19.9997 0)
(0.126489 19.9997 0)
(0.126576 19.9997 0)
(0.126663 19.9997 0)
(0.12675 19.9997 0)
(0.126837 19.9997 0)
(0.126924 19.9997 0)
(0.127011 19.9997 0)
(0.127098 19.9997 0)
(0.127185 19.9997 0)
(0.127272 19.9997 0)
(0.127359 19.9997 0)
(0.127446 19.9997 0)
(0.127533 19.9997 0)
(0.12762 19.9997 0)
(0.127707 19.9997 0)
(0.127794 19.9997 0)
(0.127881 19.9997 0)
(0.127968 19.9997 0)
(0.128055 19.9997 0)
(0.128142 19.9997 0)
(0.128229 19.9997 0)
(0.128316 19.9997 0)
(0.128403 19.9997 0)
(0.12849 19.9997 0)
(0.128577 19.9997 0)
(0.128664 19.9997 0)
(0.128751 19.9997 0)
(0.128838 19.9997 0)
(0.128925 19.9997 0)
(0.129012 19.9997 0)
(0.129099 19.9997 0)
(0.129186 19.9997 0)
(0.129273 19.9997 0)
(0.12936 19.9997 0)
(0.129447 19.9997 0)
(0.129534 19.9997 0)
(0.129621 19.9997 0)
(0.129708 19.9997 0)
(0.129795 19.9997 0)
(0.129882 19.9997 0)
(0.129969 19.9996 0)
(0.130056 19.9996 0)
(0.130143 19.9996 0)
(0.13023 19.9996 0)
(0.130318 19.9996 0)
(0.130405 19.9996 0)
(0.130492 19.9996 0)
(0.130579 19.9996 0)
(0.130666 19.9996 0)
(0.130753 19.9996 0)
(0.13084 19.9996 0)
(0.130927 19.9996 0)
(0.131014 19.9996 0)
(0.131101 19.9996 0)
(0.131188 19.9996 0)
(0.131275 19.9996 0)
(0.131362 19.9996 0)
(0.131449 19.9996 0)
(0.131536 19.9996 0)
(0.131624 19.9996 0)
(0.131711 19.9996 0)
(0.131798 19.9996 0)
(0.131885 19.9996 0)
(0.131972 19.9996 0)
(0.132059 19.9996 0)
(0.132146 19.9996 0)
(0.132233 19.9996 0)
(0.13232 19.9996 0)
(0.132407 19.9996 0)
(0.132494 19.9996 0)
(0.132581 19.9996 0)
(0.132668 19.9996 0)
(0.132755 19.9996 0)
(0.132842 19.9996 0)
(0.13293 19.9996 0)
(0.133017 19.9996 0)
(0.133104 19.9996 0)
(0.133191 19.9996 0)
(0.133278 19.9996 0)
(0.133365 19.9996 0)
(0.133452 19.9996 0)
(0.133539 19.9996 0)
(0.133626 19.9996 0)
(0.133713 19.9996 0)
(0.1338 19.9996 0)
(0.133887 19.9996 0)
(0.133974 19.9996 0)
(0.134061 19.9996 0)
(0.134148 19.9996 0)
(0.134235 19.9996 0)
(0.134322 19.9996 0)
(0.134409 19.9996 0)
(0.134496 19.9996 0)
(0.134583 19.9996 0)
(0.134671 19.9996 0)
(0.134758 19.9996 0)
(0.134845 19.9996 0)
(0.134932 19.9996 0)
(0.135019 19.9996 0)
(0.135106 19.9996 0)
(0.135193 19.9996 0)
(0.13528 19.9996 0)
(0.135367 19.9996 0)
(0.135454 19.9996 0)
(0.135541 19.9996 0)
(0.135628 19.9996 0)
(0.135715 19.9996 0)
(0.135802 19.9996 0)
(0.135889 19.9996 0)
(0.135976 19.9996 0)
(0.136063 19.9996 0)
(0.13615 19.9996 0)
(0.136237 19.9996 0)
(0.136324 19.9996 0)
(0.136411 19.9996 0)
(0.136498 19.9996 0)
(0.136585 19.9996 0)
(0.136672 19.9996 0)
(0.136759 19.9996 0)
(0.136846 19.9996 0)
(0.136933 19.9996 0)
(0.13702 19.9996 0)
(0.137107 19.9996 0)
(0.137194 19.9996 0)
(0.137281 19.9996 0)
(0.137368 19.9996 0)
(0.137455 19.9996 0)
(0.137542 19.9996 0)
(0.137629 19.9996 0)
(0.137716 19.9996 0)
(0.137802 19.9996 0)
(0.137889 19.9996 0)
(0.137976 19.9996 0)
(0.138063 19.9996 0)
(0.13815 19.9996 0)
(0.138237 19.9996 0)
(0.138324 19.9996 0)
(0.138411 19.9996 0)
(0.138498 19.9996 0)
(0.138585 19.9996 0)
(0.138672 19.9996 0)
(0.138759 19.9996 0)
(0.138846 19.9996 0)
(0.138933 19.9996 0)
(0.13902 19.9996 0)
(0.139107 19.9996 0)
(0.139194 19.9996 0)
(0.139281 19.9996 0)
(0.139368 19.9996 0)
(0.139454 19.9996 0)
(0.139541 19.9996 0)
(0.139628 19.9996 0)
(0.139715 19.9996 0)
(0.139802 19.9996 0)
(0.139889 19.9996 0)
(0.139976 19.9997 0)
(0.140063 19.9997 0)
(0.14015 19.9997 0)
(0.140237 19.9997 0)
(0.140324 19.9997 0)
(0.140411 19.9997 0)
(0.140497 19.9997 0)
(0.140584 19.9997 0)
(0.140671 19.9997 0)
(0.140758 19.9997 0)
(0.140845 19.9997 0)
(0.140932 19.9997 0)
(0.141019 19.9997 0)
(0.141106 19.9997 0)
(0.141193 19.9997 0)
(0.14128 19.9997 0)
(0.141366 19.9997 0)
(0.141453 19.9997 0)
(0.14154 19.9997 0)
(0.141627 19.9997 0)
(0.141714 19.9997 0)
(0.141801 19.9997 0)
(0.141888 19.9997 0)
(0.141975 19.9997 0)
(0.142061 19.9997 0)
(0.142148 19.9997 0)
(0.142235 19.9997 0)
(0.142322 19.9997 0)
(0.142409 19.9997 0)
(0.142496 19.9997 0)
(0.142583 19.9997 0)
(0.142669 19.9997 0)
(0.142756 19.9997 0)
(0.142843 19.9997 0)
(0.14293 19.9997 0)
(0.143017 19.9997 0)
(0.143104 19.9997 0)
(0.143191 19.9997 0)
(0.143277 19.9997 0)
(0.143364 19.9997 0)
(0.143451 19.9997 0)
(0.143538 19.9997 0)
(0.143625 19.9997 0)
(0.143712 19.9997 0)
(0.143798 19.9997 0)
(0.143885 19.9997 0)
(0.143972 19.9997 0)
(0.144059 19.9997 0)
(0.144146 19.9997 0)
(0.144233 19.9997 0)
(0.144319 19.9997 0)
(0.144406 19.9997 0)
(0.144493 19.9997 0)
(0.14458 19.9997 0)
(0.144667 19.9997 0)
(0.144753 19.9997 0)
(0.14484 19.9997 0)
(0.144927 19.9997 0)
(0.145014 19.9997 0)
(0.145101 19.9997 0)
(0.145187 19.9997 0)
(0.145274 19.9997 0)
(0.145361 19.9997 0)
(0.145448 19.9997 0)
(0.145535 19.9997 0)
(0.145621 19.9997 0)
(0.145708 19.9997 0)
(0.145795 19.9997 0)
(0.145882 19.9997 0)
(0.145968 19.9997 0)
(0.146055 19.9997 0)
(0.146142 19.9997 0)
(0.146229 19.9997 0)
(0.146316 19.9997 0)
(0.146402 19.9997 0)
(0.146489 19.9997 0)
(0.146576 19.9997 0)
(0.146663 19.9997 0)
(0.146749 19.9997 0)
(0.146836 19.9997 0)
(0.146923 19.9997 0)
(0.14701 19.9997 0)
(0.147096 19.9997 0)
(0.147183 19.9997 0)
(0.14727 19.9997 0)
(0.147357 19.9997 0)
(0.147443 19.9997 0)
(0.14753 19.9997 0)
(0.147617 19.9997 0)
(0.147703 19.9997 0)
(0.14779 19.9997 0)
(0.147877 19.9997 0)
(0.147964 19.9997 0)
(0.14805 19.9997 0)
(0.148137 19.9997 0)
(0.148224 19.9997 0)
(0.148311 19.9997 0)
(0.148397 19.9997 0)
(0.148484 19.9997 0)
(0.148571 19.9997 0)
(0.148657 19.9997 0)
(0.148744 19.9997 0)
(0.148831 19.9997 0)
(0.148917 19.9997 0)
(0.149004 19.9997 0)
(0.149091 19.9997 0)
(0.149178 19.9997 0)
(0.149264 19.9997 0)
(0.149351 19.9997 0)
(0.149438 19.9997 0)
(0.149524 19.9997 0)
(0.149611 19.9997 0)
(0.149698 19.9997 0)
(0.149784 19.9997 0)
(0.149871 19.9997 0)
(0.149958 19.9997 0)
(0.150044 19.9997 0)
(0.150131 19.9997 0)
(0.150218 19.9997 0)
(0.150304 19.9997 0)
(0.150391 19.9997 0)
(0.150478 19.9997 0)
(0.150564 19.9997 0)
(0.150651 19.9997 0)
(0.150738 19.9997 0)
(0.150824 19.9997 0)
(0.150911 19.9997 0)
(0.150998 19.9997 0)
(0.151084 19.9997 0)
(0.151171 19.9997 0)
(0.151257 19.9997 0)
(0.151344 19.9997 0)
(0.151431 19.9997 0)
(0.151517 19.9997 0)
(0.151604 19.9997 0)
(0.151691 19.9997 0)
(0.151777 19.9997 0)
(0.151864 19.9997 0)
(0.15195 19.9997 0)
(0.152037 19.9997 0)
(0.152124 19.9997 0)
(0.15221 19.9997 0)
(0.152297 19.9997 0)
(0.152383 19.9997 0)
(0.15247 19.9997 0)
(0.152557 19.9997 0)
(0.152643 19.9997 0)
(0.15273 19.9997 0)
(0.152816 19.9997 0)
(0.152903 19.9997 0)
(0.15299 19.9997 0)
(0.153076 19.9997 0)
(0.153163 19.9997 0)
(0.153249 19.9997 0)
(0.153336 19.9997 0)
(0.153422 19.9997 0)
(0.153509 19.9997 0)
(0.153596 19.9997 0)
(0.153682 19.9997 0)
(0.153769 19.9997 0)
(0.153855 19.9997 0)
(0.153942 19.9997 0)
(0.154028 19.9997 0)
(0.154115 19.9997 0)
(0.154201 19.9997 0)
(0.154288 19.9997 0)
(0.154374 19.9997 0)
(0.154461 19.9997 0)
(0.154548 19.9997 0)
(0.154634 19.9997 0)
(0.154721 19.9997 0)
(0.154807 19.9997 0)
(0.154894 19.9997 0)
(0.15498 19.9997 0)
(0.155067 19.9997 0)
(0.155153 19.9997 0)
(0.15524 19.9997 0)
(0.155326 19.9997 0)
(0.155413 19.9997 0)
(0.155499 19.9997 0)
(0.155586 19.9997 0)
(0.155672 19.9997 0)
(0.155759 19.9997 0)
(0.155845 19.9997 0)
(0.155932 19.9997 0)
(0.156018 19.9997 0)
(0.156105 19.9997 0)
(0.156191 19.9997 0)
(0.156278 19.9997 0)
(0.156364 19.9997 0)
(0.156451 19.9997 0)
(0.156537 19.9997 0)
(0.156624 19.9997 0)
(0.15671 19.9997 0)
(0.156797 19.9997 0)
(0.156883 19.9997 0)
(0.156969 19.9997 0)
(0.157056 19.9997 0)
(0.157142 19.9997 0)
(0.157229 19.9997 0)
(0.157315 19.9997 0)
(0.157402 19.9997 0)
(0.157488 19.9997 0)
(0.157575 19.9997 0)
(0.157661 19.9997 0)
(0.157748 19.9997 0)
(0.157834 19.9997 0)
(0.15792 19.9997 0)
(0.158007 19.9997 0)
(0.158093 19.9997 0)
(0.15818 19.9997 0)
(0.158266 19.9997 0)
(0.158352 19.9997 0)
(0.158439 19.9997 0)
(0.158525 19.9997 0)
(0.158612 19.9997 0)
(0.158698 19.9997 0)
(0.158785 19.9997 0)
(0.158871 19.9997 0)
(0.158957 19.9997 0)
(0.159044 19.9997 0)
(0.15913 19.9997 0)
(0.159217 19.9997 0)
(0.159303 19.9997 0)
(0.159389 19.9997 0)
(0.159476 19.9997 0)
(0.159562 19.9997 0)
(0.159648 19.9997 0)
(0.159735 19.9997 0)
(0.159821 19.9997 0)
(0.159908 19.9997 0)
(0.159994 19.9997 0)
(0.16008 19.9997 0)
(0.160167 19.9997 0)
(0.160253 19.9997 0)
(0.160339 19.9997 0)
(0.160426 19.9997 0)
(0.160512 19.9997 0)
(0.160598 19.9997 0)
(0.160685 19.9997 0)
(0.160771 19.9997 0)
(0.160857 19.9997 0)
(0.160944 19.9997 0)
(0.16103 19.9997 0)
(0.161116 19.9997 0)
(0.161203 19.9997 0)
(0.161289 19.9997 0)
(0.161375 19.9997 0)
(0.161462 19.9997 0)
(0.161548 19.9997 0)
(0.161634 19.9997 0)
(0.161721 19.9997 0)
(0.161807 19.9997 0)
(0.161893 19.9997 0)
(0.161979 19.9997 0)
(0.162066 19.9997 0)
(0.162152 19.9997 0)
(0.162238 19.9997 0)
(0.162325 19.9997 0)
(0.162411 19.9997 0)
(0.162497 19.9997 0)
(0.162583 19.9997 0)
(0.16267 19.9997 0)
(0.162756 19.9997 0)
(0.162842 19.9997 0)
(0.162928 19.9997 0)
(0.163015 19.9997 0)
(0.163101 19.9997 0)
(0.163187 19.9997 0)
(0.163274 19.9997 0)
(0.16336 19.9997 0)
(0.163446 19.9997 0)
(0.163532 19.9997 0)
(0.163619 19.9997 0)
(0.163705 19.9997 0)
(0.163791 19.9997 0)
(0.163877 19.9997 0)
(0.163963 19.9997 0)
(0.16405 19.9997 0)
(0.164136 19.9997 0)
(0.164222 19.9997 0)
(0.164308 19.9997 0)
(0.164395 19.9997 0)
(0.164481 19.9997 0)
(0.164567 19.9997 0)
(0.164653 19.9997 0)
(0.164739 19.9997 0)
(0.164826 19.9997 0)
(0.164912 19.9997 0)
(0.164998 19.9997 0)
(0.165084 19.9997 0)
(0.16517 19.9997 0)
(0.165256 19.9997 0)
(0.165343 19.9997 0)
(0.165429 19.9997 0)
(0.165515 19.9997 0)
(0.165601 19.9997 0)
(0.165687 19.9997 0)
(0.165774 19.9997 0)
(0.16586 19.9997 0)
(0.165946 19.9997 0)
(0.166032 19.9997 0)
(0.166118 19.9997 0)
(0.166204 19.9997 0)
(0.16629 19.9997 0)
(0.166377 19.9997 0)
(0.166463 19.9997 0)
(0.166549 19.9997 0)
(0.166635 19.9997 0)
(0.166721 19.9997 0)
(0.166807 19.9997 0)
(0.166893 19.9997 0)
(0.166979 19.9997 0)
(0.167066 19.9997 0)
(0.167152 19.9997 0)
(0.167238 19.9997 0)
(0.167324 19.9997 0)
(0.16741 19.9997 0)
(0.167496 19.9997 0)
(0.167582 19.9997 0)
(0.167668 19.9997 0)
(0.167754 19.9997 0)
(0.167841 19.9997 0)
(0.167927 19.9997 0)
(0.168013 19.9997 0)
(0.168099 19.9997 0)
(0.168185 19.9997 0)
(0.168271 19.9997 0)
(0.168357 19.9997 0)
(0.168443 19.9997 0)
(0.168529 19.9997 0)
(0.168615 19.9997 0)
(0.168701 19.9997 0)
(0.168787 19.9997 0)
(0.168873 19.9997 0)
(0.168959 19.9997 0)
(0.169045 19.9997 0)
(0.169131 19.9997 0)
(0.169217 19.9997 0)
(0.169304 19.9997 0)
(0.16939 19.9997 0)
(0.169476 19.9997 0)
(0.169562 19.9997 0)
(0.169648 19.9997 0)
(0.169734 19.9997 0)
(0.16982 19.9997 0)
(0.169906 19.9997 0)
(0.169992 19.9997 0)
(0.170078 19.9997 0)
(0.170164 19.9997 0)
(0.17025 19.9997 0)
(0.170336 19.9997 0)
(0.170422 19.9997 0)
(0.170508 19.9997 0)
(0.170594 19.9997 0)
(0.17068 19.9997 0)
(0.170766 19.9997 0)
(0.170852 19.9997 0)
(0.170938 19.9997 0)
(0.171023 19.9997 0)
(0.171109 19.9997 0)
(0.171195 19.9997 0)
(0.171281 19.9997 0)
(0.171367 19.9997 0)
(0.171453 19.9997 0)
(0.171539 19.9997 0)
(0.171625 19.9997 0)
(0.171711 19.9997 0)
(0.171797 19.9997 0)
(0.171883 19.9997 0)
(0.171969 19.9997 0)
(0.172055 19.9997 0)
(0.172141 19.9997 0)
(0.172227 19.9997 0)
(0.172313 19.9997 0)
(0.172398 19.9997 0)
(0.172484 19.9997 0)
(0.17257 19.9997 0)
(0.172656 19.9997 0)
(0.172742 19.9997 0)
(0.172828 19.9997 0)
(0.172914 19.9997 0)
(0.173 19.9997 0)
(0.173086 19.9997 0)
(0.173172 19.9997 0)
(0.173257 19.9997 0)
(0.173343 19.9997 0)
(0.173429 19.9997 0)
(0.173515 19.9997 0)
(0.173601 19.9997 0)
(0.173687 19.9997 0)
(0.173773 19.9997 0)
(0.173858 19.9997 0)
(0.173944 19.9997 0)
(0.17403 19.9997 0)
(0.174116 19.9997 0)
(0.174202 19.9997 0)
(0.174288 19.9997 0)
(0.174374 19.9997 0)
(0.174459 19.9997 0)
(0.174545 19.9997 0)
(0.174631 19.9997 0)
(0.174717 19.9997 0)
(0.174803 19.9997 0)
(0.174888 19.9997 0)
(0.174974 19.9997 0)
(0.17506 19.9997 0)
(0.175146 19.9997 0)
(0.175232 19.9997 0)
(0.175317 19.9997 0)
(0.175403 19.9997 0)
(0.175489 19.9997 0)
(0.175575 19.9997 0)
(0.175661 19.9997 0)
(0.175746 19.9997 0)
(0.175832 19.9997 0)
(0.175918 19.9997 0)
(0.176004 19.9997 0)
(0.176089 19.9997 0)
(0.176175 19.9997 0)
(0.176261 19.9997 0)
(0.176347 19.9997 0)
(0.176433 19.9997 0)
(0.176518 19.9997 0)
(0.176604 19.9997 0)
(0.17669 19.9997 0)
(0.176775 19.9997 0)
(0.176861 19.9997 0)
(0.176947 19.9997 0)
(0.177033 19.9997 0)
(0.177118 19.9997 0)
(0.177204 19.9997 0)
(0.17729 19.9997 0)
(0.177376 19.9997 0)
(0.177461 19.9997 0)
(0.177547 19.9997 0)
(0.177633 19.9997 0)
(0.177718 19.9997 0)
(0.177804 19.9997 0)
(0.17789 19.9997 0)
(0.177975 19.9997 0)
(0.178061 19.9997 0)
(0.178147 19.9997 0)
(0.178232 19.9997 0)
(0.178318 19.9997 0)
(0.178404 19.9997 0)
(0.178489 19.9997 0)
(0.178575 19.9997 0)
(0.178661 19.9997 0)
(0.178746 19.9997 0)
(0.178832 19.9997 0)
(0.178918 19.9997 0)
(0.179003 19.9997 0)
(0.179089 19.9997 0)
(0.179175 19.9997 0)
(0.17926 19.9997 0)
(0.179346 19.9997 0)
(0.179431 19.9997 0)
(0.179517 19.9997 0)
(0.179603 19.9997 0)
(0.179688 19.9997 0)
(0.179774 19.9997 0)
(0.179859 19.9997 0)
(0.179945 19.9997 0)
(0.180031 19.9997 0)
(0.180116 19.9997 0)
(0.180202 19.9997 0)
(0.180287 19.9997 0)
(0.180373 19.9997 0)
(0.180459 19.9997 0)
(0.180544 19.9997 0)
(0.18063 19.9997 0)
(0.180715 19.9997 0)
(0.180801 19.9997 0)
(0.180886 19.9997 0)
(0.180972 19.9997 0)
(0.181058 19.9997 0)
(0.181143 19.9997 0)
(0.181229 19.9997 0)
(0.181314 19.9997 0)
(0.1814 19.9997 0)
(0.181485 19.9997 0)
(0.181571 19.9997 0)
(0.181656 19.9997 0)
(0.181742 19.9997 0)
(0.181827 19.9997 0)
(0.181913 19.9997 0)
(0.181998 19.9997 0)
(0.182084 19.9997 0)
(0.182169 19.9997 0)
(0.182255 19.9997 0)
(0.18234 19.9997 0)
(0.182426 19.9997 0)
(0.182511 19.9997 0)
(0.182597 19.9997 0)
(0.182682 19.9997 0)
(0.182768 19.9997 0)
(0.182853 19.9997 0)
(0.182939 19.9997 0)
(0.183024 19.9997 0)
(0.18311 19.9997 0)
(0.183195 19.9997 0)
(0.183281 19.9997 0)
(0.183366 19.9997 0)
(0.183451 19.9997 0)
(0.183537 19.9997 0)
(0.183622 19.9997 0)
(0.183708 19.9997 0)
(0.183793 19.9997 0)
(0.183879 19.9997 0)
(0.183964 19.9997 0)
(0.18405 19.9997 0)
(0.184135 19.9997 0)
(0.18422 19.9997 0)
(0.184306 19.9997 0)
(0.184391 19.9997 0)
(0.184477 19.9997 0)
(0.184562 19.9997 0)
(0.184647 19.9997 0)
(0.184733 19.9997 0)
(0.184818 19.9997 0)
(0.184904 19.9997 0)
(0.184989 19.9997 0)
(0.185074 19.9997 0)
(0.18516 19.9997 0)
(0.185245 19.9997 0)
(0.185331 19.9997 0)
(0.185416 19.9997 0)
(0.185501 19.9997 0)
(0.185587 19.9997 0)
(0.185672 19.9997 0)
(0.185758 19.9997 0)
(0.185843 19.9997 0)
(0.185928 19.9997 0)
(0.186014 19.9997 0)
(0.186099 19.9997 0)
(0.186185 19.9997 0)
(0.18627 19.9997 0)
(0.186355 19.9997 0)
(0.186441 19.9997 0)
(0.186526 19.9997 0)
(0.186612 19.9997 0)
(0.186697 19.9997 0)
(0.186782 19.9997 0)
(0.186868 19.9997 0)
(0.186953 19.9997 0)
(0.187039 19.9997 0)
(0.187124 19.9997 0)
(0.18721 19.9997 0)
(0.187295 19.9997 0)
(0.187381 19.9997 0)
(0.187466 19.9997 0)
(0.187552 19.9997 0)
(0.187637 19.9997 0)
(0.187723 19.9997 0)
(0.187808 19.9997 0)
(0.187894 19.9997 0)
(0.187979 19.9997 0)
(0.188065 19.9997 0)
(0.18815 19.9997 0)
(0.188236 19.9997 0)
(0.188322 19.9997 0)
(0.188407 19.9997 0)
(0.188493 19.9997 0)
(0.188579 19.9997 0)
(0.188665 19.9997 0)
(0.188751 19.9996 0)
(0.188836 19.9996 0)
(0.188922 19.9996 0)
(0.189008 19.9996 0)
(0.189094 19.9996 0)
(0.18918 19.9996 0)
(0.189266 19.9996 0)
(0.189352 19.9996 0)
(0.189439 19.9996 0)
(0.189525 19.9996 0)
(0.189611 19.9996 0)
(0.189698 19.9996 0)
(0.189784 19.9996 0)
(0.189871 19.9996 0)
(0.189958 19.9996 0)
(0.190044 19.9996 0)
(0.190131 19.9996 0)
(0.190218 19.9996 0)
(0.190306 19.9996 0)
(0.190393 19.9996 0)
(0.19048 19.9996 0)
(0.190568 19.9996 0)
(0.190656 19.9996 0)
(0.190744 19.9996 0)
(0.190832 19.9996 0)
(0.19092 19.9996 0)
(0.191009 19.9996 0)
(0.191098 19.9996 0)
(0.191187 19.9996 0)
(0.191276 19.9996 0)
(0.191366 19.9996 0)
(0.191456 19.9996 0)
(0.191546 19.9996 0)
(0.191637 19.9996 0)
(0.191728 19.9996 0)
(0.191819 19.9996 0)
(0.191911 19.9996 0)
(0.192004 19.9996 0)
(0.192097 19.9996 0)
(0.19219 19.9996 0)
(0.192284 19.9996 0)
(0.192379 19.9996 0)
(0.192475 19.9996 0)
(0.192571 19.9996 0)
(0.192668 19.9996 0)
(0.192766 19.9996 0)
(0.192865 19.9996 0)
(0.192965 19.9996 0)
(0.193066 19.9996 0)
(0.193168 19.9996 0)
(0.193272 19.9996 0)
(0.193377 19.9996 0)
(0.193485 19.9996 0)
(0.193594 19.9996 0)
(0.193708 19.9996 0)
(0.193825 19.9996 0)
(0.193947 19.9996 0)
(0.194075 19.9996 0)
(0.194212 19.9996 0)
(0.194358 19.9996 0)
(0.194495 19.9997 0)
(0.21984 20.0341 0)
(0.233792 20.0382 0)
(0.250815 20.0545 0)
(0.26293 20.0601 0)
(0.269547 20.0579 0)
(0.272156 20.0523 0)
(0.272191 20.0455 0)
(0.270695 20.0387 0)
(0.268374 20.0325 0)
(0.265686 20.0271 0)
(0.262914 20.0226 0)
(0.260223 20.0188 0)
(0.257703 20.0158 0)
(0.255394 20.0133 0)
(0.253306 20.0112 0)
(0.251435 20.0096 0)
(0.249766 20.0082 0)
(0.248281 20.0071 0)
(0.24696 20.0061 0)
(0.245786 20.0053 0)
(0.244742 20.0046 0)
(0.243814 20.0041 0)
(0.242987 20.0036 0)
(0.242251 20.0031 0)
(0.241595 20.0027 0)
(0.24101 20.0024 0)
(0.24049 20.0021 0)
(0.240027 20.0018 0)
(0.239615 20.0016 0)
(0.23925 20.0014 0)
(0.238926 20.0012 0)
(0.23864 20.001 0)
(0.238389 20.0009 0)
(0.238168 20.0007 0)
(0.237976 20.0006 0)
(0.23781 20.0005 0)
(0.237667 20.0004 0)
(0.237546 20.0003 0)
(0.237444 20.0002 0)
(0.237361 20.0001 0)
(0.237294 20 0)
(0.237243 20 0)
(0.237205 19.9999 0)
(0.237181 19.9998 0)
(0.237168 19.9998 0)
(0.237167 19.9997 0)
(0.237175 19.9997 0)
(0.237193 19.9996 0)
(0.23722 19.9996 0)
(0.237255 19.9996 0)
(0.237298 19.9995 0)
(0.237347 19.9995 0)
(0.237403 19.9994 0)
(0.237465 19.9994 0)
(0.237532 19.9994 0)
(0.237605 19.9994 0)
(0.237682 19.9993 0)
(0.237764 19.9993 0)
(0.23785 19.9993 0)
(0.237939 19.9993 0)
(0.238032 19.9993 0)
(0.238129 19.9992 0)
(0.238228 19.9992 0)
(0.23833 19.9992 0)
(0.238435 19.9992 0)
(0.238542 19.9992 0)
(0.238651 19.9992 0)
(0.238762 19.9992 0)
(0.238876 19.9992 0)
(0.238991 19.9992 0)
(0.239108 19.9992 0)
(0.239226 19.9991 0)
(0.239346 19.9991 0)
(0.239468 19.9991 0)
(0.239591 19.9991 0)
(0.239716 19.9991 0)
(0.239842 19.9992 0)
(0.239969 19.9992 0)
(0.240097 19.9992 0)
(0.240226 19.9992 0)
(0.240357 19.9992 0)
(0.240487 19.9992 0)
(0.240619 19.9992 0)
(0.240751 19.9992 0)
(0.240883 19.9992 0)
(0.241016 19.9992 0)
(0.241149 19.9992 0)
(0.241283 19.9992 0)
(0.241417 19.9992 0)
(0.241551 19.9992 0)
(0.241685 19.9992 0)
(0.241819 19.9992 0)
(0.241954 19.9992 0)
(0.242089 19.9992 0)
(0.242224 19.9992 0)
(0.24236 19.9992 0)
(0.242495 19.9992 0)
(0.242631 19.9992 0)
(0.242767 19.9992 0)
(0.242903 19.9992 0)
(0.243039 19.9992 0)
(0.243175 19.9992 0)
(0.243311 19.9992 0)
(0.243448 19.9992 0)
(0.243584 19.9992 0)
(0.243721 19.9992 0)
(0.243858 19.9992 0)
(0.243994 19.9992 0)
(0.244131 19.9992 0)
(0.244268 19.9992 0)
(0.244406 19.9992 0)
(0.244543 19.9992 0)
(0.24468 19.9992 0)
(0.244818 19.9992 0)
(0.244955 19.9992 0)
(0.245093 19.9992 0)
(0.245231 19.9992 0)
(0.245369 19.9992 0)
(0.245507 19.9992 0)
(0.245645 19.9992 0)
(0.245783 19.9992 0)
(0.245921 19.9992 0)
(0.246059 19.9992 0)
(0.246197 19.9992 0)
(0.246334 19.9992 0)
(0.246472 19.9992 0)
(0.24661 19.9992 0)
(0.246748 19.9992 0)
(0.246885 19.9992 0)
(0.247023 19.9992 0)
(0.24716 19.9992 0)
(0.247298 19.9992 0)
(0.247435 19.9992 0)
(0.247573 19.9992 0)
(0.24771 19.9992 0)
(0.247847 19.9992 0)
(0.247985 19.9992 0)
(0.248122 19.9992 0)
(0.24826 19.9992 0)
(0.248397 19.9992 0)
(0.248534 19.9992 0)
(0.248672 19.9992 0)
(0.248809 19.9992 0)
(0.248947 19.9992 0)
(0.249084 19.9992 0)
(0.249221 19.9992 0)
(0.249359 19.9992 0)
(0.249497 19.9992 0)
(0.249634 19.9992 0)
(0.249772 19.9992 0)
(0.249909 19.9992 0)
(0.250047 19.9992 0)
(0.250185 19.9992 0)
(0.250323 19.9992 0)
(0.25046 19.9992 0)
(0.250598 19.9992 0)
(0.250736 19.9992 0)
(0.250874 19.9992 0)
(0.251012 19.9992 0)
(0.251149 19.9992 0)
(0.251287 19.9992 0)
(0.251425 19.9992 0)
(0.251563 19.9992 0)
(0.2517 19.9992 0)
(0.251838 19.9992 0)
(0.251976 19.9992 0)
(0.252113 19.9992 0)
(0.252251 19.9992 0)
(0.252388 19.9992 0)
(0.252526 19.9992 0)
(0.252664 19.9992 0)
(0.252801 19.9992 0)
(0.252939 19.9992 0)
(0.253076 19.9992 0)
(0.253214 19.9992 0)
(0.253351 19.9992 0)
(0.253489 19.9992 0)
(0.253626 19.9992 0)
(0.253764 19.9992 0)
(0.253901 19.9992 0)
(0.254038 19.9992 0)
(0.254176 19.9992 0)
(0.254313 19.9992 0)
(0.254451 19.9992 0)
(0.254588 19.9992 0)
(0.254725 19.9992 0)
(0.254863 19.9992 0)
(0.255 19.9992 0)
(0.255138 19.9992 0)
(0.255275 19.9992 0)
(0.255413 19.9992 0)
(0.25555 19.9992 0)
(0.255687 19.9992 0)
(0.255825 19.9992 0)
(0.255962 19.9992 0)
(0.2561 19.9992 0)
(0.256237 19.9992 0)
(0.256375 19.9992 0)
(0.256512 19.9992 0)
(0.256649 19.9992 0)
(0.256787 19.9992 0)
(0.256924 19.9992 0)
(0.257062 19.9992 0)
(0.257199 19.9992 0)
(0.257337 19.9992 0)
(0.257474 19.9992 0)
(0.257612 19.9992 0)
(0.257749 19.9992 0)
(0.257887 19.9992 0)
(0.258024 19.9992 0)
(0.258161 19.9992 0)
(0.258299 19.9992 0)
(0.258436 19.9992 0)
(0.258574 19.9992 0)
(0.258711 19.9992 0)
(0.258848 19.9992 0)
(0.258986 19.9992 0)
(0.259123 19.9992 0)
(0.25926 19.9992 0)
(0.259398 19.9992 0)
(0.259535 19.9992 0)
(0.259672 19.9992 0)
(0.25981 19.9992 0)
(0.259947 19.9992 0)
(0.260084 19.9992 0)
(0.260221 19.9992 0)
(0.260358 19.9992 0)
(0.260496 19.9992 0)
(0.260633 19.9992 0)
(0.26077 19.9992 0)
(0.260907 19.9992 0)
(0.261044 19.9992 0)
(0.261181 19.9992 0)
(0.261318 19.9992 0)
(0.261456 19.9992 0)
(0.261593 19.9992 0)
(0.26173 19.9992 0)
(0.261867 19.9992 0)
(0.262004 19.9992 0)
(0.262141 19.9992 0)
(0.262278 19.9992 0)
(0.262415 19.9992 0)
(0.262553 19.9992 0)
(0.26269 19.9992 0)
(0.262827 19.9992 0)
(0.262964 19.9992 0)
(0.263101 19.9992 0)
(0.263238 19.9992 0)
(0.263375 19.9992 0)
(0.263512 19.9992 0)
(0.263649 19.9992 0)
(0.263786 19.9992 0)
(0.263923 19.9992 0)
(0.26406 19.9992 0)
(0.264198 19.9992 0)
(0.264335 19.9992 0)
(0.264472 19.9992 0)
(0.264609 19.9992 0)
(0.264746 19.9992 0)
(0.264883 19.9992 0)
(0.26502 19.9992 0)
(0.265157 19.9992 0)
(0.265294 19.9992 0)
(0.265431 19.9992 0)
(0.265568 19.9992 0)
(0.265705 19.9992 0)
(0.265842 19.9992 0)
(0.265978 19.9992 0)
(0.266115 19.9992 0)
(0.266252 19.9992 0)
(0.266389 19.9992 0)
(0.266526 19.9992 0)
(0.266663 19.9992 0)
(0.2668 19.9992 0)
(0.266937 19.9992 0)
(0.267074 19.9992 0)
(0.267211 19.9992 0)
(0.267347 19.9992 0)
(0.267484 19.9992 0)
(0.267621 19.9992 0)
(0.267758 19.9992 0)
(0.267895 19.9992 0)
(0.268031 19.9992 0)
(0.268168 19.9992 0)
(0.268305 19.9992 0)
(0.268442 19.9992 0)
(0.268578 19.9992 0)
(0.268715 19.9992 0)
(0.268852 19.9992 0)
(0.268989 19.9992 0)
(0.269125 19.9992 0)
(0.269262 19.9992 0)
(0.269399 19.9992 0)
(0.269535 19.9992 0)
(0.269672 19.9992 0)
(0.269809 19.9992 0)
(0.269945 19.9992 0)
(0.270082 19.9992 0)
(0.270218 19.9992 0)
(0.270355 19.9992 0)
(0.270492 19.9992 0)
(0.270628 19.9992 0)
(0.270765 19.9992 0)
(0.270901 19.9992 0)
(0.271038 19.9992 0)
(0.271174 19.9992 0)
(0.271311 19.9992 0)
(0.271447 19.9992 0)
(0.271584 19.9992 0)
(0.27172 19.9992 0)
(0.271856 19.9992 0)
(0.271993 19.9992 0)
(0.272129 19.9992 0)
(0.272266 19.9992 0)
(0.272402 19.9992 0)
(0.272538 19.9992 0)
(0.272675 19.9992 0)
(0.272811 19.9992 0)
(0.272947 19.9992 0)
(0.273084 19.9992 0)
(0.27322 19.9992 0)
(0.273356 19.9992 0)
(0.273492 19.9992 0)
(0.273629 19.9992 0)
(0.273765 19.9992 0)
(0.273901 19.9992 0)
(0.274037 19.9992 0)
(0.274173 19.9992 0)
(0.274309 19.9992 0)
(0.274446 19.9992 0)
(0.274582 19.9992 0)
(0.274718 19.9992 0)
(0.274854 19.9992 0)
(0.27499 19.9992 0)
(0.275126 19.9992 0)
(0.275262 19.9992 0)
(0.275398 19.9992 0)
(0.275534 19.9992 0)
(0.27567 19.9992 0)
(0.275806 19.9992 0)
(0.275942 19.9992 0)
(0.276078 19.9992 0)
(0.276214 19.9992 0)
(0.27635 19.9992 0)
(0.276486 19.9992 0)
(0.276622 19.9992 0)
(0.276758 19.9992 0)
(0.276894 19.9992 0)
(0.277029 19.9992 0)
(0.277165 19.9992 0)
(0.277301 19.9992 0)
(0.277437 19.9992 0)
(0.277573 19.9992 0)
(0.277708 19.9992 0)
(0.277844 19.9992 0)
(0.27798 19.9992 0)
(0.278116 19.9992 0)
(0.278251 19.9992 0)
(0.278387 19.9992 0)
(0.278523 19.9992 0)
(0.278658 19.9992 0)
(0.278794 19.9992 0)
(0.27893 19.9992 0)
(0.279065 19.9992 0)
(0.279201 19.9992 0)
(0.279336 19.9992 0)
(0.279472 19.9992 0)
(0.279607 19.9992 0)
(0.279743 19.9992 0)
(0.279879 19.9992 0)
(0.280014 19.9992 0)
(0.280149 19.9992 0)
(0.280285 19.9992 0)
(0.28042 19.9992 0)
(0.280556 19.9992 0)
(0.280691 19.9992 0)
(0.280827 19.9992 0)
(0.280962 19.9992 0)
(0.281097 19.9992 0)
(0.281233 19.9992 0)
(0.281368 19.9992 0)
(0.281503 19.9992 0)
(0.281639 19.9992 0)
(0.281774 19.9992 0)
(0.281909 19.9992 0)
(0.282045 19.9992 0)
(0.28218 19.9992 0)
(0.282315 19.9992 0)
(0.28245 19.9992 0)
(0.282585 19.9992 0)
(0.282721 19.9992 0)
(0.282856 19.9992 0)
(0.282991 19.9992 0)