/*--------------------------------*- C++ -*----------------------------------*\
| =========                 |                                                 |
| \\      /  F ield         | OpenFOAM: The Open Source CFD Toolbox           |
|  \\    /   O peration     | Version:  2512                                  |
|   \\  /    A nd           | Website:  www.openfoam.com                      |
|    \\/     M anipulation  |                                                 |
\*---------------------------------------------------------------------------*/
FoamFile
{
    version     2.0;
    format      ascii;
    arch        "LSB;label=32;scalar=64";
    class       volScalarField;
    location    "0.004";
    object      k;
}
// * * * * * * * * * * * * * * * * * * * * * * * * * * * * * * * * * * * * * //

dimensions      [0 2 -2 0 0 0 0];

internalField   nonuniform List<scalar> 
100000
(
0.113708
0.0222656
0.00914399
0.00498428
0.00322277
0.00234067
0.00184753
0.00155033
0.00135988
0.00123112
0.00113994
0.00107274
0.00102148
0.000981218
0.000948798
0.000922158
0.000899899
0.000881051
0.000864917
0.000850984
0.000838866
0.000828265
0.000818946
0.00081072
0.000803436
0.000796967
0.000791211
0.000786081
0.000781502
0.000777413
0.000773759
0.000770496
0.000767582
0.000764984
0.000762672
0.000760617
0.000758797
0.000757191
0.00075578
0.000754547
0.000753478
0.000752559
0.000751777
0.000751122
0.000750583
0.000750151
0.000749819
0.000749579
0.000749423
0.000749346
0.000749342
0.000749406
0.000749533
0.000749719
0.000749959
0.00075025
0.000750589
0.000750972
0.000751397
0.00075186
0.00075236
0.000752893
0.000753459
0.000754053
0.000754676
0.000755324
0.000755996
0.000756689
0.000757403
0.000758134
0.000758881
0.00075964
0.000760411
0.000761191
0.000761978
0.000762769
0.000763565
0.000764363
0.000765163
0.000765965
0.000766769
0.000767574
0.000768382
0.000769191
0.000770004
0.000770818
0.000771636
0.000772457
0.000773281
0.000774109
0.000774939
0.000775773
0.000776611
0.000777451
0.000778295
0.000779143
0.000779994
0.000780849
0.000781707
0.000782568
0.000783434
0.000784303
0.000785176
0.000786053
0.000786934
0.000787818
0.000788707
0.0007896
0.000790496
0.000791397
0.0007923
0.000793207
0.000794116
0.000795027
0.000795939
0.000796853
0.000797767
0.000798681
0.000799595
0.000800509
0.000801423
0.000802337
0.000803251
0.000804165
0.000805079
0.000805995
0.000806911
0.000807829
0.000808748
0.000809668
0.00081059
0.000811514
0.00081244
0.000813368
0.000814297
0.000815229
0.000816164
0.000817101
0.00081804
0.000818983
0.000819927
0.000820875
0.000821826
0.000822779
0.000823735
0.000824694
0.000825655
0.000826619
0.000827585
0.000828553
0.000829524
0.000830497
0.000831471
0.000832447
0.000833426
0.000834406
0.000835388
0.000836371
0.000837357
0.000838345
0.000839334
0.000840326
0.00084132
0.000842316
0.000843314
0.000844314
0.000845317
0.000846322
0.00084733
0.000848339
0.000849352
0.000850366
0.000851384
0.000852404
0.000853426
0.000854451
0.000855478
0.000856508
0.000857541
0.000858576
0.000859613
0.000860653
0.000861695
0.000862739
0.000863785
0.000864833
0.000865884
0.000866937
0.000867992
0.000869049
0.000870109
0.000871172
0.000872238
0.000873306
0.000874377
0.000875451
0.000876528
0.000877608
0.000878691
0.000879778
0.000880867
0.000881959
0.000883054
0.000884152
0.000885254
0.000886358
0.000887464
0.000888574
0.000889687
0.000890802
0.00089192
0.000893041
0.000894164
0.00089529
0.000896419
0.00089755
0.000898684
0.00089982
0.00090096
0.000902102
0.000903246
0.000904394
0.000905544
0.000906697
0.000907853
0.000909012
0.000910174
0.000911338
0.000912506
0.000913677
0.000914851
0.000916029
0.000917209
0.000918393
0.000919579
0.000920769
0.000921962
0.000923159
0.000924358
0.000925561
0.000926767
0.000927976
0.000929188
0.000930404
0.000931623
0.000932845
0.00093407
0.000935298
0.00093653
0.000937766
0.000939004
0.000940246
0.000941491
0.00094274
0.000943992
0.000945248
0.000946507
0.000947769
0.000949034
0.000950304
0.000951576
0.000952852
0.000954131
0.000955414
0.000956701
0.00095799
0.000959284
0.00096058
0.000961881
0.000963184
0.000964492
0.000965802
0.000967117
0.000968434
0.000969756
0.000971081
0.000972409
0.000973742
0.000975077
0.000976417
0.00097776
0.000979107
0.000980457
0.000981811
0.000983169
0.000984531
0.000985896
0.000987265
0.000988638
0.000990015
0.000991395
0.000992779
0.000994167
0.000995558
0.000996954
0.000998353
0.000999756
0.00100116
0.00100257
0.00100399
0.00100541
0.00100683
0.00100825
0.00100968
0.00101112
0.00101256
0.001014
0.00101544
0.00101689
0.00101835
0.00101981
0.00102127
0.00102273
0.0010242
0.00102568
0.00102715
0.00102864
0.00103012
0.00103161
0.00103311
0.00103461
0.00103611
0.00103761
0.00103913
0.00104064
0.00104216
0.00104368
0.00104521
0.00104674
0.00104828
0.00104982
0.00105136
0.00105291
0.00105446
0.00105602
0.00105758
0.00105915
0.00106072
0.00106229
0.00106387
0.00106546
0.00106704
0.00106864
0.00107023
0.00107183
0.00107344
0.00107505
0.00107666
0.00107828
0.0010799
0.00108153
0.00108316
0.0010848
0.00108644
0.00108809
0.00108974
0.00109139
0.00109305
0.00109472
0.00109639
0.00109806
0.00109974
0.00110142
0.00110311
0.0011048
0.00110649
0.0011082
0.0011099
0.00111161
0.00111333
0.00111505
0.00111677
0.0011185
0.00112024
0.00112198
0.00112372
0.00112547
0.00112722
0.00112898
0.00113074
0.00113251
0.00113429
0.00113606
0.00113785
0.00113963
0.00114143
0.00114322
0.00114503
0.00114683
0.00114865
0.00115046
0.00115229
0.00115411
0.00115595
0.00115779
0.00115963
0.00116148
0.00116333
0.00116519
0.00116705
0.00116892
0.00117079
0.00117267
0.00117455
0.00117644
0.00117833
0.00118023
0.00118214
0.00118405
0.00118596
0.00118788
0.00118981
0.00119174
0.00119367
0.00119561
0.00119756
0.00119951
0.00120147
0.00120343
0.0012054
0.00120737
0.00120935
0.00121133
0.00121332
0.00121532
0.00121732
0.00121932
0.00122133
0.00122335
0.00122537
0.0012274
0.00122943
0.00123147
0.00123351
0.00123556
0.00123761
0.00123967
0.00124174
0.00124381
0.00124589
0.00124797
0.00125006
0.00125215
0.00125425
0.00125636
0.00125847
0.00126058
0.0012627
0.00126483
0.00126696
0.0012691
0.00127125
0.0012734
0.00127555
0.00127772
0.00127988
0.00128206
0.00128424
0.00128642
0.00128861
0.00129081
0.00129301
0.00129522
0.00129743
0.00129965
0.00130188
0.00130411
0.00130635
0.00130859
0.00131084
0.0013131
0.00131536
0.00131763
0.0013199
0.00132218
0.00132447
0.00132676
0.00132906
0.00133136
0.00133367
0.00133598
0.00133831
0.00134063
0.00134297
0.00134531
0.00134765
0.00135
0.00135236
0.00135473
0.0013571
0.00135947
0.00136186
0.00136425
0.00136664
0.00136904
0.00137145
0.00137386
0.00137628
0.00137871
0.00138114
0.00138358
0.00138603
0.00138848
0.00139094
0.0013934
0.00139587
0.00139835
0.00140083
0.00140332
0.00140581
0.00140832
0.00141083
0.00141334
0.00141586
0.00141839
0.00142092
0.00142346
0.00142601
0.00142856
0.00143112
0.00143369
0.00143626
0.00143884
0.00144143
0.00144402
0.00144662
0.00144922
0.00145184
0.00145445
0.00145708
0.00145971
0.00146235
0.00146499
0.00146765
0.0014703
0.00147297
0.00147564
0.00147832
0.001481
0.00148369
0.00148639
0.0014891
0.00149181
0.00149453
0.00149725
0.00149998
0.00150272
0.00150546
0.00150822
0.00151097
0.00151374
0.00151651
0.00151929
0.00152208
0.00152487
0.00152767
0.00153047
0.00153329
0.0015361
0.00153893
0.00154176
0.0015446
0.00154745
0.00155031
0.00155317
0.00155603
0.00155891
0.00156179
0.00156468
0.00156757
0.00157048
0.00157338
0.0015763
0.00157922
0.00158215
0.00158509
0.00158804
0.00159099
0.00159394
0.00159691
0.00159988
0.00160286
0.00160585
0.00160884
0.00161184
0.00161485
0.00161786
0.00162088
0.00162391
0.00162695
0.00162999
0.00163304
0.0016361
0.00163916
0.00164223
0.00164531
0.0016484
0.00165149
0.00165459
0.0016577
0.00166081
0.00166393
0.00166706
0.0016702
0.00167334
0.00167649
0.00167965
0.00168281
0.00168598
0.00168916
0.00169235
0.00169554
0.00169874
0.00170195
0.00170517
0.00170839
0.00171162
0.00171486
0.0017181
0.00172135
0.00172461
0.00172788
0.00173115
0.00173443
0.00173772
0.00174102
0.00174432
0.00174763
0.00175095
0.00175427
0.0017576
0.00176094
0.00176429
0.00176765
0.00177101
0.00177438
0.00177775
0.00178114
0.00178453
0.00178793
0.00179134
0.00179475
0.00179817
0.0018016
0.00180504
0.00180848
0.00181193
0.00181539
0.00181885
0.00182233
0.00182581
0.0018293
0.00183279
0.0018363
0.00183981
0.00184333
0.00184685
0.00185039
0.00185393
0.00185747
0.00186103
0.00186459
0.00186816
0.00187174
0.00187533
0.00187892
0.00188252
0.00188613
0.00188975
0.00189337
0.001897
0.00190064
0.00190429
0.00190794
0.0019116
0.00191527
0.00191895
0.00192263
0.00192633
0.00193002
0.00193373
0.00193745
0.00194117
0.0019449
0.00194863
0.00195238
0.00195613
0.00195989
0.00196366
0.00196744
0.00197122
0.00197501
0.00197881
0.00198261
0.00198643
0.00199025
0.00199408
0.00199791
0.00200176
0.00200561
0.00200947
0.00201333
0.00201721
0.00202109
0.00202498
0.00202888
0.00203278
0.00203669
0.00204061
0.00204454
0.00204848
0.00205242
0.00205637
0.00206033
0.00206429
0.00206827
0.00207225
0.00207624
0.00208023
0.00208424
0.00208825
0.00209227
0.0020963
0.00210033
0.00210437
0.00210842
0.00211248
0.00211655
0.00212062
0.0021247
0.00212879
0.00213289
0.00213699
0.0021411
0.00214522
0.00214935
0.00215348
0.00215762
0.00216177
0.00216593
0.00217009
0.00217427
0.00217845
0.00218263
0.00218683
0.00219103
0.00219524
0.00219946
0.00220368
0.00220792
0.00221216
0.00221641
0.00222066
0.00222493
0.0022292
0.00223348
0.00223776
0.00224206
0.00224636
0.00225067
0.00225499
0.00225931
0.00226364
0.00226798
0.00227233
0.00227669
0.00228105
0.00228542
0.0022898
0.00229418
0.00229857
0.00230297
0.00230738
0.0023118
0.00231622
0.00232065
0.00232509
0.00232953
0.00233399
0.00233845
0.00234292
0.00234739
0.00235187
0.00235637
0.00236086
0.00236537
0.00236988
0.0023744
0.00237893
0.00238347
0.00238801
0.00239256
0.00239712
0.00240168
0.00240626
0.00241084
0.00241543
0.00242002
0.00242462
0.00242923
0.00243385
0.00243848
0.00244311
0.00244775
0.0024524
0.00245705
0.00246171
0.00246638
0.00247106
0.00247574
0.00248044
0.00248513
0.00248984
0.00249455
0.00249927
0.002504
0.00250874
0.00251348
0.00251823
0.00252299
0.00252775
0.00253253
0.00253731
0.00254209
0.00254689
0.00255169
0.00255649
0.00256131
0.00256613
0.00257096
0.0025758
0.00258064
0.0025855
0.00259035
0.00259522
0.00260009
0.00260497
0.00260986
0.00261476
0.00261966
0.00262457
0.00262948
0.00263441
0.00263934
0.00264427
0.00264922
0.00265417
0.00265913
0.00266409
0.00266907
0.00267404
0.00267903
0.00268402
0.00268903
0.00269403
0.00269905
0.00270407
0.0027091
0.00271413
0.00271918
0.00272422
0.00272928
0.00273434
0.00273941
0.00274449
0.00274957
0.00275466
0.00275976
0.00276487
0.00276998
0.0027751
0.00278022
0.00278535
0.00279049
0.00279564
0.00280079
0.00280595
0.00281111
0.00281628
0.00282146
0.00282665
0.00283184
0.00283704
0.00284225
0.00284746
0.00285268
0.0028579
0.00286313
0.00286837
0.00287362
0.00287887
0.00288413
0.0028894
0.00289467
0.00289995
0.00290523
0.00291052
0.00291582
0.00292113
0.00292644
0.00293176
0.00293708
0.00294241
0.00294775
0.00295309
0.00295844
0.0029638
0.00296916
0.00297453
0.00297991
0.00298529
0.00299068
0.00299608
0.00300148
0.00300689
0.0030123
0.00301773
0.00302316
0.00302859
0.00303403
0.00303948
0.00304494
0.0030504
0.00305587
0.00306134
0.00306682
0.00307231
0.0030778
0.00308331
0.00308882
0.00309433
0.00309985
0.00310538
0.00311092
0.00311646
0.00312201
0.00312757
0.00313314
0.00313871
0.00314429
0.00314988
0.00315548
0.00316108
0.00316669
0.00317231
0.00317794
0.00318358
0.00318922
0.00319488
0.00320054
0.00320621
0.0032119
0.00321759
0.00322329
0.00322901
0.00323473
0.00324047
0.00324621
0.00325197
0.00325774
0.00326353
0.00326933
0.00327514
0.00328097
0.00328681
0.00329267
0.00329855
0.00330445
0.00331036
0.0033163
0.00332225
0.00332823
0.00333424
0.00334026
0.00334632
0.00335241
0.00335852
0.00336467
0.00337086
0.00337708
0.00338335
0.00338966
0.00339602
0.00340243
0.0034089
0.00341543
0.00342202
0.00342869
0.00343544
0.00344229
0.00344923
0.0034563
0.00346353
0.00347096
0.00347868
0.00348679
0.00349544
0.003505
0.00351714
0.00353358
0.299042
0.0578019
0.0156481
0.00624562
0.00348281
0.00246808
0.00203521
0.0018323
0.00173104
0.00167804
0.00164902
0.00163229
0.00162204
0.00161529
0.00161053
0.00160694
0.0016041
0.00160176
0.0015998
0.00159812
0.00159667
0.00159541
0.00159432
0.00159336
0.00159252
0.00159179
0.00159114
0.00159058
0.00159009
0.00158967
0.0015893
0.00158898
0.00158871
0.00158848
0.00158829
0.00158814
0.00158802
0.00158792
0.00158785
0.00158781
0.00158779
0.00158779
0.00158781
0.00158784
0.00158789
0.00158796
0.00158804
0.00158813
0.00158824
0.00158835
0.00158848
0.00158862
0.00158876
0.00158891
0.00158907
0.00158924
0.00158942
0.0015896
0.00158979
0.00158998
0.00159018
0.00159038
0.00159059
0.0015908
0.00159102
0.00159124
0.00159146
0.00159169
0.00159191
0.00159214
0.00159238
0.00159261
0.00159285
0.00159308
0.00159332
0.00159355
0.00159379
0.00159403
0.00159427
0.00159451
0.00159475
0.00159498
0.00159522
0.00159547
0.00159571
0.00159595
0.00159619
0.00159644
0.00159668
0.00159692
0.00159717
0.00159742
0.00159766
0.00159791
0.00159816
0.00159841
0.00159866
0.00159891
0.00159916
0.00159942
0.00159967
0.00159993
0.00160018
0.00160044
0.00160069
0.00160095
0.00160121
0.00160147
0.00160173
0.00160199
0.00160225
0.00160251
0.00160277
0.00160303
0.00160329
0.00160355
0.00160382
0.00160408
0.00160434
0.0016046
0.00160486
0.00160513
0.00160539
0.00160565
0.00160591
0.00160618
0.00160644
0.0016067
0.00160697
0.00160723
0.0016075
0.00160776
0.00160803
0.00160829
0.00160856
0.00160883
0.00160909
0.00160936
0.00160963
0.0016099
0.00161017
0.00161044
0.00161071
0.00161098
0.00161125
0.00161153
0.0016118
0.00161207
0.00161235
0.00161262
0.00161289
0.00161317
0.00161344
0.00161372
0.00161399
0.00161427
0.00161454
0.00161482
0.0016151
0.00161537
0.00161565
0.00161593
0.00161621
0.00161649
0.00161677
0.00161705
0.00161733
0.00161761
0.00161789
0.00161817
0.00161845
0.00161873
0.00161901
0.0016193
0.00161958
0.00161986
0.00162015
0.00162043
0.00162072
0.001621
0.00162129
0.00162157
0.00162186
0.00162215
0.00162243
0.00162272
0.00162301
0.0016233
0.00162359
0.00162387
0.00162416
0.00162445
0.00162474
0.00162503
0.00162533
0.00162562
0.00162591
0.0016262
0.00162649
0.00162679
0.00162708
0.00162738
0.00162767
0.00162797
0.00162826
0.00162856
0.00162885
0.00162915
0.00162945
0.00162975
0.00163004
0.00163034
0.00163064
0.00163094
0.00163124
0.00163154
0.00163184
0.00163214
0.00163244
0.00163274
0.00163304
0.00163335
0.00163365
0.00163395
0.00163426
0.00163456
0.00163486
0.00163517
0.00163547
0.00163578
0.00163608
0.00163639
0.0016367
0.001637
0.00163731
0.00163762
0.00163793
0.00163824
0.00163855
0.00163886
0.00163917
0.00163948
0.00163979
0.0016401
0.00164041
0.00164072
0.00164104
0.00164135
0.00164166
0.00164198
0.00164229
0.0016426
0.00164292
0.00164324
0.00164355
0.00164387
0.00164419
0.0016445
0.00164482
0.00164514
0.00164546
0.00164578
0.0016461
0.00164642
0.00164674
0.00164706
0.00164738
0.0016477
0.00164802
0.00164834
0.00164867
0.00164899
0.00164931
0.00164964
0.00164996
0.00165029
0.00165061
0.00165094
0.00165126
0.00165159
0.00165192
0.00165224
0.00165257
0.0016529
0.00165323
0.00165356
0.00165389
0.00165422
0.00165455
0.00165488
0.00165521
0.00165554
0.00165588
0.00165621
0.00165654
0.00165687
0.00165721
0.00165754
0.00165788
0.00165821
0.00165855
0.00165888
0.00165922
0.00165956
0.00165989
0.00166023
0.00166057
0.00166091
0.00166125
0.00166159
0.00166193
0.00166227
0.00166261
0.00166295
0.00166329
0.00166363
0.00166398
0.00166432
0.00166466
0.00166501
0.00166535
0.00166569
0.00166604
0.00166639
0.00166673
0.00166708
0.00166742
0.00166777
0.00166812
0.00166847
0.00166882
0.00166916
0.00166951
0.00166986
0.00167021
0.00167056
0.00167092
0.00167127
0.00167162
0.00167197
0.00167233
0.00167268
0.00167303
0.00167339
0.00167374
0.0016741
0.00167445
0.00167481
0.00167516
0.00167552
0.00167588
0.00167624
0.00167659
0.00167695
0.00167731
0.00167767
0.00167803
0.00167839
0.00167875
0.00167911
0.00167948
0.00167984
0.0016802
0.00168056
0.00168093
0.00168129
0.00168166
0.00168202
0.00168239
0.00168275
0.00168312
0.00168349
0.00168385
0.00168422
0.00168459
0.00168496
0.00168533
0.00168569
0.00168606
0.00168643
0.00168681
0.00168718
0.00168755
0.00168792
0.00168829
0.00168867
0.00168904
0.00168941
0.00168979
0.00169016
0.00169054
0.00169091
0.00169129
0.00169167
0.00169204
0.00169242
0.0016928
0.00169318
0.00169356
0.00169394
0.00169432
0.0016947
0.00169508
0.00169546
0.00169584
0.00169622
0.00169661
0.00169699
0.00169737
0.00169776
0.00169814
0.00169853
0.00169891
0.0016993
0.00169968
0.00170007
0.00170046
0.00170084
0.00170123
0.00170162
0.00170201
0.0017024
0.00170279
0.00170318
0.00170357
0.00170396
0.00170436
0.00170475
0.00170514
0.00170553
0.00170593
0.00170632
0.00170672
0.00170711
0.00170751
0.0017079
0.0017083
0.0017087
0.0017091
0.00170949
0.00170989
0.00171029
0.00171069
0.00171109
0.00171149
0.00171189
0.00171229
0.0017127
0.0017131
0.0017135
0.0017139
0.00171431
0.00171471
0.00171512
0.00171552
0.00171593
0.00171633
0.00171674
0.00171715
0.00171756
0.00171796
0.00171837
0.00171878
0.00171919
0.0017196
0.00172001
0.00172042
0.00172083
0.00172125
0.00172166
0.00172207
0.00172248
0.0017229
0.00172331
0.00172373
0.00172414
0.00172456
0.00172497
0.00172539
0.00172581
0.00172623
0.00172664
0.00172706
0.00172748
0.0017279
0.00172832
0.00172874
0.00172916
0.00172959
0.00173001
0.00173043
0.00173085
0.00173128
0.0017317
0.00173213
0.00173255
0.00173298
0.0017334
0.00173383
0.00173426
0.00173469
0.00173511
0.00173554
0.00173597
0.0017364
0.00173683
0.00173726
0.00173769
0.00173812
0.00173856
0.00173899
0.00173942
0.00173986
0.00174029
0.00174072
0.00174116
0.0017416
0.00174203
0.00174247
0.0017429
0.00174334
0.00174378
0.00174422
0.00174466
0.0017451
0.00174554
0.00174598
0.00174642
0.00174686
0.0017473
0.00174775
0.00174819
0.00174863
0.00174908
0.00174952
0.00174997
0.00175041
0.00175086
0.00175131
0.00175175
0.0017522
0.00175265
0.0017531
0.00175355
0.001754
0.00175445
0.0017549
0.00175535
0.0017558
0.00175625
0.00175671
0.00175716
0.00175761
0.00175807
0.00175852
0.00175898
0.00175944
0.00175989
0.00176035
0.00176081
0.00176126
0.00176172
0.00176218
0.00176264
0.0017631
0.00176356
0.00176402
0.00176449
0.00176495
0.00176541
0.00176587
0.00176634
0.0017668
0.00176727
0.00176773
0.0017682
0.00176866
0.00176913
0.0017696
0.00177007
0.00177053
0.001771
0.00177147
0.00177194
0.00177241
0.00177288
0.00177336
0.00177383
0.0017743
0.00177477
0.00177525
0.00177572
0.0017762
0.00177667
0.00177715
0.00177762
0.0017781
0.00177858
0.00177906
0.00177954
0.00178001
0.00178049
0.00178097
0.00178146
0.00178194
0.00178242
0.0017829
0.00178338
0.00178387
0.00178435
0.00178483
0.00178532
0.0017858
0.00178629
0.00178678
0.00178726
0.00178775
0.00178824
0.00178873
0.00178922
0.00178971
0.0017902
0.00179069
0.00179118
0.00179167
0.00179216
0.00179266
0.00179315
0.00179365
0.00179414
0.00179463
0.00179513
0.00179563
0.00179612
0.00179662
0.00179712
0.00179762
0.00179812
0.00179862
0.00179912
0.00179962
0.00180012
0.00180062
0.00180112
0.00180162
0.00180213
0.00180263
0.00180314
0.00180364
0.00180415
0.00180465
0.00180516
0.00180567
0.00180617
0.00180668
0.00180719
0.0018077
0.00180821
0.00180872
0.00180923
0.00180974
0.00181025
0.00181077
0.00181128
0.00181179
0.00181231
0.00181282
0.00181334
0.00181385
0.00181437
0.00181489
0.0018154
0.00181592
0.00181644
0.00181696
0.00181748
0.001818
0.00181852
0.00181904
0.00181956
0.00182009
0.00182061
0.00182113
0.00182166
0.00182218
0.00182271
0.00182323
0.00182376
0.00182429
0.00182481
0.00182534
0.00182587
0.0018264
0.00182693
0.00182746
0.00182799
0.00182852
0.00182905
0.00182959
0.00183012
0.00183065
0.00183119
0.00183172
0.00183226
0.00183279
0.00183333
0.00183387
0.0018344
0.00183494
0.00183548
0.00183602
0.00183656
0.0018371
0.00183764
0.00183818
0.00183872
0.00183927
0.00183981
0.00184035
0.0018409
0.00184144
0.00184199
0.00184253
0.00184308
0.00184363
0.00184417
0.00184472
0.00184527
0.00184582
0.00184637
0.00184692
0.00184747
0.00184802
0.00184857
0.00184913
0.00184968
0.00185023
0.00185079
0.00185134
0.0018519
0.00185245
0.00185301
0.00185357
0.00185412
0.00185468
0.00185524
0.0018558
0.00185636
0.00185692
0.00185748
0.00185804
0.0018586
0.00185917
0.00185973
0.00186029
0.00186086
0.00186142
0.00186199
0.00186255
0.00186312
0.00186369
0.00186426
0.00186482
0.00186539
0.00186596
0.00186653
0.0018671
0.00186767
0.00186825
0.00186882
0.00186939
0.00186996
0.00187054
0.00187111
0.00187169
0.00187226
0.00187284
0.00187341
0.00187399
0.00187457
0.00187515
0.00187573
0.00187631
0.00187689
0.00187747
0.00187805
0.00187863
0.00187921
0.00187979
0.00188038
0.00188096
0.00188155
0.00188213
0.00188272
0.0018833
0.00188389
0.00188448
0.00188506
0.00188565
0.00188624
0.00188683
0.00188742
0.00188801
0.0018886
0.00188919
0.00188979
0.00189038
0.00189097
0.00189156
0.00189216
0.00189275
0.00189335
0.00189395
0.00189454
0.00189514
0.00189574
0.00189634
0.00189693
0.00189753
0.00189813
0.00189873
0.00189933
0.00189994
0.00190054
0.00190114
0.00190174
0.00190235
0.00190295
0.00190356
0.00190416
0.00190477
0.00190538
0.00190598
0.00190659
0.0019072
0.00190781
0.00190842
0.00190903
0.00190964
0.00191025
0.00191086
0.00191147
0.00191208
0.0019127
0.00191331
0.00191392
0.00191454
0.00191515
0.00191577
0.00191639
0.001917
0.00191762
0.00191824
0.00191886
0.00191947
0.00192009
0.00192071
0.00192134
0.00192196
0.00192258
0.0019232
0.00192382
0.00192445
0.00192507
0.00192569
0.00192632
0.00192694
0.00192757
0.0019282
0.00192882
0.00192945
0.00193008
0.00193071
0.00193134
0.00193197
0.0019326
0.00193323
0.00193386
0.00193449
0.00193512
0.00193576
0.00193639
0.00193702
0.00193766
0.00193829
0.00193893
0.00193957
0.0019402
0.00194084
0.00194148
0.00194212
0.00194276
0.00194339
0.00194403
0.00194467
0.00194532
0.00194596
0.0019466
0.00194724
0.00194788
0.00194853
0.00194917
0.00194982
0.00195046
0.00195111
0.00195175
0.0019524
0.00195305
0.0019537
0.00195435
0.00195499
0.00195564
0.00195629
0.00195694
0.0019576
0.00195825
0.0019589
0.00195955
0.00196021
0.00196086
0.00196152
0.00196217
0.00196283
0.00196348
0.00196414
0.0019648
0.00196546
0.00196612
0.00196678
0.00196744
0.0019681
0.00196876
0.00196942
0.00197008
0.00197075
0.00197141
0.00197208
0.00197274
0.00197341
0.00197408
0.00197475
0.00197542
0.00197609
0.00197676
0.00197743
0.0019781
0.00197877
0.00197945
0.00198013
0.0019808
0.00198148
0.00198216
0.00198284
0.00198352
0.00198421
0.00198489
0.00198558
0.00198626
0.00198695
0.00198764
0.00198834
0.00198903
0.00198973
0.00199043
0.00199113
0.00199183
0.00199254
0.00199325
0.00199396
0.00199467
0.00199539
0.00199611
0.00199683
0.00199756
0.0019983
0.00199903
0.00199977
0.00200052
0.00200127
0.00200203
0.0020028
0.00200357
0.00200435
0.00200514
0.00200594
0.00200674
0.00200756
0.00200839
0.00200923
0.00201008
0.00201094
0.00201183
0.00201273
0.00201365
0.00201462
0.00201564
0.00201674
0.00201799
0.00201959
0.00202146
0.527526
0.174462
0.0666103
0.0317107
0.0191295
0.0140941
0.011909
0.0109096
0.0104399
0.0102179
0.0101145
0.0100682
0.010049
0.0100423
0.0100412
0.0100423
0.0100441
0.010046
0.0100478
0.0100493
0.0100507
0.0100518
0.0100528
0.0100537
0.0100545
0.0100552
0.0100558
0.0100563
0.0100568
0.0100572
0.0100576
0.010058
0.0100584
0.0100587
0.010059
0.0100593
0.0100595
0.0100598
0.01006
0.0100603
0.0100605
0.0100607
0.0100609
0.0100611
0.0100613
0.0100615
0.0100617
0.0100618
0.010062
0.0100622
0.0100623
0.0100625
0.0100627
0.0100628
0.010063
0.0100631
0.0100633
0.0100634
0.0100636
0.0100637
0.0100639
0.010064
0.0100642
0.0100643
0.0100644
0.0100646
0.0100647
0.0100648
0.010065
0.0100651
0.0100652
0.0100653
0.0100654
0.0100655
0.0100657
0.0100658
0.0100659
0.010066
0.010066
0.0100661
0.0100662
0.0100663
0.0100664
0.0100666
0.0100667
0.0100668
0.0100669
0.010067
0.0100671
0.0100672
0.0100673
0.0100674
0.0100675
0.0100677
0.0100678
0.0100679
0.010068
0.0100681
0.0100682
0.0100684
0.0100685
0.0100686
0.0100687
0.0100689
0.010069
0.0100691
0.0100692
0.0100693
0.0100695
0.0100696
0.0100697
0.0100698
0.01007
0.0100701
0.0100702
0.0100703
0.0100704
0.0100705
0.0100707
0.0100708
0.0100709
0.010071
0.0100711
0.0100712
0.0100714
0.0100715
0.0100716
0.0100717
0.0100718
0.010072
0.0100721
0.0100722
0.0100723
0.0100725
0.0100726
0.0100727
0.0100728
0.010073
0.0100731
0.0100732
0.0100733
0.0100735
0.0100736
0.0100737
0.0100738
0.010074
0.0100741
0.0100742
0.0100744
0.0100745
0.0100746
0.0100747
0.0100749
0.010075
0.0100751
0.0100752
0.0100754
0.0100755
0.0100756
0.0100758
0.0100759
0.010076
0.0100761
0.0100763
0.0100764
0.0100765
0.0100767
0.0100768
0.0100769
0.010077
0.0100772
0.0100773
0.0100774
0.0100776
0.0100777
0.0100778
0.010078
0.0100781
0.0100782
0.0100784
0.0100785
0.0100786
0.0100787
0.0100789
0.010079
0.0100791
0.0100793
0.0100794
0.0100795
0.0100797
0.0100798
0.0100799
0.0100801
0.0100802
0.0100803
0.0100805
0.0100806
0.0100807
0.0100809
0.010081
0.0100812
0.0100813
0.0100814
0.0100816
0.0100817
0.0100818
0.010082
0.0100821
0.0100822
0.0100824
0.0100825
0.0100826
0.0100828
0.0100829
0.0100831
0.0100832
0.0100833
0.0100835
0.0100836
0.0100837
0.0100839
0.010084
0.0100842
0.0100843
0.0100844
0.0100846
0.0100847
0.0100848
0.010085
0.0100851
0.0100853
0.0100854
0.0100855
0.0100857
0.0100858
0.010086
0.0100861
0.0100862
0.0100864
0.0100865
0.0100867
0.0100868
0.0100869
0.0100871
0.0100872
0.0100874
0.0100875
0.0100876
0.0100878
0.0100879
0.0100881
0.0100882
0.0100883
0.0100885
0.0100886
0.0100888
0.0100889
0.0100891
0.0100892
0.0100893
0.0100895
0.0100896
0.0100898
0.0100899
0.01009
0.0100902
0.0100903
0.0100905
0.0100906
0.0100908
0.0100909
0.010091
0.0100912
0.0100913
0.0100915
0.0100916
0.0100918
0.0100919
0.0100921
0.0100922
0.0100923
0.0100925
0.0100926
0.0100928
0.0100929
0.0100931
0.0100932
0.0100934
0.0100935
0.0100936
0.0100938
0.0100939
0.0100941
0.0100942
0.0100944
0.0100945
0.0100947
0.0100948
0.010095
0.0100951
0.0100952
0.0100954
0.0100955
0.0100957
0.0100958
0.010096
0.0100961
0.0100963
0.0100964
0.0100966
0.0100967
0.0100969
0.010097
0.0100972
0.0100973
0.0100975
0.0100976
0.0100977
0.0100979
0.010098
0.0100982
0.0100983
0.0100985
0.0100986
0.0100988
0.0100989
0.0100991
0.0100992
0.0100994
0.0100995
0.0100997
0.0100998
0.0101
0.0101001
0.0101003
0.0101004
0.0101006
0.0101007
0.0101009
0.010101
0.0101012
0.0101013
0.0101015
0.0101016
0.0101018
0.0101019
0.0101021
0.0101022
0.0101024
0.0101025
0.0101027
0.0101028
0.010103
0.0101031
0.0101033
0.0101034
0.0101036
0.0101037
0.0101039
0.010104
0.0101042
0.0101043
0.0101045
0.0101046
0.0101048
0.0101049
0.0101051
0.0101052
0.0101054
0.0101055
0.0101057
0.0101058
0.010106
0.0101061
0.0101063
0.0101064
0.0101066
0.0101067
0.0101069
0.010107
0.0101072
0.0101073
0.0101075
0.0101076
0.0101078
0.0101079
0.0101081
0.0101082
0.0101084
0.0101085
0.0101087
0.0101088
0.010109
0.0101091
0.0101093
0.0101094
0.0101096
0.0101098
0.0101099
0.0101101
0.0101102
0.0101104
0.0101105
0.0101107
0.0101108
0.010111
0.0101111
0.0101113
0.0101114
0.0101116
0.0101117
0.0101119
0.010112
0.0101122
0.0101123
0.0101125
0.0101126
0.0101128
0.010113
0.0101131
0.0101133
0.0101134
0.0101136
0.0101137
0.0101139
0.010114
0.0101142
0.0101143
0.0101145
0.0101146
0.0101148
0.0101149
0.0101151
0.0101153
0.0101154
0.0101156
0.0101157
0.0101159
0.010116
0.0101162
0.0101163
0.0101165
0.0101166
0.0101168
0.0101169
0.0101171
0.0101172
0.0101174
0.0101176
0.0101177
0.0101179
0.010118
0.0101182
0.0101183
0.0101185
0.0101186
0.0101188
0.0101189
0.0101191
0.0101192
0.0101194
0.0101196
0.0101197
0.0101199
0.01012
0.0101202
0.0101203
0.0101205
0.0101206
0.0101208
0.0101209
0.0101211
0.0101212
0.0101214
0.0101216
0.0101217
0.0101219
0.010122
0.0101222
0.0101223
0.0101225
0.0101226
0.0101228
0.0101229
0.0101231
0.0101233
0.0101234
0.0101236
0.0101237
0.0101239
0.010124
0.0101242
0.0101243
0.0101245
0.0101246
0.0101248
0.0101249
0.0101251
0.0101253
0.0101254
0.0101256
0.0101257
0.0101259
0.010126
0.0101262
0.0101263
0.0101265
0.0101266
0.0101268
0.010127
0.0101271
0.0101273
0.0101274
0.0101276
0.0101277
0.0101279
0.010128
0.0101282
0.0101283
0.0101285
0.0101287
0.0101288
0.010129
0.0101291
0.0101293
0.0101294
0.0101296
0.0101297
0.0101299
0.01013
0.0101302
0.0101304
0.0101305
0.0101307
0.0101308
0.010131
0.0101311
0.0101313
0.0101314
0.0101316
0.0101317
0.0101319
0.0101321
0.0101322
0.0101324
0.0101325
0.0101327
0.0101328
0.010133
0.0101331
0.0101333
0.0101334
0.0101336
0.0101337
0.0101339
0.0101341
0.0101342
0.0101344
0.0101345
0.0101347
0.0101348
0.010135
0.0101351
0.0101353
0.0101354
0.0101356
0.0101358
0.0101359
0.0101361
0.0101362
0.0101364
0.0101365
0.0101367
0.0101368
0.010137
0.0101371
0.0101373
0.0101375
0.0101376
0.0101378
0.0101379
0.0101381
0.0101382
0.0101384
0.0101385
0.0101387
0.0101388
0.010139
0.0101392
0.0101393
0.0101395
0.0101396
0.0101398
0.0101399
0.0101401
0.0101402
0.0101404
0.0101405
0.0101407
0.0101408
0.010141
0.0101412
0.0101413
0.0101415
0.0101416
0.0101418
0.0101419
0.0101421
0.0101422
0.0101424
0.0101425
0.0101427
0.0101429
0.010143
0.0101432
0.0101433
0.0101435
0.0101436
0.0101438
0.0101439
0.0101441
0.0101442
0.0101444
0.0101445
0.0101447
0.0101449
0.010145
0.0101452
0.0101453
0.0101455
0.0101456
0.0101458
0.0101459
0.0101461
0.0101462
0.0101464
0.0101465
0.0101467
0.0101469
0.010147
0.0101472
0.0101473
0.0101475
0.0101476
0.0101478
0.0101479
0.0101481
0.0101482
0.0101484
0.0101485
0.0101487
0.0101489
0.010149
0.0101492
0.0101493
0.0101495
0.0101496
0.0101498
0.0101499
0.0101501
0.0101502
0.0101504
0.0101506
0.0101507
0.0101509
0.010151
0.0101512
0.0101513
0.0101515
0.0101516
0.0101518
0.0101519
0.0101521
0.0101522
0.0101524
0.0101525
0.0101527
0.0101529
0.010153
0.0101532
0.0101533
0.0101535
0.0101536
0.0101538
0.0101539
0.0101541
0.0101542
0.0101544
0.0101545
0.0101547
0.0101549
0.010155
0.0101552
0.0101553
0.0101555
0.0101556
0.0101558
0.0101559
0.0101561
0.0101562
0.0101564
0.0101565
0.0101567
0.0101569
0.010157
0.0101572
0.0101573
0.0101575
0.0101576