/*--------------------------------*- C++ -*----------------------------------*\
| =========                 |                                                 |
| \\      /  F ield         | OpenFOAM: The Open Source CFD Toolbox           |
|  \\    /   O peration     | Version:  2512                                  |
|   \\  /    A nd           | Website:  www.openfoam.com                      |
|    \\/     M anipulation  |                                                 |
\*---------------------------------------------------------------------------*/
FoamFile
{
    version     2.0;
    format      ascii;
    arch        "LSB;label=32;scalar=64";
    class       volScalarField;
    location    "0.004";
    object      nut;
}
// * * * * * * * * * * * * * * * * * * * * * * * * * * * * * * * * * * * * * //

dimensions      [0 2 -1 0 0 0 0];

internalField   nonuniform List<scalar> 
100000
(
1.37884e-07
2.69997e-08
1.10881e-08
6.04399e-09
3.90797e-09
2.83832e-09
2.24033e-09
1.87995e-09
1.649e-09
1.49286e-09
1.3823e-09
1.30082e-09
1.23866e-09
1.18984e-09
1.15052e-09
1.11822e-09
1.09123e-09
1.06837e-09
1.04881e-09
1.03191e-09
1.01722e-09
1.00437e-09
9.93065e-10
9.8309e-10
9.74257e-10
9.66414e-10
9.59434e-10
9.53213e-10
9.4766e-10
9.42702e-10
9.38271e-10
9.34314e-10
9.30781e-10
9.27631e-10
9.24826e-10
9.22335e-10
9.20128e-10
9.1818e-10
9.16469e-10
9.14975e-10
9.13678e-10
9.12563e-10
9.11615e-10
9.10821e-10
9.10167e-10
9.09644e-10
9.09241e-10
9.0895e-10
9.08761e-10
9.08668e-10
9.08663e-10
9.0874e-10
9.08894e-10
9.0912e-10
9.09411e-10
9.09764e-10
9.10175e-10
9.1064e-10
9.11155e-10
9.11717e-10
9.12322e-10
9.12969e-10
9.13655e-10
9.14376e-10
9.15131e-10
9.15916e-10
9.16731e-10
9.17572e-10
9.18437e-10
9.19324e-10
9.20229e-10
9.21151e-10
9.22086e-10
9.23031e-10
9.23985e-10
9.24945e-10
9.2591e-10
9.26878e-10
9.27848e-10
9.28821e-10
9.29795e-10
9.30772e-10
9.31751e-10
9.32733e-10
9.33717e-10
9.34705e-10
9.35697e-10
9.36693e-10
9.37692e-10
9.38695e-10
9.39702e-10
9.40714e-10
9.41729e-10
9.42749e-10
9.43772e-10
9.448e-10
9.45832e-10
9.46868e-10
9.47909e-10
9.48954e-10
9.50003e-10
9.51057e-10
9.52116e-10
9.53179e-10
9.54247e-10
9.5532e-10
9.56397e-10
9.5748e-10
9.58567e-10
9.59659e-10
9.60754e-10
9.61854e-10
9.62956e-10
9.64061e-10
9.65167e-10
9.66275e-10
9.67383e-10
9.68492e-10
9.696e-10
9.70709e-10
9.71817e-10
9.72925e-10
9.74033e-10
9.75142e-10
9.76251e-10
9.77361e-10
9.78472e-10
9.79585e-10
9.80699e-10
9.81815e-10
9.82933e-10
9.84054e-10
9.85176e-10
9.86301e-10
9.87429e-10
9.88559e-10
9.89692e-10
9.90828e-10
9.91967e-10
9.9311e-10
9.94256e-10
9.95405e-10
9.96557e-10
9.97713e-10
9.98873e-10
1.00004e-09
1.0012e-09
1.00237e-09
1.00354e-09
1.00472e-09
1.00589e-09
1.00707e-09
1.00825e-09
1.00944e-09
1.01062e-09
1.01181e-09
1.013e-09
1.0142e-09
1.01539e-09
1.01659e-09
1.01779e-09
1.01899e-09
1.0202e-09
1.0214e-09
1.02261e-09
1.02383e-09
1.02504e-09
1.02626e-09
1.02748e-09
1.02871e-09
1.02994e-09
1.03117e-09
1.0324e-09
1.03364e-09
1.03488e-09
1.03612e-09
1.03737e-09
1.03861e-09
1.03987e-09
1.04112e-09
1.04238e-09
1.04364e-09
1.0449e-09
1.04617e-09
1.04744e-09
1.04871e-09
1.04998e-09
1.05126e-09
1.05254e-09
1.05382e-09
1.05511e-09
1.0564e-09
1.05769e-09
1.05898e-09
1.06028e-09
1.06158e-09
1.06289e-09
1.0642e-09
1.06551e-09
1.06683e-09
1.06815e-09
1.06948e-09
1.0708e-09
1.07214e-09
1.07347e-09
1.07481e-09
1.07615e-09
1.0775e-09
1.07885e-09
1.0802e-09
1.08155e-09
1.08291e-09
1.08428e-09
1.08564e-09
1.08701e-09
1.08838e-09
1.08976e-09
1.09113e-09
1.09252e-09
1.0939e-09
1.09529e-09
1.09668e-09
1.09807e-09
1.09947e-09
1.10087e-09
1.10228e-09
1.10369e-09
1.1051e-09
1.10652e-09
1.10794e-09
1.10936e-09
1.11079e-09
1.11222e-09
1.11366e-09
1.11509e-09
1.11654e-09
1.11798e-09
1.11943e-09
1.12089e-09
1.12235e-09
1.12381e-09
1.12528e-09
1.12675e-09
1.12822e-09
1.1297e-09
1.13118e-09
1.13267e-09
1.13416e-09
1.13565e-09
1.13715e-09
1.13865e-09
1.14016e-09
1.14167e-09
1.14318e-09
1.1447e-09
1.14622e-09
1.14775e-09
1.14928e-09
1.15081e-09
1.15235e-09
1.15389e-09
1.15544e-09
1.15699e-09
1.15855e-09
1.16011e-09
1.16167e-09
1.16324e-09
1.16481e-09
1.16639e-09
1.16797e-09
1.16956e-09
1.17115e-09
1.17274e-09
1.17434e-09
1.17594e-09
1.17755e-09
1.17916e-09
1.18077e-09
1.18239e-09
1.18402e-09
1.18565e-09
1.18728e-09
1.18892e-09
1.19056e-09
1.1922e-09
1.19386e-09
1.19551e-09
1.19717e-09
1.19884e-09
1.20051e-09
1.20218e-09
1.20386e-09
1.20554e-09
1.20723e-09
1.20892e-09
1.21062e-09
1.21232e-09
1.21402e-09
1.21573e-09
1.21745e-09
1.21917e-09
1.22089e-09
1.22262e-09
1.22436e-09
1.2261e-09
1.22784e-09
1.22959e-09
1.23134e-09
1.2331e-09
1.23486e-09
1.23663e-09
1.2384e-09
1.24018e-09
1.24196e-09
1.24375e-09
1.24554e-09
1.24734e-09
1.24914e-09
1.25095e-09
1.25276e-09
1.25458e-09
1.2564e-09
1.25823e-09
1.26006e-09
1.26189e-09
1.26374e-09
1.26558e-09
1.26744e-09
1.26929e-09
1.27116e-09
1.27302e-09
1.2749e-09
1.27677e-09
1.27866e-09
1.28055e-09
1.28244e-09
1.28434e-09
1.28624e-09
1.28815e-09
1.29007e-09
1.29199e-09
1.29391e-09
1.29584e-09
1.29778e-09
1.29972e-09
1.30167e-09
1.30362e-09
1.30558e-09
1.30754e-09
1.30951e-09
1.31148e-09
1.31346e-09
1.31544e-09
1.31744e-09
1.31943e-09
1.32143e-09
1.32344e-09
1.32545e-09
1.32747e-09
1.32949e-09
1.33152e-09
1.33356e-09
1.3356e-09
1.33764e-09
1.33969e-09
1.34175e-09
1.34381e-09
1.34588e-09
1.34796e-09
1.35004e-09
1.35212e-09
1.35421e-09
1.35631e-09
1.35841e-09
1.36052e-09
1.36264e-09
1.36476e-09
1.36689e-09
1.36902e-09
1.37116e-09
1.3733e-09
1.37545e-09
1.37761e-09
1.37977e-09
1.38194e-09
1.38411e-09
1.38629e-09
1.38848e-09
1.39067e-09
1.39287e-09
1.39507e-09
1.39728e-09
1.3995e-09
1.40172e-09
1.40395e-09
1.40618e-09
1.40842e-09
1.41067e-09
1.41292e-09
1.41518e-09
1.41744e-09
1.41972e-09
1.42199e-09
1.42428e-09
1.42657e-09
1.42886e-09
1.43117e-09
1.43348e-09
1.43579e-09
1.43811e-09
1.44044e-09
1.44278e-09
1.44512e-09
1.44746e-09
1.44982e-09
1.45218e-09
1.45454e-09
1.45692e-09
1.4593e-09
1.46168e-09
1.46407e-09
1.46647e-09
1.46888e-09
1.47129e-09
1.47371e-09
1.47613e-09
1.47856e-09
1.481e-09
1.48345e-09
1.4859e-09
1.48836e-09
1.49082e-09
1.49329e-09
1.49577e-09
1.49825e-09
1.50075e-09
1.50324e-09
1.50575e-09
1.50826e-09
1.51078e-09
1.5133e-09
1.51584e-09
1.51837e-09
1.52092e-09
1.52347e-09
1.52603e-09
1.5286e-09
1.53117e-09
1.53375e-09
1.53634e-09
1.53893e-09
1.54153e-09
1.54414e-09
1.54675e-09
1.54938e-09
1.552e-09
1.55464e-09
1.55728e-09
1.55993e-09
1.56259e-09
1.56525e-09
1.56792e-09
1.5706e-09
1.57329e-09
1.57598e-09
1.57868e-09
1.58138e-09
1.5841e-09
1.58682e-09
1.58955e-09
1.59228e-09
1.59502e-09
1.59777e-09
1.60053e-09
1.60329e-09
1.60607e-09
1.60884e-09
1.61163e-09
1.61442e-09
1.61722e-09
1.62003e-09
1.62285e-09
1.62567e-09
1.6285e-09
1.63134e-09
1.63418e-09
1.63703e-09
1.63989e-09
1.64276e-09
1.64563e-09
1.64852e-09
1.65141e-09
1.6543e-09
1.65721e-09
1.66012e-09
1.66304e-09
1.66597e-09
1.6689e-09
1.67184e-09
1.67479e-09
1.67775e-09
1.68071e-09
1.68369e-09
1.68667e-09
1.68965e-09
1.69265e-09
1.69565e-09
1.69866e-09
1.70168e-09
1.70471e-09
1.70774e-09
1.71078e-09
1.71383e-09
1.71689e-09
1.71996e-09
1.72303e-09
1.72611e-09
1.7292e-09
1.73229e-09
1.7354e-09
1.73851e-09
1.74163e-09
1.74476e-09
1.74789e-09
1.75104e-09
1.75419e-09
1.75735e-09
1.76052e-09
1.76369e-09
1.76687e-09
1.77006e-09
1.77326e-09
1.77647e-09
1.77969e-09
1.78291e-09
1.78614e-09
1.78938e-09
1.79263e-09
1.79588e-09
1.79915e-09
1.80242e-09
1.8057e-09
1.80898e-09
1.81228e-09
1.81558e-09
1.8189e-09
1.82222e-09
1.82555e-09
1.82888e-09
1.83223e-09
1.83558e-09
1.83894e-09
1.84231e-09
1.84569e-09
1.84907e-09
1.85247e-09
1.85587e-09
1.85928e-09
1.8627e-09
1.86613e-09
1.86956e-09
1.87301e-09
1.87646e-09
1.87992e-09
1.88339e-09
1.88687e-09
1.89035e-09
1.89385e-09
1.89735e-09
1.90086e-09
1.90438e-09
1.90791e-09
1.91144e-09
1.91499e-09
1.91854e-09
1.9221e-09
1.92567e-09
1.92925e-09
1.93284e-09
1.93643e-09
1.94004e-09
1.94365e-09
1.94727e-09
1.9509e-09
1.95454e-09
1.95818e-09
1.96184e-09
1.9655e-09
1.96918e-09
1.97286e-09
1.97655e-09
1.98025e-09
1.98395e-09
1.98767e-09
1.99139e-09
1.99512e-09
1.99887e-09
2.00262e-09
2.00638e-09
2.01014e-09
2.01392e-09
2.0177e-09
2.0215e-09
2.0253e-09
2.02911e-09
2.03293e-09
2.03676e-09
2.0406e-09
2.04444e-09
2.0483e-09
2.05216e-09
2.05603e-09
2.05992e-09
2.06381e-09
2.0677e-09
2.07161e-09
2.07553e-09
2.07945e-09
2.08339e-09
2.08733e-09
2.09128e-09
2.09524e-09
2.09921e-09
2.10319e-09
2.10718e-09
2.11118e-09
2.11518e-09
2.1192e-09
2.12322e-09
2.12725e-09
2.13129e-09
2.13534e-09
2.1394e-09
2.14347e-09
2.14755e-09
2.15163e-09
2.15573e-09
2.15983e-09
2.16394e-09
2.16806e-09
2.1722e-09
2.17633e-09
2.18048e-09
2.18464e-09
2.18881e-09
2.19298e-09
2.19717e-09
2.20136e-09
2.20557e-09
2.20978e-09
2.214e-09
2.21823e-09
2.22247e-09
2.22672e-09
2.23097e-09
2.23524e-09
2.23951e-09
2.2438e-09
2.24809e-09
2.2524e-09
2.25671e-09
2.26103e-09
2.26536e-09
2.2697e-09
2.27405e-09
2.2784e-09
2.28277e-09
2.28715e-09
2.29153e-09
2.29593e-09
2.30033e-09
2.30474e-09
2.30916e-09
2.31359e-09
2.31803e-09
2.32248e-09
2.32694e-09
2.33141e-09
2.33589e-09
2.34037e-09
2.34487e-09
2.34937e-09
2.35388e-09
2.35841e-09
2.36294e-09
2.36748e-09
2.37203e-09
2.37659e-09
2.38116e-09
2.38574e-09
2.39032e-09
2.39492e-09
2.39952e-09
2.40414e-09
2.40876e-09
2.4134e-09
2.41804e-09
2.42269e-09
2.42735e-09
2.43202e-09
2.4367e-09
2.44139e-09
2.44609e-09
2.4508e-09
2.45551e-09
2.46024e-09
2.46497e-09
2.46972e-09
2.47447e-09
2.47923e-09
2.48401e-09
2.48879e-09
2.49358e-09
2.49838e-09
2.50319e-09
2.50801e-09
2.51283e-09
2.51767e-09
2.52252e-09
2.52737e-09
2.53224e-09
2.53711e-09
2.542e-09
2.54689e-09
2.55179e-09
2.5567e-09
2.56162e-09
2.56655e-09
2.57149e-09
2.57644e-09
2.5814e-09
2.58636e-09
2.59134e-09
2.59632e-09
2.60132e-09
2.60632e-09
2.61133e-09
2.61636e-09
2.62139e-09
2.62643e-09
2.63148e-09
2.63654e-09
2.64161e-09
2.64669e-09
2.65177e-09
2.65687e-09
2.66197e-09
2.66709e-09
2.67221e-09
2.67735e-09
2.68249e-09
2.68764e-09
2.6928e-09
2.69797e-09
2.70315e-09
2.70834e-09
2.71354e-09
2.71875e-09
2.72396e-09
2.72919e-09
2.73442e-09
2.73967e-09
2.74492e-09
2.75018e-09
2.75545e-09
2.76073e-09
2.76602e-09
2.77132e-09
2.77663e-09
2.78195e-09
2.78728e-09
2.79261e-09
2.79796e-09
2.80331e-09
2.80867e-09
2.81405e-09
2.81943e-09
2.82482e-09
2.83022e-09
2.83563e-09
2.84105e-09
2.84647e-09
2.85191e-09
2.85736e-09
2.86281e-09
2.86827e-09
2.87375e-09
2.87923e-09
2.88472e-09
2.89022e-09
2.89573e-09
2.90125e-09
2.90677e-09
2.91231e-09
2.91786e-09
2.92341e-09
2.92897e-09
2.93455e-09
2.94013e-09
2.94572e-09
2.95132e-09
2.95692e-09
2.96254e-09
2.96817e-09
2.9738e-09
2.97945e-09
2.9851e-09
2.99076e-09
2.99643e-09
3.00211e-09
3.0078e-09
3.0135e-09
3.01921e-09
3.02492e-09
3.03065e-09
3.03638e-09
3.04212e-09
3.04788e-09
3.05364e-09
3.0594e-09
3.06518e-09
3.07097e-09
3.07676e-09
3.08257e-09
3.08838e-09
3.0942e-09
3.10003e-09
3.10587e-09
3.11172e-09
3.11758e-09
3.12344e-09
3.12932e-09
3.1352e-09
3.14109e-09
3.14699e-09
3.1529e-09
3.15882e-09
3.16475e-09
3.17068e-09
3.17663e-09
3.18258e-09
3.18854e-09
3.19451e-09
3.20049e-09
3.20647e-09
3.21247e-09
3.21847e-09
3.22449e-09
3.23051e-09
3.23654e-09
3.24258e-09
3.24862e-09
3.25468e-09
3.26074e-09
3.26681e-09
3.27289e-09
3.27898e-09
3.28508e-09
3.29119e-09
3.2973e-09
3.30342e-09
3.30956e-09
3.31569e-09
3.32184e-09
3.328e-09
3.33416e-09
3.34034e-09
3.34652e-09
3.35271e-09
3.35891e-09
3.36511e-09
3.37133e-09
3.37755e-09
3.38378e-09
3.39002e-09
3.39627e-09
3.40252e-09
3.40878e-09
3.41506e-09
3.42134e-09
3.42762e-09
3.43392e-09
3.44022e-09
3.44654e-09
3.45286e-09
3.45919e-09
3.46552e-09
3.47187e-09
3.47822e-09
3.48458e-09
3.49095e-09
3.49733e-09
3.50371e-09
3.5101e-09
3.51651e-09
3.52291e-09
3.52933e-09
3.53576e-09
3.54219e-09
3.54863e-09
3.55508e-09
3.56153e-09
3.568e-09
3.57447e-09
3.58095e-09
3.58744e-09
3.59393e-09
3.60044e-09
3.60695e-09
3.61347e-09
3.62e-09
3.62653e-09
3.63308e-09
3.63963e-09
3.64619e-09
3.65275e-09
3.65933e-09
3.66591e-09
3.6725e-09
3.6791e-09
3.68571e-09
3.69232e-09
3.69894e-09
3.70557e-09
3.71221e-09
3.71886e-09
3.72551e-09
3.73218e-09
3.73885e-09
3.74553e-09
3.75222e-09
3.75891e-09
3.76562e-09
3.77233e-09
3.77906e-09
3.78579e-09
3.79253e-09
3.79928e-09
3.80603e-09
3.8128e-09
3.81958e-09
3.82636e-09
3.83316e-09
3.83996e-09
3.84678e-09
3.8536e-09
3.86044e-09
3.86728e-09
3.87414e-09
3.88101e-09
3.88789e-09
3.89478e-09
3.90168e-09
3.9086e-09
3.91552e-09
3.92247e-09
3.92942e-09
3.93639e-09
3.94337e-09
3.95037e-09
3.95739e-09
3.96442e-09
3.97147e-09
3.97854e-09
3.98562e-09
3.99273e-09
3.99986e-09
4.00701e-09
4.01418e-09
4.02137e-09
4.0286e-09
4.03585e-09
4.04313e-09
4.05044e-09
4.05778e-09
4.06516e-09
4.07258e-09
4.08004e-09
4.08754e-09
4.09509e-09
4.10268e-09
4.11034e-09
4.11805e-09
4.12582e-09
4.13366e-09
4.14158e-09
4.14958e-09
4.15767e-09
4.16585e-09
4.17415e-09
4.18257e-09
4.19115e-09
4.19991e-09
4.20892e-09
4.21828e-09
4.22812e-09
4.23861e-09
4.25019e-09
4.26492e-09
4.28485e-09
2.53978e-06
4.12862e-07
1.10142e-07
4.39023e-08
2.4481e-08
1.73498e-08
1.43078e-08
1.28819e-08
1.21704e-08
1.1798e-08
1.15941e-08
1.14766e-08
1.14046e-08
1.13573e-08
1.13238e-08
1.12987e-08
1.12787e-08
1.12623e-08
1.12485e-08
1.12367e-08
1.12265e-08
1.12177e-08
1.121e-08
1.12032e-08
1.11974e-08
1.11922e-08
1.11877e-08
1.11838e-08
1.11803e-08
1.11773e-08
1.11747e-08
1.11725e-08
1.11706e-08
1.1169e-08
1.11677e-08
1.11666e-08
1.11657e-08
1.11651e-08
1.11646e-08
1.11643e-08
1.11641e-08
1.11641e-08
1.11643e-08
1.11645e-08
1.11649e-08
1.11653e-08
1.11659e-08
1.11666e-08
1.11673e-08
1.11681e-08
1.1169e-08
1.117e-08
1.1171e-08
1.11721e-08
1.11732e-08
1.11744e-08
1.11756e-08
1.11769e-08
1.11782e-08
1.11796e-08
1.1181e-08
1.11824e-08
1.11838e-08
1.11853e-08
1.11869e-08
1.11884e-08
1.119e-08
1.11916e-08
1.11932e-08
1.11948e-08
1.11964e-08
1.11981e-08
1.11997e-08
1.12014e-08
1.1203e-08
1.12047e-08
1.12064e-08
1.1208e-08
1.12097e-08
1.12114e-08
1.12131e-08
1.12148e-08
1.12164e-08
1.12181e-08
1.12198e-08
1.12215e-08
1.12232e-08
1.1225e-08
1.12267e-08
1.12284e-08
1.12301e-08
1.12319e-08
1.12336e-08
1.12353e-08
1.12371e-08
1.12389e-08
1.12406e-08
1.12424e-08
1.12441e-08
1.12459e-08
1.12477e-08
1.12495e-08
1.12513e-08
1.12531e-08
1.12549e-08
1.12567e-08
1.12585e-08
1.12603e-08
1.12622e-08
1.1264e-08
1.12658e-08
1.12676e-08
1.12695e-08
1.12713e-08
1.12732e-08
1.1275e-08
1.12768e-08
1.12787e-08
1.12805e-08
1.12824e-08
1.12842e-08
1.12861e-08
1.12879e-08
1.12897e-08
1.12916e-08
1.12934e-08
1.12953e-08
1.12972e-08
1.1299e-08
1.13009e-08
1.13027e-08
1.13046e-08
1.13065e-08
1.13083e-08
1.13102e-08
1.13121e-08
1.1314e-08
1.13159e-08
1.13177e-08
1.13196e-08
1.13215e-08
1.13234e-08
1.13253e-08
1.13272e-08
1.13292e-08
1.13311e-08
1.1333e-08
1.13349e-08
1.13368e-08
1.13387e-08
1.13407e-08
1.13426e-08
1.13445e-08
1.13465e-08
1.13484e-08
1.13503e-08
1.13523e-08
1.13542e-08
1.13562e-08
1.13581e-08
1.13601e-08
1.1362e-08
1.1364e-08
1.13659e-08
1.13679e-08
1.13699e-08
1.13718e-08
1.13738e-08
1.13758e-08
1.13778e-08
1.13797e-08
1.13817e-08
1.13837e-08
1.13857e-08
1.13877e-08
1.13897e-08
1.13917e-08
1.13937e-08
1.13957e-08
1.13977e-08
1.13997e-08
1.14017e-08
1.14037e-08
1.14057e-08
1.14078e-08
1.14098e-08
1.14118e-08
1.14138e-08
1.14159e-08
1.14179e-08
1.14199e-08
1.1422e-08
1.1424e-08
1.1426e-08
1.14281e-08
1.14301e-08
1.14322e-08
1.14343e-08
1.14363e-08
1.14384e-08
1.14404e-08
1.14425e-08
1.14446e-08
1.14467e-08
1.14487e-08
1.14508e-08
1.14529e-08
1.1455e-08
1.14571e-08
1.14592e-08
1.14613e-08
1.14634e-08
1.14655e-08
1.14676e-08
1.14697e-08
1.14718e-08
1.14739e-08
1.1476e-08
1.14781e-08
1.14802e-08
1.14824e-08
1.14845e-08
1.14866e-08
1.14887e-08
1.14909e-08
1.1493e-08
1.14952e-08
1.14973e-08
1.14994e-08
1.15016e-08
1.15037e-08
1.15059e-08
1.1508e-08
1.15102e-08
1.15124e-08
1.15145e-08
1.15167e-08
1.15189e-08
1.15211e-08
1.15232e-08
1.15254e-08
1.15276e-08
1.15298e-08
1.1532e-08
1.15342e-08
1.15364e-08
1.15386e-08
1.15408e-08
1.1543e-08
1.15452e-08
1.15474e-08
1.15496e-08
1.15518e-08
1.1554e-08
1.15562e-08
1.15585e-08
1.15607e-08
1.15629e-08
1.15652e-08
1.15674e-08
1.15696e-08
1.15719e-08
1.15741e-08
1.15764e-08
1.15786e-08
1.15809e-08
1.15831e-08
1.15854e-08
1.15877e-08
1.15899e-08
1.15922e-08
1.15945e-08
1.15968e-08
1.1599e-08
1.16013e-08
1.16036e-08
1.16059e-08
1.16082e-08
1.16105e-08
1.16128e-08
1.16151e-08
1.16174e-08
1.16197e-08
1.1622e-08
1.16243e-08
1.16266e-08
1.16289e-08
1.16312e-08
1.16336e-08
1.16359e-08
1.16382e-08
1.16406e-08
1.16429e-08
1.16452e-08
1.16476e-08
1.16499e-08
1.16523e-08
1.16546e-08
1.1657e-08
1.16593e-08
1.16617e-08
1.16641e-08
1.16664e-08
1.16688e-08
1.16712e-08
1.16735e-08
1.16759e-08
1.16783e-08
1.16807e-08
1.16831e-08
1.16855e-08
1.16878e-08
1.16902e-08
1.16926e-08
1.1695e-08
1.16974e-08
1.16999e-08
1.17023e-08
1.17047e-08
1.17071e-08
1.17095e-08
1.17119e-08
1.17144e-08
1.17168e-08
1.17192e-08
1.17217e-08
1.17241e-08
1.17265e-08
1.1729e-08
1.17314e-08
1.17339e-08
1.17363e-08
1.17388e-08
1.17413e-08
1.17437e-08
1.17462e-08
1.17487e-08
1.17511e-08
1.17536e-08
1.17561e-08
1.17586e-08
1.1761e-08
1.17635e-08
1.1766e-08
1.17685e-08
1.1771e-08
1.17735e-08
1.1776e-08
1.17785e-08
1.1781e-08
1.17835e-08
1.17861e-08
1.17886e-08
1.17911e-08
1.17936e-08
1.17962e-08
1.17987e-08
1.18012e-08
1.18038e-08
1.18063e-08
1.18088e-08
1.18114e-08
1.18139e-08
1.18165e-08
1.1819e-08
1.18216e-08
1.18242e-08
1.18267e-08
1.18293e-08
1.18319e-08
1.18344e-08
1.1837e-08
1.18396e-08
1.18422e-08
1.18448e-08
1.18474e-08
1.185e-08
1.18526e-08
1.18552e-08
1.18578e-08
1.18604e-08
1.1863e-08
1.18656e-08
1.18682e-08
1.18708e-08
1.18735e-08
1.18761e-08
1.18787e-08
1.18813e-08
1.1884e-08
1.18866e-08
1.18893e-08
1.18919e-08
1.18946e-08
1.18972e-08
1.18999e-08
1.19025e-08
1.19052e-08
1.19078e-08
1.19105e-08
1.19132e-08
1.19159e-08
1.19185e-08
1.19212e-08
1.19239e-08
1.19266e-08
1.19293e-08
1.1932e-08
1.19347e-08
1.19374e-08
1.19401e-08
1.19428e-08
1.19455e-08
1.19482e-08
1.19509e-08
1.19536e-08
1.19564e-08
1.19591e-08
1.19618e-08
1.19646e-08
1.19673e-08
1.197e-08
1.19728e-08
1.19755e-08
1.19783e-08
1.1981e-08
1.19838e-08
1.19865e-08
1.19893e-08
1.19921e-08
1.19948e-08
1.19976e-08
1.20004e-08
1.20032e-08
1.20059e-08
1.20087e-08
1.20115e-08
1.20143e-08
1.20171e-08
1.20199e-08
1.20227e-08
1.20255e-08
1.20283e-08
1.20311e-08
1.20339e-08
1.20368e-08
1.20396e-08
1.20424e-08
1.20452e-08
1.20481e-08
1.20509e-08
1.20537e-08
1.20566e-08
1.20594e-08
1.20623e-08
1.20651e-08
1.2068e-08
1.20709e-08
1.20737e-08
1.20766e-08
1.20795e-08
1.20823e-08
1.20852e-08
1.20881e-08
1.2091e-08
1.20938e-08
1.20967e-08
1.20996e-08
1.21025e-08
1.21054e-08
1.21083e-08
1.21112e-08
1.21141e-08
1.21171e-08
1.212e-08
1.21229e-08
1.21258e-08
1.21287e-08
1.21317e-08
1.21346e-08
1.21376e-08
1.21405e-08
1.21434e-08
1.21464e-08
1.21493e-08
1.21523e-08
1.21552e-08
1.21582e-08
1.21612e-08
1.21641e-08
1.21671e-08
1.21701e-08
1.21731e-08
1.21761e-08
1.2179e-08
1.2182e-08
1.2185e-08
1.2188e-08
1.2191e-08
1.2194e-08
1.2197e-08
1.22e-08
1.22031e-08
1.22061e-08
1.22091e-08
1.22121e-08
1.22151e-08
1.22182e-08
1.22212e-08
1.22242e-08
1.22273e-08
1.22303e-08
1.22334e-08
1.22364e-08
1.22395e-08
1.22425e-08
1.22456e-08
1.22487e-08
1.22517e-08
1.22548e-08
1.22579e-08
1.2261e-08
1.22641e-08
1.22672e-08
1.22702e-08
1.22733e-08
1.22764e-08
1.22795e-08
1.22826e-08
1.22858e-08
1.22889e-08
1.2292e-08
1.22951e-08
1.22982e-08
1.23013e-08
1.23045e-08
1.23076e-08
1.23108e-08
1.23139e-08
1.2317e-08
1.23202e-08
1.23233e-08
1.23265e-08
1.23297e-08
1.23328e-08
1.2336e-08
1.23392e-08
1.23423e-08
1.23455e-08
1.23487e-08
1.23519e-08
1.23551e-08
1.23582e-08
1.23614e-08
1.23646e-08
1.23678e-08
1.2371e-08
1.23743e-08
1.23775e-08
1.23807e-08
1.23839e-08
1.23871e-08
1.23904e-08
1.23936e-08
1.23968e-08
1.24001e-08
1.24033e-08
1.24066e-08
1.24098e-08
1.24131e-08
1.24163e-08
1.24196e-08
1.24228e-08
1.24261e-08
1.24294e-08
1.24327e-08
1.24359e-08
1.24392e-08
1.24425e-08
1.24458e-08
1.24491e-08
1.24524e-08
1.24557e-08
1.2459e-08
1.24623e-08
1.24656e-08
1.24689e-08
1.24723e-08
1.24756e-08
1.24789e-08
1.24822e-08
1.24856e-08
1.24889e-08
1.24922e-08
1.24956e-08
1.24989e-08
1.25023e-08
1.25057e-08
1.2509e-08
1.25124e-08
1.25157e-08
1.25191e-08
1.25225e-08
1.25259e-08
1.25293e-08
1.25326e-08
1.2536e-08
1.25394e-08
1.25428e-08
1.25462e-08
1.25496e-08
1.2553e-08
1.25565e-08
1.25599e-08
1.25633e-08
1.25667e-08
1.25702e-08
1.25736e-08
1.2577e-08
1.25805e-08
1.25839e-08
1.25874e-08
1.25908e-08
1.25943e-08
1.25977e-08
1.26012e-08
1.26046e-08
1.26081e-08
1.26116e-08
1.26151e-08
1.26185e-08
1.2622e-08
1.26255e-08
1.2629e-08
1.26325e-08
1.2636e-08
1.26395e-08
1.2643e-08
1.26465e-08
1.265e-08
1.26536e-08
1.26571e-08
1.26606e-08
1.26642e-08
1.26677e-08
1.26712e-08
1.26748e-08
1.26783e-08
1.26819e-08
1.26854e-08
1.2689e-08
1.26925e-08
1.26961e-08
1.26997e-08
1.27032e-08
1.27068e-08
1.27104e-08
1.2714e-08
1.27176e-08
1.27212e-08
1.27248e-08
1.27284e-08
1.2732e-08
1.27356e-08
1.27392e-08
1.27428e-08
1.27464e-08
1.275e-08
1.27537e-08
1.27573e-08
1.27609e-08
1.27646e-08
1.27682e-08
1.27719e-08
1.27755e-08
1.27792e-08
1.27828e-08
1.27865e-08
1.27902e-08
1.27938e-08
1.27975e-08
1.28012e-08
1.28049e-08
1.28085e-08
1.28122e-08
1.28159e-08
1.28196e-08
1.28233e-08
1.2827e-08
1.28307e-08
1.28345e-08
1.28382e-08
1.28419e-08
1.28456e-08
1.28493e-08
1.28531e-08
1.28568e-08
1.28606e-08
1.28643e-08
1.2868e-08
1.28718e-08
1.28756e-08
1.28793e-08
1.28831e-08
1.28868e-08
1.28906e-08
1.28944e-08
1.28982e-08
1.29019e-08
1.29057e-08
1.29095e-08
1.29133e-08
1.29171e-08
1.29209e-08
1.29247e-08
1.29285e-08
1.29324e-08
1.29362e-08
1.294e-08
1.29438e-08
1.29477e-08
1.29515e-08
1.29553e-08
1.29592e-08
1.2963e-08
1.29669e-08
1.29707e-08
1.29746e-08
1.29784e-08
1.29823e-08
1.29862e-08
1.299e-08
1.29939e-08
1.29978e-08
1.30017e-08
1.30056e-08
1.30095e-08
1.30134e-08
1.30173e-08
1.30212e-08
1.30251e-08
1.3029e-08
1.30329e-08
1.30368e-08
1.30408e-08
1.30447e-08
1.30486e-08
1.30525e-08
1.30565e-08
1.30604e-08
1.30644e-08
1.30683e-08
1.30723e-08
1.30762e-08
1.30802e-08
1.30842e-08
1.30882e-08
1.30921e-08
1.30961e-08
1.31001e-08
1.31041e-08
1.31081e-08
1.31121e-08
1.31161e-08
1.31201e-08
1.31241e-08
1.31281e-08
1.31321e-08
1.31361e-08
1.31401e-08
1.31442e-08
1.31482e-08
1.31522e-08
1.31563e-08
1.31603e-08
1.31644e-08
1.31684e-08
1.31725e-08
1.31765e-08
1.31806e-08
1.31846e-08
1.31887e-08
1.31928e-08
1.31969e-08
1.3201e-08
1.3205e-08
1.32091e-08
1.32132e-08
1.32173e-08
1.32214e-08
1.32255e-08
1.32296e-08
1.32337e-08
1.32379e-08
1.3242e-08
1.32461e-08
1.32502e-08
1.32544e-08
1.32585e-08
1.32626e-08
1.32668e-08
1.32709e-08
1.32751e-08
1.32792e-08
1.32834e-08
1.32876e-08
1.32917e-08
1.32959e-08
1.33001e-08
1.33043e-08
1.33084e-08
1.33126e-08
1.33168e-08
1.3321e-08
1.33252e-08
1.33294e-08
1.33336e-08
1.33378e-08
1.3342e-08
1.33463e-08
1.33505e-08
1.33547e-08
1.33589e-08
1.33632e-08
1.33674e-08
1.33717e-08
1.33759e-08
1.33802e-08
1.33844e-08
1.33887e-08
1.33929e-08
1.33972e-08
1.34015e-08
1.34057e-08
1.341e-08
1.34143e-08
1.34186e-08
1.34229e-08
1.34271e-08
1.34314e-08
1.34357e-08
1.344e-08
1.34443e-08
1.34487e-08
1.3453e-08
1.34573e-08
1.34616e-08
1.34659e-08
1.34703e-08
1.34746e-08
1.34789e-08
1.34833e-08
1.34876e-08
1.3492e-08
1.34963e-08
1.35007e-08
1.3505e-08
1.35094e-08
1.35138e-08
1.35181e-08
1.35225e-08
1.35269e-08
1.35313e-08
1.35357e-08
1.35401e-08
1.35445e-08
1.35488e-08
1.35532e-08
1.35577e-08
1.35621e-08
1.35665e-08
1.35709e-08
1.35753e-08
1.35797e-08
1.35842e-08
1.35886e-08
1.3593e-08
1.35975e-08
1.36019e-08
1.36064e-08
1.36108e-08
1.36153e-08
1.36197e-08
1.36242e-08
1.36287e-08
1.36331e-08
1.36376e-08
1.36421e-08
1.36465e-08
1.3651e-08
1.36555e-08
1.366e-08
1.36645e-08
1.3669e-08
1.36735e-08
1.3678e-08
1.36825e-08
1.3687e-08
1.36916e-08
1.36961e-08
1.37006e-08
1.37051e-08
1.37097e-08
1.37142e-08
1.37187e-08
1.37233e-08
1.37278e-08
1.37324e-08
1.37369e-08
1.37415e-08
1.37461e-08
1.37506e-08
1.37552e-08
1.37598e-08
1.37644e-08
1.37689e-08
1.37735e-08
1.37781e-08
1.37827e-08
1.37873e-08
1.37919e-08
1.37965e-08
1.38011e-08
1.38058e-08
1.38104e-08
1.3815e-08
1.38196e-08
1.38243e-08
1.38289e-08
1.38336e-08
1.38382e-08
1.38429e-08
1.38475e-08
1.38522e-08
1.38568e-08
1.38615e-08
1.38662e-08
1.38709e-08
1.38756e-08
1.38803e-08
1.3885e-08
1.38897e-08
1.38944e-08
1.38991e-08
1.39038e-08
1.39085e-08
1.39133e-08
1.3918e-08
1.39228e-08
1.39275e-08
1.39323e-08
1.39371e-08
1.39419e-08
1.39467e-08
1.39515e-08
1.39563e-08
1.39611e-08
1.39659e-08
1.39708e-08
1.39756e-08
1.39805e-08
1.39854e-08
1.39903e-08
1.39952e-08
1.40001e-08
1.40051e-08
1.401e-08
1.4015e-08
1.402e-08
1.4025e-08
1.40301e-08
1.40352e-08
1.40403e-08
1.40454e-08
1.40505e-08
1.40557e-08
1.40609e-08
1.40662e-08
1.40715e-08
1.40768e-08
1.40822e-08
1.40876e-08
1.40931e-08
1.40987e-08
1.41043e-08
1.41099e-08
1.41157e-08
1.41215e-08
1.41274e-08
1.41334e-08
1.41395e-08
1.41457e-08
1.4152e-08
1.41585e-08
1.41653e-08
1.41725e-08
1.41802e-08
1.4189e-08
1.42002e-08
1.42135e-08
1.80339e-05
3.9177e-06
1.39693e-06
6.56225e-07
3.94805e-07
2.90743e-07
2.4567e-07
2.25073e-07
2.15402e-07
2.10836e-07
2.08713e-07
2.07765e-07
2.07374e-07
2.07241e-07
2.07221e-07
2.07247e-07
2.07286e-07
2.07327e-07
2.07365e-07
2.07398e-07
2.07427e-07
2.07452e-07
2.07473e-07
2.07492e-07
2.07508e-07
2.07522e-07
2.07535e-07
2.07547e-07
2.07557e-07
2.07567e-07
2.07575e-07
2.07583e-07
2.07591e-07
2.07598e-07
2.07604e-07
2.0761e-07
2.07616e-07
2.07621e-07
2.07626e-07
2.07631e-07
2.07636e-07
2.0764e-07
2.07645e-07
2.07649e-07
2.07653e-07
2.07657e-07
2.07661e-07
2.07664e-07
2.07668e-07
2.07671e-07
2.07675e-07
2.07678e-07
2.07682e-07
2.07685e-07
2.07688e-07
2.07691e-07
2.07695e-07
2.07698e-07
2.07701e-07
2.07704e-07
2.07707e-07
2.0771e-07
2.07713e-07
2.07716e-07
2.07719e-07
2.07721e-07
2.07724e-07
2.07727e-07
2.07729e-07
2.07732e-07
2.07735e-07
2.07737e-07
2.07739e-07
2.07741e-07
2.07744e-07
2.07746e-07
2.07748e-07
2.0775e-07
2.07752e-07
2.07754e-07
2.07756e-07
2.07758e-07
2.0776e-07
2.07762e-07
2.07764e-07
2.07767e-07
2.07769e-07
2.07771e-07
2.07773e-07
2.07776e-07
2.07778e-07
2.0778e-07
2.07783e-07
2.07785e-07
2.07787e-07
2.0779e-07
2.07792e-07
2.07795e-07
2.07797e-07
2.078e-07
2.07802e-07
2.07805e-07
2.07807e-07
2.0781e-07
2.07812e-07
2.07815e-07
2.07817e-07
2.0782e-07
2.07822e-07
2.07825e-07
2.07827e-07
2.0783e-07
2.07832e-07
2.07835e-07
2.07837e-07
2.0784e-07
2.07842e-07
2.07844e-07
2.07847e-07
2.07849e-07
2.07852e-07
2.07854e-07
2.07856e-07
2.07859e-07
2.07861e-07
2.07864e-07
2.07866e-07
2.07869e-07
2.07871e-07
2.07874e-07
2.07876e-07
2.07879e-07
2.07881e-07
2.07884e-07
2.07887e-07
2.07889e-07
2.07892e-07
2.07894e-07
2.07897e-07
2.07899e-07
2.07902e-07
2.07905e-07
2.07907e-07
2.0791e-07
2.07913e-07
2.07915e-07
2.07918e-07
2.0792e-07
2.07923e-07
2.07926e-07
2.07928e-07
2.07931e-07
2.07934e-07
2.07936e-07
2.07939e-07
2.07941e-07
2.07944e-07
2.07947e-07
2.07949e-07
2.07952e-07
2.07955e-07
2.07957e-07
2.0796e-07
2.07963e-07
2.07965e-07
2.07968e-07
2.07971e-07
2.07973e-07
2.07976e-07
2.07979e-07
2.07981e-07
2.07984e-07
2.07987e-07
2.07989e-07
2.07992e-07
2.07995e-07
2.07998e-07
2.08e-07
2.08003e-07
2.08006e-07
2.08008e-07
2.08011e-07
2.08014e-07
2.08017e-07
2.08019e-07
2.08022e-07
2.08025e-07
2.08027e-07
2.0803e-07
2.08033e-07
2.08036e-07
2.08038e-07
2.08041e-07
2.08044e-07
2.08047e-07
2.0805e-07
2.08052e-07
2.08055e-07
2.08058e-07
2.08061e-07
2.08063e-07
2.08066e-07
2.08069e-07
2.08072e-07
2.08075e-07
2.08077e-07
2.0808e-07
2.08083e-07
2.08086e-07
2.08089e-07
2.08092e-07
2.08094e-07
2.08097e-07
2.081e-07
2.08103e-07
2.08106e-07
2.08108e-07
2.08111e-07
2.08114e-07
2.08117e-07
2.0812e-07
2.08123e-07
2.08125e-07
2.08128e-07
2.08131e-07
2.08134e-07
2.08137e-07
2.0814e-07
2.08142e-07
2.08145e-07
2.08148e-07
2.08151e-07
2.08154e-07
2.08157e-07
2.0816e-07
2.08163e-07
2.08165e-07
2.08168e-07
2.08171e-07
2.08174e-07
2.08177e-07
2.0818e-07
2.08183e-07
2.08186e-07
2.08189e-07
2.08191e-07
2.08194e-07
2.08197e-07
2.082e-07
2.08203e-07
2.08206e-07
2.08209e-07
2.08212e-07
2.08215e-07
2.08218e-07
2.08221e-07
2.08224e-07
2.08226e-07
2.08229e-07
2.08232e-07
2.08235e-07
2.08238e-07
2.08241e-07
2.08244e-07
2.08247e-07
2.0825e-07
2.08253e-07
2.08256e-07
2.08259e-07
2.08262e-07
2.08265e-07
2.08268e-07
2.08271e-07
2.08274e-07
2.08277e-07
2.0828e-07
2.08283e-07
2.08285e-07
2.08288e-07
2.08291e-07
2.08294e-07
2.08297e-07
2.083e-07
2.08303e-07
2.08306e-07
2.08309e-07
2.08312e-07
2.08315e-07
2.08318e-07
2.08321e-07
2.08324e-07
2.08327e-07
2.0833e-07
2.08333e-07
2.08336e-07
2.08339e-07
2.08342e-07
2.08345e-07
2.08348e-07
2.08351e-07
2.08354e-07
2.08357e-07
2.0836e-07
2.08363e-07
2.08366e-07
2.08369e-07
2.08372e-07
2.08376e-07
2.08379e-07
2.08382e-07
2.08385e-07
2.08388e-07
2.08391e-07
2.08394e-07
2.08397e-07
2.084e-07
2.08403e-07
2.08406e-07
2.08409e-07
2.08412e-07
2.08415e-07
2.08418e-07
2.08421e-07
2.08424e-07
2.08427e-07
2.0843e-07
2.08433e-07
2.08436e-07
2.08439e-07
2.08442e-07
2.08446e-07
2.08449e-07
2.08452e-07
2.08455e-07
2.08458e-07
2.08461e-07
2.08464e-07
2.08467e-07
2.0847e-07
2.08473e-07
2.08476e-07
2.08479e-07
2.08482e-07
2.08485e-07
2.08489e-07
2.08492e-07
2.08495e-07
2.08498e-07
2.08501e-07
2.08504e-07
2.08507e-07
2.0851e-07
2.08513e-07
2.08516e-07
2.08519e-07
2.08523e-07
2.08526e-07
2.08529e-07
2.08532e-07
2.08535e-07
2.08538e-07
2.08541e-07
2.08544e-07
2.08547e-07
2.0855e-07
2.08554e-07
2.08557e-07
2.0856e-07
2.08563e-07
2.08566e-07
2.08569e-07
2.08572e-07
2.08575e-07
2.08578e-07
2.08582e-07
2.08585e-07
2.08588e-07
2.08591e-07
2.08594e-07
2.08597e-07
2.086e-07
2.08603e-07
2.08607e-07
2.0861e-07
2.08613e-07
2.08616e-07
2.08619e-07
2.08622e-07
2.08625e-07
2.08628e-07
2.08632e-07
2.08635e-07
2.08638e-07
2.08641e-07
2.08644e-07
2.08647e-07
2.0865e-07
2.08654e-07
2.08657e-07
2.0866e-07
2.08663e-07
2.08666e-07
2.08669e-07
2.08672e-07
2.08676e-07
2.08679e-07
2.08682e-07
2.08685e-07
2.08688e-07
2.08691e-07
2.08694e-07
2.08698e-07
2.08701e-07
2.08704e-07
2.08707e-07
2.0871e-07
2.08713e-07
2.08717e-07
2.0872e-07
2.08723e-07
2.08726e-07
2.08729e-07
2.08732e-07
2.08735e-07
2.08739e-07
2.08742e-07
2.08745e-07
2.08748e-07
2.08751e-07
2.08754e-07
2.08758e-07
2.08761e-07
2.08764e-07
2.08767e-07
2.0877e-07
2.08773e-07
2.08777e-07
2.0878e-07
2.08783e-07
2.08786e-07
2.08789e-07
2.08792e-07
2.08796e-07
2.08799e-07
2.08802e-07
2.08805e-07
2.08808e-07
2.08811e-07