/*--------------------------------*- C++ -*----------------------------------*\
| =========                 |                                                 |
| \\      /  F ield         | OpenFOAM: The Open Source CFD Toolbox           |
|  \\    /   O peration     | Version:  2512                                  |
|   \\  /    A nd           | Website:  www.openfoam.com                      |
|    \\/     M anipulation  |                                                 |
\*---------------------------------------------------------------------------*/
FoamFile
{
    version     2.0;
    format      ascii;
    arch        "LSB;label=32;scalar=64";
    class       volScalarField;
    location    "0.004";
    object      p;
}
// * * * * * * * * * * * * * * * * * * * * * * * * * * * * * * * * * * * * * //

dimensions      [1 -1 -2 0 0 0 0];

internalField   nonuniform List<scalar> 
100000
(
0
-62.3478
-90.3624
-103.282
-110.626
-115.123
-117.992
-119.934
-121.331
-122.39
-123.225
-123.9
-124.454
-124.912
-125.289
-125.594
-125.835
-126.017
-126.145
-126.222
-126.25
-126.233
-126.172
-126.069
-125.926
-125.744
-125.524
-125.268
-124.977
-124.652
-124.292
-123.9
-123.476
-123.02
-122.534
-122.017
-121.469
-120.893
-120.287
-119.653
-118.99
-118.299
-117.58
-116.833
-116.06
-115.259
-114.431
-113.577
-112.696
-111.789
-110.856
-109.896
-108.911
-107.901
-106.864
-105.802
-104.715
-103.602
-102.465
-101.302
-100.114
-98.901
-97.6634
-96.4009
-95.1138
-93.802
-92.4656
-91.1048
-89.7195
-88.3098
-86.8757
-85.4174
-83.9348
-82.4281
-80.8971
-79.342
-77.7627
-76.1593
-74.5318
-72.8803
-71.2046
-69.5049
-67.7812
-66.0335
-64.2618
-62.4662
-60.6466
-58.8032
-56.936
-55.0449
-53.13
-51.1914
-49.229
-47.243
-45.2332
-43.1999
-41.1429
-39.0623
-36.9582
-34.8306
-32.6794
-30.5048
-28.3068
-26.0853
-23.8405
-21.5724
-19.2809
-16.9661
-14.6281
-12.2669
-9.88254
-7.47501
-5.04436
-2.59062
-0.113827
2.386
4.90884
7.45465
10.0234
12.6152
15.2298
17.8673
20.5277
23.2109
25.9169
28.6458
31.3973
34.1716
36.9686
39.7882
42.6304
45.4953
48.3827
51.2926
54.225
57.1799
60.1573
63.157
66.1791
69.2235
72.2901
75.3791
78.4903
81.6236
84.7791
87.9567
91.1564
94.3781
97.6218
100.887
104.175
107.485
110.816
114.169
117.544
120.941
124.359
127.8
131.261
134.745
138.25
141.776
145.324
148.894
152.485
156.097
159.731
163.386
167.062
170.759
174.478
178.218
181.979
185.761
189.563
193.387
197.232
201.098
204.985
208.892
212.82
216.769
220.739
224.729
228.74
232.772
236.824
240.896
244.989
249.102
253.236
257.39
261.564
265.758
269.973
274.208
278.462
282.737
287.032
291.347
295.681
300.036
304.41
308.804
313.218
317.651
322.104
326.577
331.069
335.581
340.112
344.662
349.232
353.821
358.429
363.056
367.703
372.369
377.053
381.757
386.479
391.221
395.981
400.76
405.558
410.375
415.21
420.064
424.936
429.827
434.736
439.663
444.609
449.573
454.556
459.556
464.575
469.612
474.667
479.739
484.83
489.938
495.065
500.209
505.37
510.55
515.747
520.961
526.193
531.442
536.709
541.993
547.294
552.613
557.948
563.301
568.671
574.057
579.461
584.881
590.319
595.773
601.243
606.731
612.234
617.755
623.292
628.845
634.414
640
645.602
651.221
656.855
662.505
668.172
673.854
679.552
685.266
690.996
696.741
702.503
708.279
714.071
719.879
725.702
731.54
737.394
743.263
749.147
755.046
760.96
766.889
772.833
778.791
784.765
790.753
796.756
802.774
808.806
814.852
820.913
826.988
833.078
839.182
845.299
851.431
857.577
863.737
869.911
876.099
882.3
888.515
894.744
900.986
907.242
913.511
919.794
926.09
932.399
938.722
945.057
951.406
957.767
964.142
970.529
976.929
983.342
989.767
996.205
1002.66
1009.12
1015.59
1022.08
1028.58
1035.09
1041.62
1048.15
1054.7
1061.26
1067.84
1074.42
1081.01
1087.62
1094.24
1100.87
1107.51
1114.17
1120.83
1127.51
1134.19
1140.89
1147.6
1154.32
1161.05
1167.79
1174.54
1181.31
1188.08
1194.86
1201.66
1208.46
1215.28
1222.11
1228.94
1235.79
1242.64
1249.51
1256.38
1263.27
1270.17
1277.07
1283.99
1290.91
1297.84
1304.79
1311.74
1318.7
1325.67
1332.65
1339.64
1346.64
1353.65
1360.66
1367.69
1374.72
1381.76
1388.81
1395.87
1402.94
1410.01
1417.1
1424.19
1431.29
1438.4
1445.51
1452.64
1459.77
1466.91
1474.06
1481.21
1488.37
1495.54
1502.72
1509.9
1517.1
1524.29
1531.5
1538.71
1545.93
1553.16
1560.39
1567.63
1574.88
1582.13
1589.39
1596.66
1603.93
1611.21
1618.5
1625.79
1633.08
1640.39
1647.7
1655.01
1662.33
1669.66
1676.99
1684.33
1691.67
1699.02
1706.37
1713.73
1721.09
1728.46
1735.84
1743.21
1750.6
1757.99
1765.38
1772.78
1780.18
1787.59
1795
1802.41
1809.83
1817.26
1824.68
1832.11
1839.55
1846.99
1854.43
1861.88
1869.33
1876.78
1884.24
1891.7
1899.17
1906.63
1914.11
1921.58
1929.06
1936.54
1944.02
1951.5
1958.99
1966.48
1973.98
1981.47
1988.97
1996.47
2003.97
2011.48
2018.98
2026.49
2034
2041.52
2049.03
2056.55
2064.06
2071.58
2079.1
2086.63
2094.15
2101.68
2109.2
2116.73
2124.26
2131.79
2139.32
2146.85
2154.38
2161.91
2169.44
2176.98
2184.51
2192.04
2199.58
2207.11
2214.65
2222.18
2229.71
2237.25
2244.78
2252.32
2259.85
2267.38
2274.91
2282.45
2289.98
2297.51
2305.04
2312.57
2320.09
2327.62
2335.14
2342.67
2350.19
2357.71
2365.23
2372.75
2380.27
2387.78
2395.3
2402.81
2410.32
2417.83
2425.33
2432.84
2440.34
2447.84
2455.34
2462.83
2470.32
2477.81
2485.3
2492.78
2500.26
2507.74
2515.22
2522.69
2530.16
2537.62
2545.09
2552.55
2560
2567.45
2574.9
2582.35
2589.79
2597.23
2604.66
2612.09
2619.52
2626.94
2634.36
2641.77
2649.18
2656.58
2663.98
2671.38
2678.77
2686.16
2693.54
2700.91
2708.29
2715.65
2723.01
2730.37
2737.72
2745.07
2752.41
2759.74
2767.07
2774.4
2781.72
2789.03
2796.34
2803.64
2810.93
2818.22
2825.5
2832.78
2840.05
2847.31
2854.57
2861.82
2869.07
2876.3
2883.54
2890.76
2897.98
2905.19
2912.39
2919.59
2926.78
2933.96
2941.13
2948.3
2955.46
2962.61
2969.76
2976.9
2984.03
2991.15
2998.26
3005.37
3012.47
3019.56
3026.64
3033.71
3040.78
3047.83
3054.88
3061.92
3068.95
3075.97
3082.99
3089.99
3096.99
3103.98
3110.96
3117.92
3124.88
3131.83
3138.78
3145.71
3152.63
3159.54
3166.45
3173.34
3180.23
3187.1
3193.96
3200.82
3207.66
3214.5
3221.32
3228.14
3234.94
3241.73
3248.52
3255.29
3262.05
3268.8
3275.54
3282.27
3288.99
3295.7
3302.4
3309.09
3315.76
3322.42
3329.08
3335.72
3342.35
3348.97
3355.57
3362.17
3368.75
3375.33
3381.89
3388.44
3394.97
3401.5
3408.01
3414.51
3421
3427.48
3433.94
3440.39
3446.83
3453.26
3459.67
3466.07
3472.46
3478.84
3485.2
3491.55
3497.89
3504.21
3510.53
3516.82
3523.11
3529.38
3535.64
3541.88
3548.12
3554.33
3560.54
3566.73
3572.91
3579.07
3585.22
3591.35
3597.48
3603.58
3609.68
3615.76
3621.82
3627.87
3633.91
3639.93
3645.94
3651.93
3657.91
3663.88
3669.82
3675.76
3681.68
3687.58
3693.47
3699.35
3705.21
3711.05
3716.88
3722.7
3728.5
3734.28
3740.05
3745.8
3751.54
3757.26
3762.97
3768.66
3774.33
3779.99
3785.63
3791.26
3796.87
3802.46
3808.04
3813.61
3819.15
3824.68
3830.2
3835.69
3841.17
3846.64
3852.09
3857.52
3862.93
3868.33
3873.71
3879.08
3884.42
3889.75
3895.07
3900.36
3905.64
3910.9
3916.15
3921.38
3926.59
3931.78
3936.96
3942.11
3947.25
3952.38
3957.48
3962.57
3967.64
3972.69
3977.73
3982.74
3987.74
3992.72
3997.68
4002.63
4007.55
4012.46
4017.35
4022.22
4027.08
4031.91
4036.73
4041.53
4046.3
4051.06
4055.81
4060.53
4065.23
4069.92
4074.59
4079.23
4083.86
4088.47
4093.06
4097.64
4102.19
4106.72
4111.24
4115.73
4120.21
4124.66
4129.1
4133.52
4137.92
4142.3
4146.65
4150.99
4155.31
4159.61
4163.89
4168.15
4172.39
4176.62
4180.82
4185
4189.16
4193.3
4197.42
4201.52
4205.6
4209.66
4213.7
4217.72
4221.72
4225.7
4229.65
4233.59
4237.51
4241.41
4245.28
4249.14
4252.97
4256.79
4260.58
4264.35
4268.1
4271.83
4275.54
4279.23
4282.9
4286.55
4290.17
4293.78
4297.36
4300.92
4304.46
4307.98
4311.48
4314.96
4318.41
4321.85
4325.26
4328.65
4332.02
4335.37
4338.7
4342
4345.29
4348.55
4351.79
4355.01
4358.2
4361.38
4364.53
4367.66
4370.77
4373.86
4376.92
4379.96
4382.99
4385.98
4388.96
4391.92
4394.85
4397.76
4400.65
4403.51
4406.36
4409.18
4411.98
4414.75
4417.51
4420.24
4422.95
4425.63
4428.3
4430.94
4433.56
4436.15
4438.73
4441.28
4443.8
4446.31
4448.79
4451.25
4453.69
4456.1
4458.49
4460.86
4463.21
4465.53
4467.83
4470.11
4472.36
4474.59
4476.8
4478.98
4481.14
4483.28
4485.4
4487.49
4489.56
4491.6
4493.63
4495.62
4497.6
4499.55
4501.48
4503.39
4505.27
4507.13
4508.96
4510.77
4512.56
4514.33
4516.07
4517.79
4519.48
4521.15
4522.8
4524.42
4526.02
4527.6
4529.15
4530.68
4532.18
4533.67
4535.12
4536.56
4537.97
4539.35
4540.72
4542.06
4543.37
4544.66
4545.93
4547.17
4548.39
4549.59
4550.76
4551.91
4553.03
4554.13
4555.21
4556.26
4557.29
4558.29
4559.27
4560.23
4561.16
4562.07
4562.95
4563.81
4564.64
4565.45
4566.24
4567
4567.74
4568.46
4569.15
4569.81
4570.45
4571.07
4571.66
4572.23
4572.78
4573.3
4573.79
4574.26
4574.71
4575.13
4575.53
4575.9
4576.25
4576.57
4576.87
4577.15
4577.39
4577.62
4577.82
4577.99
4578.14
4578.27
4578.37
4578.44
4578.49
4578.51
4578.51
4578.48
4578.43
4578.35
4578.24
4578.11
4577.94
4577.75
4577.53
4577.26
-59.2833
-79.4952
-94.3044
-103.72
-109.947
-114.192
-117.149
-119.27
-120.844
-122.049
-122.998
-123.76
-124.381
-124.889
-125.303
-125.638
-125.902
-126.103
-126.245
-126.334
-126.373
-126.364
-126.31
-126.213
-126.075
-125.897
-125.682
-125.43
-125.142
-124.819
-124.462
-124.072
-123.65
-123.196
-122.711
-122.195
-121.65
-121.074
-120.469
-119.836
-119.174
-118.484
-117.766
-117.02
-116.247
-115.447
-114.62
-113.766
-112.886
-111.979
-111.046
-110.088
-109.103
-108.092
-107.056
-105.995
-104.908
-103.795
-102.658
-101.495
-100.308
-99.0949
-97.8574
-96.5952
-95.3082
-93.9966
-92.6604
-91.2996
-89.9145
-88.5049
-87.0709
-85.6127
-84.1302
-82.6235
-81.0925
-79.5374
-77.9582
-76.3548
-74.7274
-73.0758
-71.4002
-69.7005
-67.9768
-66.2291
-64.4575
-62.6619
-60.8423
-58.999
-57.1317
-55.2407
-53.3258
-51.3872
-49.4249
-47.4389
-45.4292
-43.3959
-41.3389
-39.2584
-37.1543
-35.0267
-32.8756
-30.701
-28.503
-26.2816
-24.0368
-21.7687
-19.4773
-17.1626
-14.8246
-12.4634
-10.0791
-7.67158
-5.24096
-2.78725
-0.310474
2.18934
4.71215
7.25796
9.82673
12.4184
15.033
17.6706
20.3309
23.0141
25.7201
28.4489
31.2005
33.9747
36.7717
39.5913
42.4335
45.2983
48.1857
51.0956
54.028
56.9829
59.9602
62.9599
65.9819
69.0263
72.093
75.1819
78.293
81.4263
84.5818
87.7594
90.959
94.1807
97.4244
100.69
103.978
107.287
110.618
113.972
117.347
120.743
124.162
127.602
131.064
134.547
138.052
141.579
145.127
148.696
152.287
155.899
159.533
163.188
166.864
170.561
174.28
178.02
181.781
185.562
189.365
193.189
197.034
200.9
204.787
208.694
212.622
216.571
220.541
224.531
228.542
232.573
236.625
240.698
244.79
248.904
253.037
257.191
261.365
265.56
269.774
274.009
278.264
282.539
286.833
291.148
295.483
299.837
304.211
308.606
313.019
317.453
321.906
326.378
330.87
335.382
339.913
344.463
349.033
353.622
358.23
362.857
367.504
372.17
376.854
381.558
386.28
391.022
395.782
400.561
405.359
410.175
415.011
419.864
424.737
429.627
434.536
439.464
444.41
449.374
454.356
459.357
464.376
469.412
474.467
479.54
484.63
489.739
494.865
500.009
505.171
510.35
515.547
520.761
525.993
531.243
536.509
541.793
547.094
552.413
557.748
563.101
568.471
573.857
579.261
584.681
590.119
595.572
601.043
606.53
612.034
617.555
623.091
628.645
634.214
639.8
645.402
651.02
656.655
662.305
667.971
673.654
679.352
685.066
690.795
696.541
702.302
708.079
713.871
719.678
725.501
731.34
737.193
743.062
748.946
754.845
760.759
766.688
772.632
778.591
784.564
790.552
796.555
802.573
808.605
814.651
820.712
826.787
832.877
838.98
845.098
851.23
857.376
863.536
869.71
875.897
882.099
888.314
894.543
900.785
907.041
913.31
919.593
925.889
932.198
938.52
944.856
951.204
957.566
963.94
970.327
976.727
983.14
989.566
996.004
1002.45
1008.92
1015.39
1021.88
1028.38
1034.89
1041.42
1047.95
1054.5
1061.06
1067.63
1074.22
1080.81
1087.42
1094.04
1100.67
1107.31
1113.96
1120.63
1127.3
1133.99
1140.69
1147.4
1154.12
1160.85
1167.59
1174.34
1181.1
1187.88
1194.66
1201.46
1208.26
1215.08
1221.9
1228.74
1235.58
1242.44
1249.31
1256.18
1263.07
1269.96
1276.87
1283.78
1290.71
1297.64
1304.58
1311.54
1318.5
1325.47
1332.45
1339.44
1346.44
1353.44
1360.46
1367.48
1374.52
1381.56
1388.61
1395.67
1402.73
1409.81
1416.89
1423.99
1431.09
1438.19
1445.31
1452.43
1459.57
1466.7
1473.85
1481.01
1488.17
1495.34
1502.52
1509.7
1516.89
1524.09
1531.3
1538.51
1545.73
1552.96
1560.19
1567.43
1574.68
1581.93
1589.19
1596.46
1603.73
1611.01
1618.29
1625.58
1632.88
1640.18
1647.49
1654.81
1662.13
1669.45
1676.79
1684.12
1691.47
1698.81
1706.17
1713.53
1720.89
1728.26
1735.63
1743.01
1750.39
1757.78
1765.18
1772.57
1779.97
1787.38
1794.79
1802.21
1809.63
1817.05
1824.48
1831.91
1839.35
1846.78
1854.23
1861.67
1869.13
1876.58
1884.04
1891.5
1898.96
1906.43
1913.9
1921.37
1928.85
1936.33
1943.81
1951.3
1958.79
1966.28
1973.77
1981.27
1988.76
1996.26
2003.77
2011.27
2018.78
2026.29
2033.8
2041.31
2048.83
2056.34
2063.86
2071.38
2078.9
2086.42
2093.95
2101.47
2109
2116.52
2124.05
2131.58
2139.11
2146.64
2154.17
2161.7
2169.24
2176.77
2184.3
2191.84
2199.37
2206.91
2214.44
2221.97
2229.51
2237.04
2244.58
2252.11
2259.64
2267.18
2274.71
2282.24
2289.77
2297.3
2304.83
2312.36
2319.89
2327.41
2334.94
2342.46
2349.99
2357.51
2365.03
2372.55
2380.06
2387.58
2395.09
2402.6
2410.11
2417.62
2425.13
2432.63
2440.13
2447.63
2455.13
2462.62
2470.11
2477.6
2485.09
2492.57
2500.06
2507.53
2515.01
2522.48
2529.95
2537.42
2544.88
2552.34
2559.79
2567.25
2574.7
2582.14
2589.58
2597.02
2604.45
2611.88
2619.31
2626.73
2634.15
2641.56
2648.97
2656.38
2663.78
2671.17
2678.56
2685.95
2693.33
2700.71
2708.08
2715.45
2722.81
2730.16
2737.51
2744.86
2752.2
2759.54
2766.87
2774.19
2781.51
2788.82
2796.13
2803.43
2810.72
2818.01
2825.29
2832.57
2839.84
2847.11
2854.36
2861.61
2868.86
2876.1
2883.33
2890.55
2897.77
2904.98
2912.18
2919.38
2926.57
2933.75
2940.93
2948.09
2955.25
2962.41
2969.55
2976.69
2983.82
2990.94
2998.05
3005.16
3012.26
3019.35
3026.43
3033.5
3040.57
3047.62
3054.67
3061.71
3068.74
3075.77
3082.78
3089.78
3096.78
3103.77
3110.75
3117.71
3124.67
3131.63
3138.57
3145.5
3152.42
3159.33
3166.24
3173.13
3180.02
3186.89
3193.75
3200.61
3207.45
3214.29
3221.11
3227.93
3234.73
3241.52
3248.31
3255.08
3261.84
3268.59
3275.33
3282.06
3288.78
3295.49
3302.19
3308.87
3315.55
3322.21
3328.87
3335.51
3342.14
3348.76
3355.36
3361.96
3368.54
3375.12
3381.68
3388.23
3394.76
3401.29
3407.8
3414.3
3420.79
3427.27
3433.73
3440.18
3446.62
3453.05
3459.46
3465.86
3472.25
3478.63
3484.99
3491.34
3497.68
3504
3510.31
3516.61
3522.9
3529.17
3535.43
3541.67
3547.9
3554.12
3560.33
3566.52
3572.69
3578.86
3585.01
3591.14
3597.26
3603.37
3609.47
3615.54
3621.61
3627.66
3633.7
3639.72
3645.73
3651.72
3657.7
3663.66
3669.61
3675.55
3681.47
3687.37
3693.26
3699.14
3705
3710.84
3716.67
3722.48
3728.28
3734.07
3739.83
3745.59
3751.32
3757.05
3762.75
3768.44
3774.12
3779.78
3785.42
3791.05
3796.66
3802.25
3807.83
3813.39
3818.94
3824.47
3829.98
3835.48
3840.96
3846.43
3851.87
3857.3
3862.72
3868.12
3873.5
3878.86
3884.21
3889.54
3894.85
3900.15
3905.43
3910.69
3915.94
3921.16
3926.37
3931.57
3936.74
3941.9
3947.04
3952.16
3957.27
3962.36
3967.43
3972.48
3977.51
3982.53
3987.53
3992.51
3997.47
4002.41
4007.34
4012.25
4017.14
4022.01
4026.86
4031.7
4036.51
4041.31
4046.09
4050.85
4055.59
4060.31
4065.02
4069.7
4074.37
4079.02
4083.65
4088.26
4092.85
4097.42
4101.97
4106.51
4111.02
4115.52
4119.99
4124.45
4128.89
4133.3
4137.7
4142.08
4146.44
4150.78
4155.1
4159.4
4163.68
4167.94
4172.18
4176.4
4180.6
4184.78
4188.94
4193.08
4197.2
4201.3
4205.38
4209.44
4213.48
4217.5
4221.5
4225.48
4229.44
4233.38
4237.29
4241.19
4245.06
4248.92
4252.75
4256.57
4260.36
4264.13
4267.89
4271.62
4275.33
4279.01
4282.68
4286.33
4289.95
4293.56
4297.14
4300.7
4304.25
4307.77
4311.26
4314.74
4318.2
4321.63
4325.04
4328.43
4331.8
4335.15
4338.48
4341.78
4345.07
4348.33
4351.57
4354.79
4357.98
4361.16
4364.31
4367.44
4370.55
4373.64
4376.7
4379.75
4382.77
4385.77
4388.74
4391.7
4394.63
4397.54
4400.43
4403.29
4406.14
4408.96
4411.76
4414.53
4417.29
4420.02
4422.73
4425.41
4428.08
4430.72
4433.34
4435.93
4438.51
4441.06
4443.59
4446.09
4448.57
4451.03
4453.47
4455.88
4458.28
4460.64
4462.99
4465.31
4467.61
4469.89
4472.14
4474.37
4476.58
4478.76
4480.92
4483.06
4485.18
4487.27
4489.34
4491.38
4493.41
4495.4
4497.38
4499.33
4501.26
4503.17
4505.05
4506.91
4508.74
4510.55
4512.34
4514.11
4515.85
4517.57
4519.26
4520.93
4522.58
4524.2
4525.8
4527.38
4528.93
4530.46
4531.96
4533.45
4534.9
4536.34
4537.75
4539.13
4540.5
4541.84
4543.15
4544.44
4545.71
4546.95
4548.17
4549.37
4550.54
4551.69
4552.81
4553.91
4554.99
4556.04
4557.07
4558.07
4559.05
4560
4560.94
4561.84
4562.73
4563.59
4564.42
4565.23
4566.02
4566.78
4567.52
4568.23
4568.92
4569.59
4570.23
4570.85
4571.44
4572.01
4572.55
4573.07
4573.57
4574.04
4574.48
4574.91
4575.3
4575.68
4576.02
4576.35
4576.65
4576.92
4577.17
4577.39
4577.59
4577.77
4577.92
4578.04
4578.14
4578.22
4578.26
4578.29
4578.28
4578.26
4578.2
4578.12
4578.01
4577.88
4577.71
4577.52
4577.31
4577.04
-82.7159
-90.2529
-98.061
-104.737
-109.931
-113.829
-116.733
-118.914
-120.579
-121.873
-122.898
-123.722
-124.391
-124.937
-125.381
-125.738
-126.021
-126.236
-126.391
-126.489
-126.536
-126.534
-126.485
-126.393
-126.26
-126.086
-125.874
-125.624
-125.339
-125.018
-124.664
-124.276
-123.855
-123.403
-122.919
-122.405
-121.86
-121.286
-120.682
-120.049
-119.388
-118.699
-117.981
-117.236
-116.464
-115.664
-114.838
-113.984
-113.104
-112.198
-111.266
-110.307
-109.323
-108.313
-107.277
-106.216
-105.129
-104.017
-102.88
-101.717
-100.53
-99.3173
-98.08
-96.8179
-95.5311
-94.2196
-92.8835
-91.5229
-90.1378
-88.7283
-87.2944
-85.8362
-84.3537
-82.847
-81.3161
-79.761
-78.1818
-76.5784
-74.9509
-73.2994
-71.6237
-69.924
-68.2003
-66.4526
-64.681
-62.8854
-61.0659
-59.2225
-57.3553
-55.4642
-53.5494
-51.6108
-49.6485
-47.6625
-45.6529
-43.6195
-41.5626
-39.4821
-37.3781
-35.2505
-33.0994
-30.9249
-28.7269
-26.5055
-24.2608
-21.9927
-19.7013
-17.3866
-15.0487
-12.6875
-10.3032
-7.89569
-5.46509
-3.01139
-0.534623
1.96518
4.48799
7.0338
9.60256
12.1943
14.8089
17.4464
20.1067
22.7899
25.496
28.2247
30.9763
33.7505
36.5474
39.367
42.2092
45.074
47.9614
50.8713
53.8037
56.7585
59.7358
62.7354
65.7575
68.8018
71.8684
74.9573
78.0684
81.2017
84.3572
87.5347
90.7344
93.956
97.1997
100.465
103.753
107.062
110.394
113.747
117.122
120.519
123.937
127.377
130.839
134.322
137.827
141.354
144.902
148.471
152.062
155.674
159.308
162.963
166.639
170.336
174.055
177.795
181.555
185.337
189.14
192.964
196.809
200.675
204.561
208.469
212.397
216.346
220.315
224.305
228.316
232.348
236.4
240.472
244.565
248.678
252.812
256.966
261.14
265.334
269.549
273.783
278.038
282.313
286.607
290.922
295.257
299.611
303.985
308.379
312.793
317.227
321.679
326.152
330.644
335.156
339.687
344.237
348.807
353.395
358.004
362.631
367.277
371.943
376.628
381.331
386.054
390.795
395.555
400.334
405.132
409.949
414.784
419.638
424.51
429.4
434.31
439.237
444.183
449.147
454.129
459.13
464.149
469.185
474.24
479.313
484.403
489.512
494.638
499.782
504.943
510.123
515.32
520.534
525.766
531.015
536.282
541.566
546.867
552.185
557.521
562.873
568.243
573.63
579.033
584.453
589.891
595.345
600.815
606.302
611.806
617.327
622.863
628.417
633.986
639.572
645.174
650.792
656.426
662.077
667.743
673.425
679.123
684.837
690.567
696.312
702.073
707.85
713.642
719.45
725.273
731.111
736.964
742.833
748.717
754.616
760.53
766.459
772.403
778.362
784.335
790.323
796.326
802.344
808.376
814.422
820.483
826.558
832.647
838.751
844.869
851.001
857.147
863.307
869.48
875.668
881.869
888.084
894.313
900.555
906.811
913.08
919.363
925.659
931.968
938.29
944.626
950.974
957.336
963.71
970.097
976.497
982.91
989.335
995.773
1002.22
1008.69
1015.16
1021.65
1028.15
1034.66
1041.19
1047.72
1054.27
1060.83
1067.4
1073.99
1080.58
1087.19
1093.81
1100.44
1107.08
1113.73
1120.4
1127.07
1133.76
1140.46
1147.17
1153.89
1160.62
1167.36
1174.11
1180.87
1187.65
1194.43
1201.23
1208.03
1214.85
1221.67
1228.51
1235.35
1242.21
1249.07
1255.95
1262.84
1269.73
1276.64
1283.55
1290.47
1297.41
1304.35
1311.3
1318.27
1325.24
1332.22
1339.21
1346.2
1353.21
1360.23
1367.25
1374.28
1381.33
1388.38
1395.43
1402.5
1409.58
1416.66
1423.75
1430.85
1437.96
1445.08
1452.2
1459.33
1466.47
1473.62
1480.77
1487.94
1495.11
1502.28
1509.47
1516.66
1523.86
1531.06
1538.28
1545.5
1552.72
1559.96
1567.2
1574.44
1581.7
1588.96
1596.22
1603.49
1610.77
1618.06
1625.35
1632.65
1639.95
1647.26
1654.57
1661.89
1669.22
1676.55
1683.89
1691.23
1698.58
1705.93
1713.29
1720.65
1728.02
1735.4
1742.78
1750.16
1757.55
1764.94
1772.34
1779.74
1787.15
1794.56
1801.97
1809.39
1816.82
1824.24
1831.67
1839.11
1846.55
1853.99
1861.44
1868.89
1876.34
1883.8
1891.26
1898.73
1906.19
1913.66
1921.14
1928.61
1936.09
1943.58
1951.06
1958.55
1966.04
1973.53
1981.03
1988.53
1996.03
2003.53
2011.04
2018.54
2026.05
2033.56
2041.07
2048.59
2056.1
2063.62
2071.14
2078.66
2086.18
2093.71
2101.23
2108.76
2116.29
2123.81
2131.34
2138.87
2146.4
2153.93
2161.47
2169
2176.53
2184.07
2191.6
2199.13
2206.67
2214.2
2221.74
2229.27
2236.8
2244.34
2251.87
2259.41
2266.94
2274.47
2282
2289.53
2297.06
2304.59
2312.12
2319.65
2327.17
2334.7
2342.22
2349.75
2357.27
2364.79
2372.31
2379.82
2387.34
2394.85
2402.36
2409.87
2417.38
2424.89
2432.39
2439.89
2447.39
2454.89
2462.38
2469.88
2477.37
2484.85
2492.34
2499.82
2507.29
2514.77
2522.24
2529.71
2537.18
2544.64
2552.1
2559.56
2567.01
2574.46
2581.9
2589.34
2596.78
2604.21
2611.64
2619.07
2626.49
2633.91
2641.32
2648.73
2656.14
2663.54
2670.93
2678.32
2685.71
2693.09
2700.47
2707.84
2715.2
2722.57
2729.92
2737.27
2744.62
2751.96
2759.3
2766.62
2773.95
2781.27
2788.58
2795.89
2803.19
2810.48
2817.77
2825.05
2832.33
2839.6
2846.86
2854.12
2861.37
2868.62
2875.85
2883.09
2890.31
2897.53
2904.74
2911.94
2919.14
2926.33
2933.51
2940.68
2947.85
2955.01
2962.16
2969.31
2976.45
2983.58
2990.7
2997.81
3004.92
3012.01
3019.1
3026.19
3033.26
3040.32
3047.38
3054.43
3061.47
3068.5
3075.52
3082.54
3089.54
3096.54
3103.52
3110.5
3117.47
3124.43
3131.38
3138.32
3145.26
3152.18
3159.09
3165.99
3172.89
3179.77
3186.65
3193.51
3200.37
3207.21
3214.04
3220.87
3227.68
3234.49
3241.28
3248.06
3254.84
3261.6
3268.35
3275.09
3281.82
3288.54
3295.25
3301.94
3308.63
3315.31
3321.97
3328.62
3335.26
3341.89
3348.51
3355.12
3361.72
3368.3
3374.87
3381.43
3387.98
3394.52
3401.04
3407.55
3414.06
3420.54
3427.02
3433.48
3439.94
3446.37
3452.8
3459.22
3465.62
3472.01
3478.38
3484.75
3491.1
3497.43
3503.76
3510.07
3516.37
3522.65
3528.92
3535.18
3541.43
3547.66
3553.88
3560.08
3566.27
3572.45
3578.61
3584.76
3590.9
3597.02
3603.13
3609.22
3615.3
3621.36
3627.41
3633.45
3639.47
3645.48
3651.47
3657.45
3663.42
3669.37
3675.3
3681.22
3687.12
3693.01
3698.89
3704.75
3710.59
3716.42
3722.24
3728.04
3733.82
3739.59
3745.34
3751.08
3756.8
3762.51
3768.2
3773.87
3779.53
3785.17
3790.8
3796.41
3802
3807.58
3813.15
3818.69
3824.22
3829.74
3835.23
3840.71
3846.18
3851.63
3857.06
3862.47
3867.87
3873.25
3878.61
3883.96
3889.29
3894.61
3899.9
3905.18
3910.44
3915.69
3920.92
3926.13
3931.32
3936.49
3941.65
3946.79
3951.92
3957.02
3962.11
3967.18
3972.23
3977.26
3982.28
3987.28
3992.26
3997.22
4002.17
4007.09
4012
4016.89
4021.76
4026.61
4031.45
4036.26
4041.06
4045.84
4050.6
4055.34
4060.07
4064.77
4069.46
4074.12
4078.77
4083.4
4088.01
4092.6
4097.17
4101.72
4106.26
4110.77
4115.27
4119.74
4124.2
4128.64
4133.05
4137.45
4141.83
4146.19
4150.53
4154.85
4159.15
4163.43
4167.69
4171.93
4176.15
4180.35
4184.53
4188.69
4192.83
4196.95
4201.05
4205.13
4209.19
4213.23
4217.25
4221.25
4225.23
4229.19
4233.13
4237.04
4240.94
4244.81
4248.67
4252.5
4256.32
4260.11
4263.88
4267.64
4271.37
4275.08
4278.76
4282.43
4286.08
4289.7
4293.31
4296.89
4300.45
4303.99
4307.51
4311.01
4314.49
4317.95
4321.38
4324.79
4328.18
4331.55
4334.9
4338.23
4341.53
4344.82
4348.08
4351.32
4354.54
4357.73
4360.91
4364.06
4367.19
4370.3
4373.39
4376.45
4379.5
4382.52
4385.51
4388.49
4391.45
4394.38
4397.29
4400.18
4403.04
4405.89
4408.71
4411.51
4414.28
4417.04
4419.77
4422.48
4425.16
4427.83
4430.47
4433.09
4435.68
4438.26
4440.81
4443.33
4445.84
4448.32
4450.78
4453.22
4455.63
4458.02
4460.39
4462.74
4465.06
4467.36
4469.64
4471.89
4474.12
4476.33
4478.51
4480.67
4482.81
4484.93
4487.02
4489.09
4491.13
4493.15
4495.15
4497.13
4499.08
4501.01
4502.91
4504.8
4506.65
4508.49
4510.3
4512.09
4513.85
4515.6
4517.31
4519.01
4520.68
4522.33
4523.95
4525.55
4527.13
4528.68
4530.21
4531.71
4533.19
4534.65
4536.08
4537.49
4538.88
4540.24
4541.58
4542.9
4544.19
4545.46
4546.7
4547.92
4549.11
4550.29
4551.43
4552.56
4553.66
4554.73
4555.79
4556.81
4557.82
4558.8
4559.75
4560.68
4561.59
4562.47
4563.33
4564.17
4564.98
4565.77
4566.53
4567.27
4567.98
4568.67
4569.34
4569.98
4570.59
4571.19
4571.76
4572.3
4572.82
4573.31
4573.78
4574.23
4574.65
4575.05
4575.42
4575.77
4576.09
4576.39
4576.67
4576.92
4577.14
4577.34
4577.51
4577.66
4577.79
4577.89
4577.96
4578.01
4578.03
4578.03
4578
4577.95
4577.86
4577.76
4577.62
4577.46
4577.27
4577.06
4576.8
-94.5571
-97.9613
-102.342
-106.922
-110.967
-114.276
-116.902
-118.97
-120.603
-121.901
-122.945
-123.79
-124.48
-125.044
-125.503
-125.873
-126.166
-126.389
-126.55
-126.654
-126.705
-126.706
-126.661
-126.572
-126.441
-126.269
-126.058
-125.81
-125.526
-125.207
-124.853
-124.466
-124.046
-123.595
-123.112
-122.598
-122.054
-121.48
-120.876
-120.244
-119.583
-118.894
-118.177
-117.432
-116.66
-115.861
-115.034
-114.181
-113.302
-112.396
-111.463
-110.505
-109.521
-108.511
-107.475
-106.414
-105.327
-104.215
-103.078
-101.916
-100.728
-99.5161
-98.2789
-97.0168
-95.7301
-94.4186
-93.0826
-91.722
-90.3369
-88.9274
-87.4935
-86.0353
-84.5528
-83.0461
-81.5151
-79.96
-78.3807
-76.7773
-75.1497
-73.4981
-71.8224
-70.1227
-68.3989
-66.6512
-64.8795
-63.0839
-61.2643
-59.4209
-57.5537
-55.6626
-53.7478
-51.8092
-49.8469
-47.8609
-45.8512
-43.8179
-41.761
-39.6804
-37.5764
-35.4488
-33.2977
-31.1232
-28.9253
-26.7039
-24.4591
-22.1911
-19.8997
-17.585
-15.2471
-12.8859
-10.5016
-8.09409
-5.66348
-3.20977
-0.732994
1.76682
4.28965
6.83547
9.40425
11.996
14.6106
17.2481
19.9085
22.5917
25.2977
28.0265
30.778
33.5523
36.3492
39.1688
42.011
44.8758
47.7632
50.6731
53.6054
56.5603
59.5375
62.5372
65.5592
68.6036
71.6702
74.7591
77.8702
81.0035
84.1589
87.3364
90.5361
93.7577
97.0014
100.267
103.555
106.864
110.195
113.549
116.923
120.32
123.739
127.179
130.641
134.124
137.629
141.155
144.703
148.273
151.864
155.476
159.109
162.764
166.44
170.138
173.856
177.596
181.357
185.139
188.942
192.766
196.61
200.476
204.363
208.27
212.198
216.147
220.117
224.107
228.118
232.149
236.201
240.273
244.366
248.48
252.613
256.767
260.941
265.135
269.35
273.585
277.839
282.114
286.409
290.724
295.058
299.413
303.787
308.181
312.594
317.028
321.481
325.953
330.445
334.957
339.488
344.038
348.608
353.197
357.805
362.432
367.079
371.744
376.429
381.132
385.855
390.596
395.357
400.136
404.933
409.75
414.585
419.439
424.311
429.201
434.111
439.038
443.984
448.948
453.93
458.931
463.949
468.986
474.041
479.114
484.204
489.312
494.439
499.583
504.744
509.924
515.12
520.335
525.567
530.816
536.082
541.366
546.668
551.986
557.321
562.674
568.044
573.43
578.834
584.254
589.691
595.145
600.616
606.103
611.607
617.127
622.664
628.217
633.786
639.372
644.974
650.592
656.227
661.877
667.543
673.226
678.924
684.638
690.367
696.113
701.874
707.65
713.442
719.25
725.073
730.911
736.765
742.633
748.517
754.416
760.33
766.259
772.203
778.162
784.135
790.123
796.126
802.144
808.176
814.222
820.283
826.358
832.447
838.551
844.669
850.801
856.946
863.106
869.28
875.468
881.669
887.884
894.113
900.355
906.611
912.88
919.162
925.458
931.767
938.09
944.425
950.774
957.135
963.509
969.897
976.297
982.709
989.135
995.573
1002.02
1008.49
1014.96
1021.45
1027.95
1034.46
1040.99
1047.52
1054.07
1060.63
1067.2
1073.79
1080.38
1086.99
1093.61
1100.24
1106.88
1113.53
1120.2
1126.87
1133.56
1140.26
1146.97
1153.68
1160.42
1167.16
1173.91
1180.67
1187.45
1194.23
1201.02
1207.83
1214.64
1221.47
1228.31
1235.15
1242.01
1248.87
1255.75
1262.63
1269.53
1276.43
1283.35
1290.27
1297.21
1304.15
1311.1
1318.06
1325.03
1332.01
1339
1346
1353.01
1360.02
1367.05
1374.08
1381.12
1388.17
1395.23
1402.3
1409.38
1416.46
1423.55
1430.65
1437.76
1444.87
1452
1459.13
1466.27
1473.42
1480.57
1487.73
1494.9
1502.08
1509.26
1516.46
1523.66
1530.86
1538.07
1545.29
1552.52
1559.75
1566.99
1574.24
1581.49
1588.75
1596.02
1603.29
1610.57
1617.86
1625.15
1632.44
1639.75
1647.06
1654.37
1661.69
1669.02
1676.35
1683.69
1691.03
1698.38
1705.73
1713.09
1720.45
1727.82
1735.19
1742.57
1749.96
1757.34
1764.74
1772.13
1779.54
1786.94
1794.35
1801.77
1809.19
1816.61
1824.04
1831.47
1838.91
1846.35
1853.79
1861.24
1868.69
1876.14
1883.6
1891.06
1898.52
1905.99
1913.46
1920.93
1928.41
1935.89
1943.37
1950.86
1958.35
1965.84
1973.33
1980.83
1988.32
1995.82
2003.33
2010.83
2018.34
2025.85
2033.36
2040.87
2048.38
2055.9
2063.42
2070.94
2078.46
2085.98
2093.5
2101.03
2108.55
2116.08
2123.61
2131.14
2138.67
2146.2
2153.73
2161.26
2168.79
2176.33
2183.86
2191.4
2198.93
2206.46
2214
2221.53
2229.07
2236.6
2244.13
2251.67
2259.2
2266.73
2274.27
2281.8
2289.33
2296.86
2304.39
2311.92
2319.44
2326.97
2334.5
2342.02
2349.54
2357.06
2364.58
2372.1
2379.62
2387.13
2394.65
2402.16
2409.67
2417.18
2424.68
2432.19
2439.69
2447.19
2454.68
2462.18
2469.67
2477.16
2484.65
2492.13
2499.61
2507.09
2514.56
2522.04
2529.51
2536.97
2544.43
2551.89
2559.35
2566.8
2574.25
2581.7
2589.14
2596.57
2604.01
2611.44
2618.86
2626.29
2633.7
2641.12
2648.53
2655.93
2663.33
2670.73
2678.12
2685.5
2692.88
2700.26
2707.63
2715
2722.36
2729.72
2737.07
2744.41
2751.75
2759.09
2766.42
2773.74
2781.06
2788.37
2795.68
2802.98
2810.28
2817.56
2824.85
2832.12
2839.39
2846.66
2853.91
2861.17
2868.41
2875.65
2882.88
2890.1
2897.32
2904.53
2911.73
2918.93
2926.12
2933.3
2940.48
2947.64
2954.8
2961.96
2969.1
2976.24
2983.37
2990.49
2997.6
3004.71
3011.81
3018.9
3025.98
3033.05
3040.12
3047.17
3054.22
3061.26
3068.29
3075.32
3082.33
3089.33
3096.33
3103.32
3110.3
3117.26
3124.22
3131.17
3138.12
3145.05
3151.97
3158.88
3165.79
3172.68
3179.56