/*--------------------------------*- C++ -*----------------------------------*\
| =========                 |                                                 |
| \\      /  F ield         | OpenFOAM: The Open Source CFD Toolbox           |
|  \\    /   O peration     | Version:  2512                                  |
|   \\  /    A nd           | Website:  www.openfoam.com                      |
|    \\/     M anipulation  |                                                 |
\*---------------------------------------------------------------------------*/
FoamFile
{
    version     2.0;
    format      ascii;
    arch        "LSB;label=32;scalar=64";
    class       volScalarField;
    location    "0.004";
    object      p_rgh;
}
// * * * * * * * * * * * * * * * * * * * * * * * * * * * * * * * * * * * * * //

dimensions      [1 -1 -2 0 0 0 0];

internalField   nonuniform List<scalar> 
100000
(
5159.85
5097.5
5069.48
5056.56
5049.22
5044.72
5041.85
5039.91
5038.51
5037.45
5036.62
5035.95
5035.39
5034.93
5034.56
5034.25
5034.01
5033.83
5033.7
5033.62
5033.59
5033.61
5033.67
5033.78
5033.92
5034.1
5034.32
5034.58
5034.87
5035.19
5035.55
5035.94
5036.37
5036.82
5037.31
5037.83
5038.38
5038.95
5039.56
5040.19
5040.86
5041.55
5042.27
5043.01
5043.79
5044.59
5045.41
5046.27
5047.15
5048.06
5048.99
5049.95
5050.93
5051.94
5052.98
5054.04
5055.13
5056.24
5057.38
5058.54
5059.73
5060.94
5062.18
5063.44
5064.73
5066.04
5067.38
5068.74
5070.13
5071.54
5072.97
5074.43
5075.91
5077.42
5078.95
5080.5
5082.08
5083.69
5085.31
5086.97
5088.64
5090.34
5092.06
5093.81
5095.58
5097.38
5099.2
5101.04
5102.91
5104.8
5106.72
5108.65
5110.62
5112.6
5114.61
5116.65
5118.7
5120.78
5122.89
5125.01
5127.17
5129.34
5131.54
5133.76
5136
5138.27
5140.56
5142.88
5145.22
5147.58
5149.96
5152.37
5154.8
5157.25
5159.73
5162.23
5164.75
5167.3
5169.87
5172.46
5175.08
5177.71
5180.37
5183.06
5185.76
5188.49
5191.24
5194.02
5196.81
5199.63
5202.48
5205.34
5208.23
5211.14
5214.07
5217.03
5220
5223
5226.02
5229.07
5232.14
5235.22
5238.34
5241.47
5244.62
5247.8
5251
5254.22
5257.47
5260.73
5264.02
5267.33
5270.66
5274.01
5277.39
5280.79
5284.2
5287.64
5291.11
5294.59
5298.1
5301.62
5305.17
5308.74
5312.33
5315.94
5319.58
5323.23
5326.91
5330.6
5334.32
5338.06
5341.82
5345.61
5349.41
5353.23
5357.08
5360.94
5364.83
5368.74
5372.67
5376.61
5380.58
5384.57
5388.59
5392.62
5396.67
5400.74
5404.83
5408.95
5413.08
5417.23
5421.41
5425.6
5429.82
5434.05
5438.31
5442.58
5446.88
5451.19
5455.53
5459.88
5464.26
5468.65
5473.06
5477.5
5481.95
5486.42
5490.91
5495.43
5499.96
5504.51
5509.08
5513.67
5518.27
5522.9
5527.55
5532.21
5536.9
5541.6
5546.32
5551.07
5555.83
5560.61
5565.4
5570.22
5575.06
5579.91
5584.78
5589.67
5594.58
5599.51
5604.45
5609.42
5614.4
5619.4
5624.42
5629.46
5634.51
5639.58
5644.68
5649.78
5654.91
5660.05
5665.22
5670.4
5675.59
5680.81
5686.04
5691.29
5696.55
5701.84
5707.14
5712.46
5717.79
5723.15
5728.52
5733.9
5739.31
5744.73
5750.16
5755.62
5761.09
5766.58
5772.08
5777.6
5783.14
5788.69
5794.26
5799.85
5805.45
5811.07
5816.7
5822.35
5828.02
5833.7
5839.4
5845.11
5850.84
5856.59
5862.35
5868.12
5873.92
5879.72
5885.55
5891.39
5897.24
5903.11
5908.99
5914.89
5920.81
5926.73
5932.68
5938.64
5944.61
5950.6
5956.6
5962.62
5968.65
5974.7
5980.76
5986.83
5992.92
5999.03
6005.14
6011.28
6017.42
6023.58
6029.76
6035.94
6042.15
6048.36
6054.59
6060.83
6067.09
6073.36
6079.64
6085.94
6092.24
6098.57
6104.9
6111.25
6117.61
6123.99
6130.37
6136.77
6143.19
6149.61
6156.05
6162.5
6168.96
6175.44
6181.93
6188.43
6194.94
6201.46
6208
6214.55
6221.11
6227.68
6234.26
6240.86
6247.47
6254.09
6260.72
6267.36
6274.01
6280.68
6287.35
6294.04
6300.74
6307.44
6314.16
6320.9
6327.64
6334.39
6341.15
6347.93
6354.71
6361.5
6368.31
6375.12
6381.95
6388.79
6395.63
6402.49
6409.35
6416.23
6423.12
6430.01
6436.92
6443.83
6450.75
6457.69
6464.63
6471.58
6478.55
6485.52
6492.5
6499.49
6506.48
6513.49
6520.51
6527.53
6534.56
6541.61
6548.66
6555.72
6562.78
6569.86
6576.94
6584.03
6591.13
6598.24
6605.36
6612.48
6619.61
6626.75
6633.9
6641.06
6648.22
6655.39
6662.56
6669.75
6676.94
6684.14
6691.35
6698.56
6705.78
6713
6720.24
6727.48
6734.73
6741.98
6749.24
6756.5
6763.78
6771.06
6778.34
6785.63
6792.93
6800.23
6807.54
6814.86
6822.18
6829.5
6836.83
6844.17
6851.51
6858.86
6866.22
6873.58
6880.94
6888.31
6895.68
6903.06
6910.44
6917.83
6925.22
6932.62
6940.02
6947.43
6954.84
6962.26
6969.68
6977.1
6984.53
6991.96
6999.4
7006.83
7014.28
7021.72
7029.18
7036.63
7044.09
7051.55
7059.01
7066.48
7073.95
7081.42
7088.9
7096.38
7103.86
7111.35
7118.84
7126.33
7133.82
7141.32
7148.81
7156.31
7163.82
7171.32
7178.83
7186.34
7193.85
7201.36
7208.88
7216.39
7223.91
7231.43
7238.95
7246.47
7254
7261.52
7269.05
7276.57
7284.1
7291.63
7299.16
7306.69
7314.22
7321.76
7329.29
7336.82
7344.35
7351.89
7359.42
7366.96
7374.49
7382.02
7389.56
7397.09
7404.63
7412.16
7419.69
7427.23
7434.76
7442.29
7449.82
7457.35
7464.88
7472.41
7479.94
7487.46
7494.99
7502.51
7510.04
7517.56
7525.08
7532.6
7540.11
7547.63
7555.14
7562.66
7570.17
7577.67
7585.18
7592.68
7600.18
7607.68
7615.18
7622.68
7630.17
7637.66
7645.14
7652.63
7660.11
7667.59
7675.06
7682.53
7690
7697.47
7704.93
7712.39
7719.85
7727.3
7734.75
7742.19
7749.64
7757.07
7764.51
7771.94
7779.36
7786.78
7794.2
7801.62
7809.02
7816.43
7823.83
7831.22
7838.62
7846
7853.38
7860.76
7868.13
7875.5
7882.86
7890.22
7897.57
7904.91
7912.25
7919.59
7926.92
7934.24
7941.56
7948.87
7956.18
7963.48
7970.78
7978.07
7985.35
7992.62
7999.89
8007.16
8014.42
8021.67
8028.91
8036.15
8043.38
8050.61
8057.82
8065.03
8072.24
8079.43
8086.62
8093.8
8100.98
8108.15
8115.31
8122.46
8129.6
8136.74
8143.87
8150.99
8158.11
8165.21
8172.31
8179.4
8186.48
8193.56
8200.62
8207.68
8214.73
8221.77
8228.8
8235.82
8242.83
8249.84
8256.84
8263.82
8270.8
8277.77
8284.73
8291.68
8298.62
8305.55
8312.48
8319.39
8326.29
8333.19
8340.07
8346.95
8353.81
8360.66
8367.51
8374.34
8381.17
8387.98
8394.79
8401.58
8408.36
8415.14
8421.9
8428.65
8435.39
8442.12
8448.84
8455.55
8462.24
8468.93
8475.61
8482.27
8488.92
8495.56
8502.19
8508.81
8515.42
8522.02
8528.6
8535.17
8541.73
8548.28
8554.82
8561.34
8567.86
8574.36
8580.85
8587.32
8593.79
8600.24
8606.68
8613.1
8619.52
8625.92
8632.31
8638.68
8645.05
8651.4
8657.74
8664.06
8670.37
8676.67
8682.95
8689.23
8695.48
8701.73
8707.96
8714.18
8720.38
8726.57
8732.75
8738.91
8745.06
8751.2
8757.32
8763.43
8769.52
8775.6
8781.67
8787.72
8793.75
8799.78
8805.78
8811.78
8817.76
8823.72
8829.67
8835.6
8841.52
8847.43
8853.32
8859.19
8865.05
8870.9
8876.73
8882.54
8888.34
8894.12
8899.89
8905.65
8911.38
8917.1
8922.81
8928.5
8934.18
8939.83
8945.48
8951.1
8956.72
8962.31
8967.89
8973.45
8979
8984.53
8990.04
8995.54
9001.02
9006.48
9011.93
9017.36
9022.78
9028.18
9033.56
9038.92
9044.27
9049.6
9054.91
9060.21
9065.49
9070.75
9076
9081.22
9086.43
9091.63
9096.8
9101.96
9107.1
9112.22
9117.33
9122.42
9127.49
9132.54
9137.57
9142.59
9147.59
9152.57
9157.53
9162.47
9167.4
9172.31
9177.2
9182.07
9186.92
9191.76
9196.57
9201.37
9206.15
9210.91
9215.65
9220.37
9225.08
9229.76
9234.43
9239.08
9243.71
9248.32
9252.91
9257.48
9262.03
9266.57
9271.08
9275.58
9280.05
9284.51
9288.95
9293.36
9297.76
9302.14
9306.5
9310.84
9315.16
9319.46
9323.74
9328
9332.24
9336.46
9340.66
9344.84
9349
9353.14
9357.26
9361.36
9365.44
9369.5
9373.54
9377.56
9381.56
9385.54
9389.5
9393.44
9397.35
9401.25
9405.13
9408.98
9412.82
9416.63
9420.42
9424.2
9427.95
9431.68
9435.39
9439.08
9442.74
9446.39
9450.02
9453.62
9457.2
9460.77
9464.31
9467.83
9471.33
9474.8
9478.26
9481.69
9485.11
9488.5
9491.87
9495.22
9498.54
9501.85
9505.13
9508.39
9511.63
9514.85
9518.05
9521.22
9524.37
9527.51
9530.61
9533.7
9536.77
9539.81
9542.83
9545.83
9548.81
9551.76
9554.69
9557.6
9560.49
9563.36
9566.2
9569.02
9571.82
9574.6
9577.35
9580.08
9582.79
9585.48
9588.14
9590.78
9593.4
9596
9598.57
9601.12
9603.65
9606.16
9608.64
9611.1
9613.53
9615.95
9618.34
9620.71
9623.05
9625.38
9627.68
9629.95
9632.21
9634.44
9636.64
9638.83
9640.99
9643.13
9645.24
9647.33
9649.4
9651.45
9653.47
9655.47
9657.44
9659.4
9661.33
9663.23
9665.11
9666.97
9668.81
9670.62
9672.41
9674.17
9675.91
9677.63
9679.33
9681
9682.64
9684.27
9685.87
9687.44
9689
9690.52
9692.03
9693.51
9694.97
9696.4
9697.81
9699.2
9700.56
9701.9
9703.22
9704.51
9705.78
9707.02
9708.24
9709.43
9710.61
9711.75
9712.88
9713.98
9715.05
9716.1
9717.13
9718.14
9719.12
9720.07
9721
9721.91
9722.79
9723.65
9724.49
9725.3
9726.09
9726.85
9727.59
9728.3
9728.99
9729.66
9730.3
9730.92
9731.51
9732.08
9732.62
9733.14
9733.64
9734.11
9734.55
9734.98
9735.37
9735.75
9736.09
9736.42
9736.72
9736.99
9737.24
9737.46
9737.66
9737.84
9737.99
9738.11
9738.21
9738.29
9738.34
9738.36
9738.36
9738.33
9738.27
9738.19
9738.09
9737.95
9737.79
9737.6
9737.38
9737.11
5100.75
5080.54
5065.73
5056.32
5050.09
5045.84
5042.89
5040.77
5039.19
5037.99
5037.04
5036.28
5035.65
5035.15
5034.73
5034.4
5034.13
5033.93
5033.79
5033.7
5033.66
5033.67
5033.73
5033.82
5033.96
5034.14
5034.35
5034.61
5034.89
5035.22
5035.57
5035.96
5036.39
5036.84
5037.32
5037.84
5038.39
5038.96
5039.57
5040.2
5040.86
5041.55
5042.27
5043.02
5043.79
5044.59
5045.42
5046.27
5047.15
5048.06
5048.99
5049.95
5050.93
5051.94
5052.98
5054.04
5055.13
5056.24
5057.38
5058.54
5059.73
5060.94
5062.18
5063.44
5064.73
5066.04
5067.38
5068.74
5070.12
5071.53
5072.96
5074.42
5075.91
5077.41
5078.94
5080.5
5082.08
5083.68
5085.31
5086.96
5088.64
5090.34
5092.06
5093.81
5095.58
5097.37
5099.19
5101.04
5102.9
5104.79
5106.71
5108.65
5110.61
5112.6
5114.61
5116.64
5118.7
5120.78
5122.88
5125.01
5127.16
5129.33
5131.53
5133.75
5136
5138.27
5140.56
5142.87
5145.21
5147.57
5149.96
5152.36
5154.79
5157.25
5159.73
5162.22
5164.75
5167.29
5169.86
5172.45
5175.07
5177.71
5180.37
5183.05
5185.76
5188.48
5191.24
5194.01
5196.81
5199.63
5202.47
5205.33
5208.22
5211.13
5214.06
5217.02
5220
5223
5226.02
5229.06
5232.13
5235.22
5238.33
5241.46
5244.62
5247.79
5250.99
5254.22
5257.46
5260.73
5264.01
5267.32
5270.65
5274.01
5277.38
5280.78
5284.2
5287.64
5291.1
5294.58
5298.09
5301.61
5305.16
5308.73
5312.32
5315.93
5319.57
5323.22
5326.9
5330.6
5334.32
5338.06
5341.82
5345.6
5349.4
5353.22
5357.07
5360.94
5364.82
5368.73
5372.66
5376.61
5380.58
5384.57
5388.58
5392.61
5396.66
5400.73
5404.83
5408.94
5413.07
5417.23
5421.4
5425.6
5429.81
5434.04
5438.3
5442.57
5446.87
5451.18
5455.52
5459.87
5464.25
5468.64
5473.05
5477.49
5481.94
5486.41
5490.91
5495.42
5499.95
5504.5
5509.07
5513.66
5518.27
5522.89
5527.54
5532.21
5536.89
5541.59
5546.32
5551.06
5555.82
5560.6
5565.39
5570.21
5575.05
5579.9
5584.77
5589.66
5594.57
5599.5
5604.45
5609.41
5614.39
5619.39
5624.41
5629.45
5634.5
5639.58
5644.67
5649.77
5654.9
5660.04
5665.21
5670.39
5675.58
5680.8
5686.03
5691.28
5696.54
5701.83
5707.13
5712.45
5717.78
5723.14
5728.51
5733.89
5739.3
5744.72
5750.15
5755.61
5761.08
5766.57
5772.07
5777.59
5783.13
5788.68
5794.25
5799.84
5805.44
5811.06
5816.69
5822.34
5828.01
5833.69
5839.39
5845.1
5850.83
5856.58
5862.34
5868.11
5873.91
5879.71
5885.54
5891.38
5897.23
5903.1
5908.98
5914.88
5920.79
5926.72
5932.67
5938.63
5944.6
5950.59
5956.59
5962.61
5968.64
5974.69
5980.75
5986.82
5992.91
5999.02
6005.13
6011.27
6017.41
6023.57
6029.75
6035.93
6042.13
6048.35
6054.58
6060.82
6067.08
6073.35
6079.63
6085.92
6092.23
6098.56
6104.89
6111.24
6117.6
6123.98
6130.36
6136.76
6143.18
6149.6
6156.04
6162.49
6168.95
6175.43
6181.92
6188.42
6194.93
6201.45
6207.99
6214.54
6221.1
6227.67
6234.25
6240.85
6247.46
6254.07
6260.7
6267.35
6274
6280.66
6287.34
6294.03
6300.72
6307.43
6314.15
6320.88
6327.62
6334.38
6341.14
6347.91
6354.7
6361.49
6368.3
6375.11
6381.94
6388.77
6395.62
6402.48
6409.34
6416.22
6423.1
6430
6436.9
6443.82
6450.74
6457.68
6464.62
6471.57
6478.53
6485.5
6492.48
6499.47
6506.47
6513.48
6520.49
6527.52
6534.55
6541.59
6548.64
6555.7
6562.77
6569.85
6576.93
6584.02
6591.12
6598.23
6605.35
6612.47
6619.6
6626.74
6633.89
6641.04
6648.2
6655.37
6662.55
6669.74
6676.93
6684.13
6691.33
6698.55
6705.76
6712.99
6720.22
6727.47
6734.71
6741.97
6749.22
6756.49
6763.76
6771.04
6778.33
6785.62
6792.92
6800.22
6807.53
6814.84
6822.16
6829.49
6836.82
6844.16
6851.5
6858.85
6866.2
6873.56
6880.92
6888.29
6895.67
6903.05
6910.43
6917.82
6925.21
6932.61
6940.01
6947.42
6954.83
6962.24
6969.66
6977.09
6984.51
6991.95
6999.38
7006.82
7014.26
7021.71
7029.16
7036.62
7044.07
7051.53
7059
7066.47
7073.94
7081.41
7088.89
7096.37
7103.85
7111.33
7118.82
7126.31
7133.81
7141.3
7148.8
7156.3
7163.8
7171.31
7178.81
7186.32
7193.83
7201.35
7208.86
7216.38
7223.89
7231.41
7238.93
7246.46
7253.98
7261.51
7269.03
7276.56
7284.09
7291.62
7299.15
7306.68
7314.21
7321.74
7329.27
7336.81
7344.34
7351.87
7359.41
7366.94
7374.47
7382.01
7389.54
7397.08
7404.61
7412.15
7419.68
7427.21
7434.74
7442.28
7449.81
7457.34
7464.87
7472.39
7479.92
7487.45
7494.97
7502.5
7510.02
7517.54
7525.06
7532.58
7540.1
7547.61
7555.13
7562.64
7570.15
7577.66
7585.16
7592.67
7600.17
7607.67
7615.16
7622.66
7630.15
7637.64
7645.13
7652.61
7660.09
7667.57
7675.05
7682.52
7689.99
7697.45
7704.92
7712.37
7719.83
7727.28
7734.73
7742.18
7749.62
7757.06
7764.49
7771.92
7779.35
7786.77
7794.18
7801.6
7809.01
7816.41
7823.81
7831.21
7838.6
7845.98
7853.37
7860.74
7868.11
7875.48
7882.84
7890.2
7897.55
7904.9
7912.24
7919.57
7926.9
7934.23
7941.54
7948.86
7956.16
7963.46
7970.76
7978.05
7985.33
7992.61
7999.88
8007.14
8014.4
8021.65
8028.89
8036.13
8043.36
8050.59
8057.8
8065.02
8072.22
8079.42
8086.6
8093.79
8100.96
8108.13
8115.29
8122.44
8129.59
8136.72
8143.85
8150.97
8158.09
8165.19
8172.29
8179.38
8186.46
8193.54
8200.6
8207.66
8214.71
8221.75
8228.78
8235.8
8242.81
8249.82
8256.82
8263.8
8270.78
8277.75
8284.71
8291.66
8298.6
8305.53
8312.46
8319.37
8326.27
8333.17
8340.05
8346.93
8353.79
8360.64
8367.49
8374.32
8381.15
8387.96
8394.77
8401.56
8408.34
8415.12
8421.88
8428.63
8435.37
8442.1
8448.82
8455.53
8462.22
8468.91
8475.59
8482.25
8488.9
8495.54
8502.17
8508.79
8515.4
8522
8528.58
8535.15
8541.71
8548.26
8554.8
8561.32
8567.84
8574.34
8580.82
8587.3
8593.76
8600.22
8606.66
8613.08
8619.5
8625.9
8632.29
8638.66
8645.03
8651.38
8657.71
8664.04
8670.35
8676.65
8682.93
8689.2
8695.46
8701.71
8707.94
8714.16
8720.36
8726.55
8732.73
8738.89
8745.04
8751.18
8757.3
8763.41
8769.5
8775.58
8781.65
8787.7
8793.73
8799.75
8805.76
8811.76
8817.73
8823.7
8829.65
8835.58
8841.5
8847.41
8853.3
8859.17
8865.03
8870.88
8876.71
8882.52
8888.32
8894.1
8899.87
8905.62
8911.36
8917.08
8922.79
8928.48
8934.15
8939.81
8945.45
8951.08
8956.69
8962.29
8967.87
8973.43
8978.97
8984.5
8990.02
8995.52
9001
9006.46
9011.91
9017.34
9022.75
9028.15
9033.53
9038.9
9044.25
9049.58
9054.89
9060.19
9065.46
9070.73
9075.97
9081.2
9086.41
9091.6
9096.78
9101.94
9107.08
9112.2
9117.3
9122.39
9127.46
9132.51
9137.55
9142.56
9147.56
9152.54
9157.51
9162.45
9167.38
9172.28
9177.17
9182.04
9186.9
9191.73
9196.55
9201.35
9206.12
9210.89
9215.63
9220.35
9225.05
9229.74
9234.41
9239.05
9243.68
9248.29
9252.88
9257.46
9262.01
9266.54
9271.06
9275.55
9280.03
9284.48
9288.92
9293.34
9297.74
9302.12
9306.47
9310.81
9315.13
9319.43
9323.71
9327.97
9332.21
9336.43
9340.64
9344.82
9348.98
9353.12
9357.24
9361.34
9365.42
9369.48
9373.52
9377.54
9381.54
9385.52
9389.47
9393.41
9397.33
9401.22
9405.1
9408.96
9412.79
9416.6
9420.4
9424.17
9427.92
9431.65
9435.36
9439.05
9442.72
9446.36
9449.99
9453.59
9457.18
9460.74
9464.28
9467.8
9471.3
9474.78
9478.23
9481.67
9485.08
9488.47
9491.84
9495.19
9498.51
9501.82
9505.1
9508.37
9511.61
9514.82
9518.02
9521.19
9524.35
9527.48
9530.59
9533.67
9536.74
9539.78
9542.8
9545.8
9548.78
9551.73
9554.67
9557.58
9560.46
9563.33
9566.17
9568.99
9571.79
9574.57
9577.32
9580.05
9582.76
9585.45
9588.11
9590.75
9593.37
9595.97
9598.54
9601.09
9603.62
9606.13
9608.61
9611.07
9613.51
9615.92
9618.31
9620.68
9623.02
9625.35
9627.65
9629.92
9632.18
9634.41
9636.61
9638.8
9640.96
9643.1
9645.21
9647.31
9649.37
9651.42
9653.44
9655.44
9657.42
9659.37
9661.3
9663.2
9665.08
9666.94
9668.78
9670.59
9672.38
9674.14
9675.88
9677.6
9679.3
9680.97
9682.61
9684.24
9685.84
9687.41
9688.97
9690.49
9692
9693.48
9694.94
9696.37
9697.78
9699.17
9700.53
9701.87
9703.19
9704.48
9705.74
9706.99
9708.21
9709.4
9710.57
9711.72
9712.85
9713.95
9715.02
9716.07
9717.1
9718.1
9719.08
9720.04
9720.97
9721.88
9722.76
9723.62
9724.46
9725.27
9726.05
9726.82
9727.56
9728.27
9728.96
9729.62
9730.27
9730.88
9731.48
9732.04
9732.59
9733.11
9733.6
9734.07
9734.52
9734.94
9735.34
9735.71
9736.06
9736.38
9736.68
9736.96
9737.21
9737.43
9737.63
9737.8
9737.95
9738.08
9738.18
9738.25
9738.3
9738.32
9738.32
9738.29
9738.24
9738.16
9738.05
9737.91
9737.75
9737.56
9737.34
9737.07
5077.51
5069.97
5062.16
5055.49
5050.3
5046.4
5043.49
5041.31
5039.65
5038.35
5037.33
5036.5
5035.83
5035.29
5034.85
5034.49
5034.2
5033.99
5033.84
5033.74
5033.69
5033.69
5033.74
5033.83
5033.97
5034.14
5034.35
5034.6
5034.89
5035.21
5035.56
5035.95
5036.37
5036.82
5037.31
5037.82
5038.37
5038.94
5039.54
5040.18
5040.84
5041.53
5042.24
5042.99
5043.76
5044.56
5045.39
5046.24
5047.12
5048.03
5048.96
5049.92
5050.9
5051.91
5052.95
5054.01
5055.1
5056.21
5057.35
5058.51
5059.7
5060.91
5062.15
5063.41
5064.69
5066.01
5067.34
5068.7
5070.09
5071.5
5072.93
5074.39
5075.87
5077.38
5078.91
5080.46
5082.04
5083.65
5085.27
5086.93
5088.6
5090.3
5092.03
5093.77
5095.54
5097.34
5099.16
5101
5102.87
5104.76
5106.68
5108.62
5110.58
5112.56
5114.57
5116.61
5118.66
5120.74
5122.85
5124.98
5127.13
5129.3
5131.5
5133.72
5135.97
5138.23
5140.52
5142.84
5145.18
5147.54
5149.92
5152.33
5154.76
5157.21
5159.69
5162.19
5164.71
5167.26
5169.83
5172.42
5175.03
5177.67
5180.33
5183.02
5185.72
5188.45
5191.2
5193.98
5196.77
5199.59
5202.44
5205.3
5208.19
5211.1
5214.03
5216.98
5219.96
5222.96
5225.98
5229.03
5232.09
5235.18
5238.29
5241.43
5244.58
5247.76
5250.96
5254.18
5257.43
5260.69
5263.98
5267.29
5270.62
5273.97
5277.35
5280.74
5284.16
5287.6
5291.06
5294.55
5298.05
5301.58
5305.13
5308.7
5312.29
5315.9
5319.53
5323.19
5326.86
5330.56
5334.28
5338.02
5341.78
5345.56
5349.37
5353.19
5357.03
5360.9
5364.79
5368.69
5372.62
5376.57
5380.54
5384.53
5388.54
5392.57
5396.63
5400.7
5404.79
5408.9
5413.04
5417.19
5421.37
5425.56
5429.77
5434.01
5438.26
5442.54
5446.83
5451.15
5455.48
5459.84
5464.21
5468.61
5473.02
5477.45
5481.91
5486.38
5490.87
5495.38
5499.91
5504.46
5509.03
5513.62
5518.23
5522.86
5527.5
5532.17
5536.85
5541.56
5546.28
5551.02
5555.78
5560.56
5565.36
5570.17
5575.01
5579.86
5584.74
5589.63
5594.54
5599.46
5604.41
5609.37
5614.36
5619.36
5624.37
5629.41
5634.47
5639.54
5644.63
5649.74
5654.86
5660.01
5665.17
5670.35
5675.55
5680.76
5685.99
5691.24
5696.51
5701.79
5707.09
5712.41
5717.75
5723.1
5728.47
5733.86
5739.26
5744.68
5750.12
5755.57
5761.04
5766.53
5772.03
5777.55
5783.09
5788.64
5794.21
5799.8
5805.4
5811.02
5816.65
5822.3
5827.97
5833.65
5839.35
5845.06
5850.79
5856.54
5862.3
5868.08
5873.87
5879.68
5885.5
5891.34
5897.19
5903.06
5908.94
5914.84
5920.76
5926.68
5932.63
5938.59
5944.56
5950.55
5956.55
5962.57
5968.6
5974.65
5980.71
5986.78
5992.87
5998.98
6005.09
6011.23
6017.37
6023.53
6029.71
6035.89
6042.1
6048.31
6054.54
6060.78
6067.04
6073.31
6079.59
6085.88
6092.19
6098.52
6104.85
6111.2
6117.56
6123.94
6130.32
6136.72
6143.14
6149.56
6156
6162.45
6168.91
6175.39
6181.88
6188.38
6194.89
6201.41
6207.95
6214.5
6221.06
6227.63
6234.21
6240.81
6247.42
6254.03
6260.66
6267.31
6273.96
6280.62
6287.3
6293.99
6300.68
6307.39
6314.11
6320.84
6327.58
6334.34
6341.1
6347.87
6354.66
6361.45
6368.26
6375.07
6381.9
6388.73
6395.58
6402.43
6409.3
6416.18
6423.06
6429.96
6436.86
6443.78
6450.7
6457.63
6464.58
6471.53
6478.49
6485.46
6492.44
6499.43
6506.43
6513.44
6520.45
6527.48
6534.51
6541.55
6548.6
6555.66
6562.73
6569.8
6576.89
6583.98
6591.08
6598.19
6605.3
6612.43
6619.56
6626.7
6633.84
6641
6648.16
6655.33
6662.51
6669.69
6676.88
6684.08
6691.29
6698.5
6705.72
6712.95
6720.18
6727.42
6734.67
6741.92
6749.18
6756.45
6763.72
6771
6778.28
6785.57
6792.87
6800.18
6807.48
6814.8
6822.12
6829.45
6836.78
6844.11
6851.46
6858.81
6866.16
6873.52
6880.88
6888.25
6895.62
6903
6910.39
6917.77
6925.17
6932.56
6939.97
6947.37
6954.78
6962.2
6969.62
6977.04
6984.47
6991.9
6999.34
7006.78
7014.22
7021.67
7029.12
7036.57
7044.03
7051.49
7058.95
7066.42
7073.89
7081.36
7088.84
7096.32
7103.8
7111.29
7118.78
7126.27
7133.76
7141.26
7148.75
7156.25
7163.76
7171.26
7178.77
7186.28
7193.79
7201.3
7208.81
7216.33
7223.85
7231.37
7238.89
7246.41
7253.93
7261.46
7268.98
7276.51
7284.04
7291.57
7299.1
7306.63
7314.16
7321.69
7329.23
7336.76
7344.29
7351.83
7359.36
7366.89
7374.43
7381.96
7389.5
7397.03
7404.56
7412.1
7419.63
7427.16
7434.7
7442.23
7449.76
7457.29
7464.82
7472.35
7479.87
7487.4
7494.93
7502.45
7509.97
7517.49
7525.01
7532.53
7540.05
7547.57
7555.08
7562.59
7570.1
7577.61
7585.11
7592.62
7600.12
7607.62
7615.12
7622.61
7630.1
7637.59
7645.08
7652.56
7660.04
7667.52
7675
7682.47
7689.94
7697.4
7704.87
7712.33
7719.78
7727.23
7734.68
7742.13
7749.57
7757.01
7764.44
7771.87
7779.3
7786.72
7794.14
7801.55
7808.96
7816.36
7823.76
7831.16
7838.55
7845.93
7853.32
7860.69
7868.06
7875.43
7882.79
7890.15
7897.5
7904.85
7912.19
7919.52
7926.85
7934.17
7941.49
7948.81
7956.11
7963.41
7970.71
7978
7985.28
7992.56
7999.83
8007.09
8014.35
8021.6
8028.84
8036.08
8043.31
8050.54
8057.75
8064.96
8072.17
8079.36
8086.55
8093.73
8100.91
8108.08
8115.24
8122.39
8129.53
8136.67
8143.8
8150.92
8158.04
8165.14
8172.24
8179.33
8186.41
8193.49
8200.55
8207.61
8214.66
8221.69
8228.73
8235.75
8242.76
8249.77
8256.76
8263.75
8270.73
8277.7
8284.66
8291.61
8298.55
8305.48
8312.4
8319.32
8326.22
8333.11
8340
8346.87
8353.74
8360.59
8367.44
8374.27
8381.09
8387.91
8394.71
8401.51
8408.29
8415.06
8421.82
8428.57
8435.32
8442.05
8448.76
8455.47
8462.17
8468.86
8475.53
8482.2
8488.85
8495.49
8502.12
8508.74
8515.35
8521.94
8528.53
8535.1
8541.66
8548.21
8554.74
8561.27
8567.78
8574.28
8580.77
8587.25
8593.71
8600.16
8606.6
8613.03
8619.44
8625.84
8632.23
8638.61
8644.97
8651.32
8657.66
8663.98
8670.29
8676.59
8682.88
8689.15
8695.41
8701.65
8707.88
8714.1
8720.31
8726.5
8732.67
8738.84
8744.99
8751.12
8757.24
8763.35
8769.44
8775.52
8781.59
8787.64
8793.68
8799.7
8805.71
8811.7
8817.68
8823.64
8829.59
8835.53
8841.45
8847.35
8853.24
8859.11
8864.97
8870.82
8876.65
8882.46
8888.26
8894.05
8899.81
8905.57
8911.3
8917.03
8922.73
8928.42
8934.1
8939.75
8945.4
8951.02
8956.64
8962.23
8967.81
8973.37
8978.92
8984.45
8989.96
8995.46
9000.94
9006.4
9011.85
9017.28
9022.7
9028.1
9033.48
9038.84
9044.19
9049.52
9054.83
9060.13
9065.41
9070.67
9075.91
9081.14
9086.35
9091.54
9096.72
9101.88
9107.02
9112.14
9117.25
9122.33
9127.4
9132.46
9137.49
9142.51
9147.5
9152.48
9157.45
9162.39
9167.32
9172.23
9177.11
9181.99
9186.84
9191.67
9196.49
9201.29
9206.07
9210.83
9215.57
9220.29
9225
9229.68
9234.35
9239
9243.62
9248.23
9252.83
9257.4
9261.95
9266.48
9271
9275.49
9279.97
9284.43
9288.86
9293.28
9297.68
9302.06
9306.42
9310.75
9315.07
9319.37
9323.65
9327.91
9332.15
9336.38
9340.58
9344.76
9348.92
9353.06
9357.18
9361.28
9365.36
9369.42
9373.46
9377.48
9381.48
9385.46
9389.41
9393.35
9397.27
9401.16
9405.04
9408.9
9412.73
9416.54
9420.34
9424.11
9427.86
9431.59
9435.3
9438.99
9442.66
9446.3
9449.93
9453.53
9457.12
9460.68
9464.22
9467.74
9471.24
9474.72
9478.17
9481.61
9485.02
9488.41
9491.78
9495.13
9498.45
9501.76
9505.04
9508.3
9511.54
9514.76
9517.96
9521.13
9524.29
9527.42
9530.53
9533.61
9536.68
9539.72
9542.74
9545.74
9548.72
9551.67
9554.6
9557.51
9560.4
9563.27
9566.11
9568.93
9571.73
9574.51
9577.26
9579.99
9582.7
9585.39
9588.05
9590.69
9593.31
9595.91
9598.48
9601.03
9603.56
9606.07
9608.55
9611.01
9613.44
9615.86
9618.25
9620.62
9622.96
9625.29
9627.59
9629.86
9632.12
9634.35
9636.55
9638.74
9640.9
9643.04
9645.15
9647.24
9649.31
9651.36
9653.38
9655.38
9657.35
9659.31
9661.23
9663.14
9665.02
9666.88
9668.72
9670.53
9672.32
9674.08
9675.82
9677.54
9679.23
9680.9
9682.55
9684.17
9685.77
9687.35
9688.9
9690.43
9691.94
9693.42
9694.88
9696.31
9697.72
9699.11
9700.47
9701.81
9703.12
9704.41
9705.68
9706.93
9708.15
9709.34
9710.51
9711.66
9712.78
9713.88
9714.96
9716.01
9717.04
9718.04
9719.02
9719.98
9720.91
9721.82
9722.7
9723.56
9724.39
9725.21
9725.99
9726.75
9727.49
9728.21
9728.9
9729.56
9730.2
9730.82
9731.41
9731.98
9732.53
9733.04
9733.54
9734.01
9734.46
9734.88
9735.28
9735.65
9736
9736.32
9736.62
9736.89
9737.14
9737.37
9737.57
9737.74
9737.89
9738.01
9738.11
9738.19
9738.24
9738.26
9738.26
9738.23
9738.17
9738.09
9737.98
9737.85
9737.68
9737.49
9737.28
9737.02
5065.86
5062.45
5058.07
5053.49
5049.45
5046.14
5043.51
5041.45
5039.81
5038.51
5037.47
5036.63
5035.94
5035.37
5034.91
5034.54
5034.25
5034.03
5033.87
5033.76
5033.71
5033.71
5033.75
5033.84
5033.98
5034.15
5034.36
5034.61
5034.89
5035.21
5035.56
5035.95
5036.37
5036.82
5037.3
5037.82
5038.36
5038.94
5039.54
5040.17
5040.83
5041.52
5042.24
5042.98
5043.76
5044.56
5045.38
5046.23
5047.11
5048.02
5048.95
5049.91
5050.9
5051.91
5052.94
5054
5055.09
5056.2
5057.34
5058.5
5059.69
5060.9
5062.14
5063.4
5064.69
5066
5067.33
5068.69
5070.08
5071.49
5072.92
5074.38
5075.86
5077.37
5078.9
5080.46
5082.04
5083.64
5085.27
5086.92
5088.59
5090.29
5092.02
5093.77
5095.54
5097.33
5099.15
5101
5102.86
5104.75
5106.67
5108.61
5110.57
5112.56
5114.57
5116.6
5118.66
5120.74
5122.84
5124.97
5127.12
5129.29
5131.49
5133.71
5135.96
5138.23
5140.52
5142.83
5145.17
5147.53
5149.91
5152.32
5154.75
5157.21
5159.68
5162.18
5164.71
5167.25
5169.82
5172.41
5175.03
5177.66
5180.32
5183.01
5185.71
5188.44
5191.19
5193.97
5196.77
5199.59
5202.43
5205.29
5208.18
5211.09
5214.02
5216.98
5219.95
5222.95
5225.98
5229.02
5232.09
5235.18
5238.29
5241.42
5244.58
5247.75
5250.95
5254.17
5257.42
5260.68
5263.97
5267.28
5270.61
5273.96
5277.34
5280.74
5284.15
5287.59
5291.06
5294.54
5298.05
5301.57
5305.12
5308.69
5312.28
5315.89
5319.53
5323.18
5326.86
5330.55
5334.27
5338.01
5341.77
5345.56
5349.36
5353.18
5357.03
5360.89
5364.78
5368.69
5372.61
5376.56
5380.53
5384.52
5388.53
5392.57
5396.62
5400.69
5404.78
5408.9
5413.03
5417.18
5421.36
5425.55
5429.77
5434
5438.26
5442.53
5446.83
5451.14
5455.47
5459.83
5464.2
5468.6
5473.01
5477.44
5481.9
5486.37
5490.86
5495.37
5499.9
5504.45
5509.02
5513.61
5518.22
5522.85
5527.49
5532.16
5536.85
5541.55
5546.27
5551.01
5555.77
5560.55
5565.35
5570.17
5575
5579.85
5584.73
5589.62
5594.53
5599.45
5604.4
5609.36
5614.35
5619.35
5624.37
5629.4
5634.46
5639.53
5644.62
5649.73
5654.85
5660
5665.16
5670.34
5675.54
5680.75
5685.98
5691.23
5696.5
5701.78
5707.08
5712.4
5717.74
5723.09
5728.46
5733.85
5739.25
5744.67
5750.11
5755.56
5761.03
5766.52
5772.02
5777.54
5783.08
5788.63
5794.2
5799.79
5805.39
5811.01
5816.64
5822.29
5827.96
5833.64
5839.34
5845.05
5850.78
5856.53
5862.29
5868.07
5873.86
5879.67
5885.49
5891.33
5897.18
5903.05
5908.93
5914.83
5920.75
5926.68
5932.62
5938.58
5944.55
5950.54
5956.54
5962.56
5968.59
5974.64
5980.7
5986.77
5992.86
5998.97
6005.08
6011.22
6017.36
6023.52
6029.7
6035.88
6042.09
6048.3
6054.53
6060.77
6067.03
6073.3
6079.58
6085.87
6092.18
6098.51
6104.84
6111.19
6117.55
6123.93
6130.31
6136.71
6143.13
6149.55
6155.99
6162.44
6168.9
6175.38
6181.87
6188.37
6194.88
6201.4
6207.94
6214.49
6221.05
6227.62
6234.2
6240.8
6247.4
6254.02
6260.65
6267.3
6273.95
6280.61
6287.29
6293.97
6300.67
6307.38
6314.1
6320.83
6327.57
6334.33
6341.09
6347.86
6354.65
6361.44
6368.25
6375.06
6381.89
6388.72
6395.57
6402.42
6409.29
6416.16
6423.05
6429.95
6436.85
6443.77
6450.69
6457.62
6464.57
6471.52
6478.48
6485.45
6492.43
6499.42
6506.42
6513.42
6520.44
6527.46
6534.5
6541.54
6548.59
6555.65
6562.72
6569.79
6576.87
6583.97
6591.07
6598.17
6605.29
6612.41
6619.55
6626.69
6633.83
6640.99
6648.15
6655.32
6662.5
6669.68
6676.87
6684.07
6691.28
6698.49
6705.71
6712.94
6720.17
6727.41
6734.66
6741.91
6749.17
6756.44
6763.71
6770.99
6778.27
6785.56
6792.86
6800.16
6807.47
6814.79
6822.11
6829.43
6836.76
6844.1
6851.44
6858.79
6866.15
6873.5
6880.87
6888.24
6895.61
6902.99
6910.37
6917.76
6925.15
6932.55
6939.95
6947.36
6954.77
6962.19
6969.6
6977.03
6984.46
6991.89
6999.32
7006.76
7014.21
7021.65
7029.1
7036.56
7044.01
7051.48
7058.94
7066.41
7073.88
7081.35
7088.83
7096.31
7103.79
7111.27
7118.76
7126.25
7133.75
7141.24
7148.74
7156.24
7163.74
7171.25
7178.75
7186.26
7193.77
7201.29
7208.8
7216.32
7223.83
7231.35
7238.87
7246.4
7253.92
7261.45
7268.97
7276.5
7284.03
7291.55
7299.08
7306.62
7314.15
7321.68
7329.21
7336.74
7344.28
7351.81
7359.35
7366.88
7374.41
7381.95
7389.48
7397.02
7404.55
7412.08
7419.62
7427.15
7434.68
7442.21
7449.74
7457.27
7464.8
7472.33
7479.86
7487.39
7494.91
7502.44
7509.96
7517.48
7525
7532.52
7540.04
7547.55
7555.06
7562.58
7570.09
7577.59
7585.1
7592.6
7600.1
7607.6
7615.1
7622.59
7630.09
7637.58
7645.06
7652.55
7660.03
7667.51
7674.98
7682.45
7689.92
7697.39
7704.85
7712.31
7719.77
7727.22
7734.67
7742.11
7749.55
7756.99
7764.42
7771.85
7779.28
7786.7
7794.12
7801.53
7808.94
7816.35
7823.75
7831.14
7838.53
7845.92
7853.3
7860.68
7868.05
7875.41
7882.78
7890.13
7897.48
7904.83
7912.17
7919.51
7926.83
7934.16
7941.48
7948.79
7956.1
7963.4
7970.69
7977.98
7985.26
7992.54
7999.81
8007.07
8014.33
8021.58
8028.83
8036.06
8043.3
8050.52
8057.74
8064.95
8072.15
8079.35
8086.54
8093.72
8100.89
8108.06
8115.22
8122.37
8129.52
8136.66
8143.78
8150.91
8158.02
8165.13
8172.22
8179.31
8186.39
8193.47
8200.53
8207.59
8214.64
8221.68
8228.71
8235.73
8242.75
8249.75
8256.75
8263.73
8270.71
8277.68
8284.64
8291.59
8298.53
8305.46
8312.39
8319.3
8326.2
8333.1
8339.98
8346.86
8353.72
8360.57
8367.42
8374.25
8381.08
8387.89
8394.7
8401.49
8408.27
8415.04
8421.81
8428.56
8435.3
8442.03
8448.75
8455.46
8462.15
8468.84
8475.51
8482.18
8488.83
8495.47
8502.1
8508.72
8515.33
8521.92
8528.51
8535.08
8541.64
8548.19
8554.73
8561.25
8567.76
8574.26
8580.75
8587.23
8593.69
8600.14
8606.58
8613.01
8619.42
8625.83
8632.21
8638.59
8644.95
8651.3
8657.64
8663.97
8670.28
8676.57
8682.86
8689.13
8695.39
8701.63
8707.87
8714.08
8720.29
8726.48
8732.66
8738.82
8744.97
8751.1
8757.23
8763.33