/*--------------------------------*- C++ -*----------------------------------*\
| =========                 |                                                 |
| \\      /  F ield         | OpenFOAM: The Open Source CFD Toolbox           |
|  \\    /   O peration     | Version:  2512                                  |
|   \\  /    A nd           | Website:  www.openfoam.com                      |
|    \\/     M anipulation  |                                                 |
\*---------------------------------------------------------------------------*/
FoamFile
{
    version     2.0;
    format      ascii;
    arch        "LSB;label=32;scalar=64";
    class       volScalarField;
    location    "0.004";
    object      pB;
}
// * * * * * * * * * * * * * * * * * * * * * * * * * * * * * * * * * * * * * //

dimensions      [1 1 -3 0 0 -1 0];

internalField   nonuniform List<scalar> 
100000
(
-121.278
-307.825
-474.17
-607.669
-705.801
-771.926
-811.409
-829.952
-832.816
-824.455
-808.418
-787.406
-763.397
-737.793
-711.554
-685.322
-659.507
-634.364
-610.04
-586.61
-564.106
-542.527
-521.855
-502.061
-483.109
-464.961
-447.577
-430.919
-414.948
-399.629
-384.926
-370.806
-357.241
-344.199
-331.657
-319.587
-307.969
-296.779
-285.999
-275.61
-265.594
-255.936
-246.62
-237.633
-228.962
-220.592
-212.514
-204.716
-197.188
-189.92
-182.904
-176.13
-169.591
-163.279
-157.188
-151.311
-145.643
-140.176
-134.907
-129.831
-124.942
-120.237
-115.712
-111.362
-107.186
-103.178
-99.3365
-95.6571
-92.1366
-88.7709
-85.5557
-82.4862
-79.557
-76.7621
-74.0948
-71.5482
-69.1151
-66.7881
-64.5598
-62.4232
-60.3718
-58.3994
-56.5005
-54.6702
-52.9039
-51.1978
-49.5485
-47.9529
-46.4082
-44.9121
-43.4623
-42.0569
-40.6941
-39.3722
-38.0898
-36.8457
-35.6385
-34.4673
-33.3312
-32.2294
-31.1612
-30.1261
-29.1236
-28.1534
-27.2154
-26.3093
-25.4352
-24.5931
-23.7827
-23.0042
-22.2572
-21.5415
-20.8564
-20.2012
-19.5749
-18.9761
-18.4034
-17.8551
-17.3294
-16.8247
-16.3392
-15.8712
-15.4194
-14.9821
-14.5584
-14.147
-13.7472
-13.3579
-12.9787
-12.609
-12.2481
-11.8958
-11.5517
-11.2155
-10.8871
-10.5662
-10.2529
-9.94712
-9.64884
-9.35814
-9.07511
-8.79987
-8.53256
-8.27329
-8.02218
-7.7793
-7.54466
-7.31822
-7.09986
-6.88941
-6.68661
-6.49115
-6.30268
-6.12084
-5.94524
-5.77547
-5.61117
-5.45198
-5.29756
-5.14762
-5.00189
-4.86012
-4.72211
-4.58767
-4.45665
-4.32891
-4.20435
-4.08289
-3.96447
-3.84906
-3.73664
-3.62722
-3.52081
-3.41744
-3.31715
-3.21996
-3.12588
-3.03491
-2.94702
-2.86214
-2.78016
-2.70095
-2.62431
-2.55003
-2.47788
-2.40761
-2.33897
-2.27173
-2.2057
-2.14069
-2.07659
-2.01331
-1.95081
-1.8891
-1.82821
-1.76822
-1.70922
-1.65134
-1.59469
-1.53939
-1.48557
-1.43334
-1.3828
-1.33402
-1.28707
-1.242
-1.19883
-1.15758
-1.11822
-1.08073
-1.04503
-1.01105
-0.97868
-0.94781
-0.918306
-0.890029
-0.86284
-0.8366
-0.811181
-0.786462
-0.762337
-0.738716
-0.715519
-0.692685
-0.670163
-0.647917
-0.625924
-0.604168
-0.582647
-0.561365
-0.540334
-0.519573
-0.499104
-0.478954
-0.459148
-0.439711
-0.420665
-0.402026
-0.383807
-0.366013
-0.348642
-0.331689
-0.315143
-0.298992
-0.283223
-0.267826
-0.252791
-0.238115
-0.223797
-0.20984
-0.196252
-0.183042
-0.17022
-0.157799
-0.145787
-0.134195
-0.123029
-0.112293
-0.101991
-0.092123
-0.0826879
-0.0736828
-0.0651034
-0.0569438
-0.0491965
-0.0418523
-0.0349002
-0.0283278
-0.0221214
-0.0162665
-0.0107484
-0.00555277
-0.000666249
0.00392299
0.00822466
0.0122461
0.0159922
0.0194657
0.0226674
0.0255971
0.0282535
0.0306351
0.0327411
0.0345713
0.0361265
0.0374088
0.0384216
0.0391689
0.0396559
0.0398884
0.0398729
0.0396162
0.0391256
0.0384083
0.0374718
0.0363234
0.0349705
0.0334206
0.0316808
0.0297583
0.0276598
0.0253918
0.0229609
0.020373
0.0176341
0.0147498
0.0117253
0.00856569
0.00527572
0.00186009
-0.00167673
-0.00533045
-0.00909694
-0.0129723
-0.0169526
-0.0210342
-0.0252136
-0.0294875
-0.0338529
-0.0383067
-0.0428463
-0.0474688
-0.0521719
-0.0569529
-0.0618096
-0.0667396
-0.0717408
-0.0768106
-0.0819468
-0.087147
-0.0924085
-0.097729
-0.103106
-0.108537
-0.114019
-0.119551
-0.125129
-0.130753
-0.136421
-0.14213
-0.14788
-0.153669
-0.159495
-0.165358
-0.171256
-0.177187
-0.183151
-0.189146
-0.19517
-0.201223
-0.207303
-0.213409
-0.21954
-0.225696
-0.231875
-0.238077
-0.2443
-0.250546
-0.256812
-0.263099
-0.269406
-0.275732
-0.282078
-0.288441
-0.294823
-0.301221
-0.307635
-0.314065
-0.32051
-0.326968
-0.33344
-0.339923
-0.346419
-0.352925
-0.359442
-0.365969
-0.372506
-0.379051
-0.385605
-0.392167
-0.398736
-0.405312
-0.411895
-0.418484
-0.425078
-0.431677
-0.43828
-0.444888
-0.4515
-0.458116
-0.464735
-0.471358
-0.477985
-0.484616
-0.49125
-0.497889
-0.504532
-0.511179
-0.51783
-0.524484
-0.531142
-0.537803
-0.544466
-0.551131
-0.557798
-0.564466
-0.571136
-0.577806
-0.584478
-0.59115
-0.597823
-0.604496
-0.611169
-0.617842
-0.624514
-0.631186
-0.637857
-0.644526
-0.651195
-0.657862
-0.664528
-0.671193
-0.677855
-0.684516
-0.691175
-0.697833
-0.704489
-0.711144
-0.717799
-0.724452
-0.731106
-0.737758
-0.744411
-0.751062
-0.757712
-0.764361
-0.771008
-0.777653
-0.784296
-0.790937
-0.797574
-0.804209
-0.810841
-0.81747
-0.824095
-0.830717
-0.837335
-0.84395
-0.850562
-0.85717
-0.863776
-0.870378
-0.876977
-0.883573
-0.890167
-0.896757
-0.903344
-0.909927
-0.916507
-0.923084
-0.929657
-0.936226
-0.942792
-0.949354
-0.955914
-0.96247
-0.969023
-0.975573
-0.982121
-0.988666
-0.995208
-1.00175
-1.00828
-1.01481
-1.02134
-1.02786
-1.03437
-1.04089
-1.04739
-1.05389
-1.06039
-1.06688
-1.07337
-1.07985
-1.08632
-1.09279
-1.09926
-1.10572
-1.11217
-1.11863
-1.12507
-1.13151
-1.13795
-1.14438
-1.15081
-1.15724
-1.16365
-1.17007
-1.17648
-1.18288
-1.18928
-1.19568
-1.20207
-1.20846
-1.21484
-1.22122
-1.22759
-1.23396
-1.24032
-1.24667
-1.25302
-1.25936
-1.2657
-1.27202
-1.27834
-1.28466
-1.29096
-1.29727
-1.30356
-1.30985
-1.31613
-1.3224
-1.32867
-1.33494
-1.34119
-1.34744
-1.35368
-1.35992
-1.36615
-1.37237
-1.37858
-1.38479
-1.391
-1.39719
-1.40339
-1.40957
-1.41575
-1.42192
-1.42809
-1.43425
-1.4404
-1.44655
-1.45269
-1.45883
-1.46495
-1.47107
-1.47719
-1.48329
-1.48939
-1.49548
-1.50156
-1.50764
-1.5137
-1.51976
-1.52581
-1.53186
-1.53789
-1.54392
-1.54994
-1.55595
-1.56196
-1.56796
-1.57395
-1.57993
-1.58591
-1.59187
-1.59783
-1.60378
-1.60973
-1.61566
-1.62159
-1.62751
-1.63342
-1.63933
-1.64522
-1.65111
-1.65699
-1.66286
-1.66873
-1.67458
-1.68042
-1.68626
-1.69208
-1.6979
-1.7037
-1.7095
-1.71529
-1.72107
-1.72684
-1.7326
-1.73835
-1.74409
-1.74983
-1.75555
-1.76127
-1.76697
-1.77267
-1.77836
-1.78404
-1.78971
-1.79537
-1.80103
-1.80667
-1.81231
-1.81793
-1.82355
-1.82916
-1.83475
-1.84034
-1.84592
-1.85149
-1.85704
-1.86259
-1.86812
-1.87365
-1.87916
-1.88467
-1.89016
-1.89565
-1.90112
-1.90658
-1.91204
-1.91748
-1.92291
-1.92832
-1.93373
-1.93913
-1.94451
-1.94989
-1.95525
-1.96061
-1.96595
-1.97128
-1.9766
-1.98191
-1.98721
-1.99251
-1.99779
-2.00306
-2.00832
-2.01357
-2.01881
-2.02403
-2.02925
-2.03446
-2.03965
-2.04483
-2.05001
-2.05517
-2.06032
-2.06546
-2.07058
-2.07569
-2.0808
-2.08588
-2.09096
-2.09602
-2.10107
-2.10611
-2.11113
-2.11614
-2.12114
-2.12612
-2.1311
-2.13606
-2.141
-2.14594
-2.15086
-2.15577
-2.16067
-2.16555
-2.17043
-2.17529
-2.18013
-2.18497
-2.18979
-2.1946
-2.1994
-2.20418
-2.20895
-2.21371
-2.21846
-2.22319
-2.22791
-2.23261
-2.2373
-2.24198
-2.24664
-2.25129
-2.25592
-2.26054
-2.26515
-2.26974
-2.27432
-2.27888
-2.28343
-2.28796
-2.29248
-2.29699
-2.30148
-2.30595
-2.31041
-2.31486
-2.3193
-2.32372
-2.32812
-2.33252
-2.33689
-2.34126
-2.34561
-2.34995
-2.35427
-2.35857
-2.36287
-2.36714
-2.37141
-2.37565
-2.37988
-2.3841
-2.3883
-2.39248
-2.39664
-2.40079
-2.40492
-2.40904
-2.41313
-2.41722
-2.42128
-2.42533
-2.42936
-2.43338
-2.43739
-2.44137
-2.44534
-2.4493
-2.45324
-2.45716
-2.46107
-2.46496
-2.46883
-2.47269
-2.47653
-2.48036
-2.48417
-2.48796
-2.49174
-2.4955
-2.49924
-2.50297
-2.50668
-2.51036
-2.51403
-2.51769
-2.52132
-2.52493
-2.52852
-2.5321
-2.53565
-2.53919
-2.54271
-2.54621
-2.54969
-2.55315
-2.5566
-2.56003
-2.56344
-2.56683
-2.57021
-2.57357
-2.57691
-2.58023
-2.58354
-2.58683
-2.59009
-2.59334
-2.59657
-2.59979
-2.60298
-2.60615
-2.6093
-2.61242
-2.61553
-2.61862
-2.62168
-2.62472
-2.62774
-2.63074
-2.63372
-2.63667
-2.63961
-2.64252
-2.64541
-2.64827
-2.65112
-2.65394
-2.65673
-2.65951
-2.66225
-2.66498
-2.66768
-2.67035
-2.67299
-2.67561
-2.67821
-2.68077
-2.68331
-2.68582
-2.68831
-2.69076
-2.69319
-2.69559
-2.69796
-2.7003
-2.70261
-2.70489
-2.70713
-2.70935
-2.71153
-2.71368
-2.71579
-2.71787
-2.71992
-2.72192
-2.7239
-2.72583
-2.72773
-2.72959
-2.73141
-2.73319
-2.73493
-2.73663
-2.73829
-2.7399
-2.74148
-2.743
-2.74448
-2.74592
-2.7473
-2.74864
-2.74993
-2.75116
-2.75235
-2.75348
-2.75455
-2.75557
-2.75654
-2.75744
-2.75829
-2.75908
-2.7598
-2.76047
-2.76107
-2.7616
-2.76207
-2.76246
-2.76279
-2.76304
-2.76322
-2.76332
-2.76334
-2.76328
-2.76314
-2.76291
-2.7626
-2.76221
-2.76172
-2.76114
-2.76047
-2.7597
-2.75883
-2.75786
-2.75679
-2.75561
-2.75432
-2.75292
-2.7514
-2.74977
-2.74801
-2.74613
-2.74413
-2.74199
-2.73971
-2.7373
-2.73474
-2.73204
-2.72919
-2.72618
-2.72302
-2.71969
-2.7162
-2.71253
-2.70868
-2.70465
-2.70043
-2.69602
-2.69141
-2.6866
-2.68158
-2.67634
-2.67088
-2.66519
-2.65927
-2.65311
-2.6467
-2.64004
-2.63312
-2.62592
-2.61845
-2.6107
-2.60265
-2.5943
-2.58564
-2.57666
-2.56735
-2.5577
-2.54771
-2.53736
-2.52665
-2.51556
-2.50408
-2.4922
-2.47992
-2.46721
-2.45407
-2.44049
-2.42645
-2.41194
-2.39695
-2.38146
-2.36547
-2.34896
-2.33191
-2.31431
-2.29616
-2.27742
-2.25809
-2.23816
-2.2176
-2.1964
-2.17456
-2.15204
-2.12885
-2.10496
-2.08035
-2.05502
-2.02896
-2.00213
-1.97454
-1.94617
-1.917
-1.88702
-1.85622
-1.8246
-1.79214
-1.75883
-1.72467
-1.68965
-1.65378
-1.61706
-1.57948
-1.54105
-1.50177
-1.46166
-1.42073
-1.37898
-1.33643
-1.2931
-1.24901
-1.20418
-1.15864
-1.1124
-1.06551
-1.01799
-0.969895
-0.921229
-0.872006
-0.822239
-0.771944
-0.72111
-0.669689
-0.617586
-0.564644
-0.510623
-0.455159
-0.397713
-0.337509
-0.273449
-0.204032
-0.127259
-0.0405974
0.0589688
0.17467
0.309304
0.463964
0.63578
0.814174
0.974089
1.06168
0.968005
0.517092
-85.5316
-268.32
-429.708
-561.112
-660.292
-729.249
-772.412
-794.928
-801.723
-797.059
-784.389
-766.382
-745.017
-721.719
-697.482
-672.981
-648.665
-624.819
-601.621
-579.172
-557.524
-536.694
-516.682
-497.469
-479.033
-461.344
-444.37
-428.078
-412.437
-397.414
-382.979
-369.103
-355.758
-342.918
-330.558
-318.657
-307.192
-296.144
-285.494
-275.224
-265.32
-255.764
-246.543
-237.644
-229.053
-220.76
-212.753
-205.02
-197.554
-190.343
-183.38
-176.656
-170.163
-163.895
-157.845
-152.007
-146.374
-140.941
-135.703
-130.656
-125.794
-121.115
-116.613
-112.285
-108.129
-104.14
-100.314
-96.6499
-93.1425
-89.7883
-86.5831
-83.522
-80.5996
-77.8101
-75.147
-72.6035
-70.1725
-67.8469
-65.6193
-63.4831
-61.4318
-59.4593
-57.5602
-55.7296
-53.9632
-52.2571
-50.6079
-49.0125
-47.4683
-45.9727
-44.5236
-43.119
-41.7571
-40.4363
-39.1551
-37.9122
-36.7065
-35.5368
-34.4022
-33.302
-32.2355
-31.2021
-30.2013
-29.2329
-28.2966
-27.3923
-26.5198
-25.6791
-24.8701
-24.0927
-23.3466
-22.6316
-21.9469
-21.2918
-20.6653
-20.0662
-19.4928
-18.9437
-18.4171
-17.9114
-17.4248
-16.9558
-16.5029
-16.0648
-15.6402
-15.2281
-14.8276
-14.4378
-14.0582
-13.6882
-13.3272
-12.9748
-12.6308
-12.2948
-11.9666
-11.6461
-11.3332
-11.0279
-10.7302
-10.4401
-10.1577
-9.88307
-9.61638
-9.35773
-9.10719
-8.86484
-8.63068
-8.40465
-8.18664
-7.97646
-7.77386
-7.57855
-7.39019
-7.2084
-7.03282
-6.86306
-6.69875
-6.53954
-6.38512
-6.23517
-6.08945
-5.94771
-5.80974
-5.67537
-5.54444
-5.41681
-5.29238
-5.17107
-5.05281
-4.93758
-4.82535
-4.71612
-4.60991
-4.50674
-4.40663
-4.3096
-4.21567
-4.12483
-4.03703
-3.95221
-3.87028
-3.79107
-3.71443
-3.64013
-3.56795
-3.49765
-3.42899
-3.36176
-3.29576
-3.23083
-3.16683
-3.10369
-3.04138
-2.97988
-2.91924
-2.85952
-2.80082
-2.74323
-2.68688
-2.63189
-2.57836
-2.5264
-2.4761
-2.42755
-2.38081
-2.33591
-2.29289
-2.25174
-2.21247
-2.17502
-2.13934
-2.10534
-2.07294
-2.04202
-2.01245
-1.98409
-1.95681
-1.93049
-1.90498
-1.88019
-1.85599
-1.83232
-1.80908
-1.78622
-1.76368
-1.74144
-1.71946
-1.69774
-1.67626
-1.65503
-1.63406
-1.61337
-1.59298
-1.57291
-1.55319
-1.53383
-1.51487
-1.49631
-1.47817
-1.46045
-1.44315
-1.42627
-1.40979
-1.39371
-1.378
-1.36267
-1.34771
-1.3331
-1.31885
-1.30497
-1.29145
-1.27831
-1.26556
-1.2532
-1.24125
-1.22972
-1.21861
-1.20792
-1.19766
-1.18784
-1.17844
-1.16947
-1.16091
-1.15278
-1.14505
-1.13772
-1.13078
-1.12422
-1.11802
-1.11217
-1.10665
-1.10146
-1.09657
-1.09199
-1.08769
-1.08367
-1.07992
-1.07645
-1.07325
-1.07032
-1.06766
-1.06528
-1.06317
-1.06134
-1.05977
-1.05848
-1.05745
-1.05669
-1.05618
-1.05593
-1.05592
-1.05616
-1.05662
-1.05731
-1.05822
-1.05933
-1.06065
-1.06217
-1.06388
-1.06576
-1.06783
-1.07006
-1.07245
-1.075
-1.0777
-1.08054
-1.08353
-1.08665
-1.0899
-1.09327
-1.09677
-1.10038
-1.10411
-1.10794
-1.11188
-1.11592
-1.12005
-1.12429
-1.12861
-1.13302
-1.13752
-1.14209
-1.14675
-1.15149
-1.1563
-1.16119
-1.16615
-1.17117
-1.17626
-1.18142
-1.18663
-1.19191
-1.19724
-1.20262
-1.20806
-1.21354
-1.21907
-1.22465
-1.23027
-1.23594
-1.24164
-1.24738
-1.25316
-1.25898
-1.26483
-1.27071
-1.27663
-1.28258
-1.28856
-1.29456
-1.3006
-1.30665
-1.31274
-1.31885
-1.32498
-1.33114
-1.33731
-1.34351
-1.34973
-1.35597
-1.36223
-1.36851
-1.37481
-1.38112
-1.38746
-1.39381
-1.40017
-1.40656
-1.41295
-1.41936
-1.42578
-1.43222
-1.43867
-1.44512
-1.45159
-1.45807
-1.46456
-1.47105
-1.47756
-1.48407
-1.49059
-1.49712
-1.50365
-1.51019
-1.51674
-1.52329
-1.52984
-1.5364
-1.54296
-1.54953
-1.5561
-1.56268
-1.56926
-1.57584
-1.58242
-1.58901
-1.59561
-1.60221
-1.60881
-1.61541
-1.62202
-1.62863
-1.63525
-1.64186
-1.64848
-1.6551
-1.66172
-1.66834
-1.67496
-1.68158
-1.68821
-1.69483
-1.70145
-1.70808
-1.7147
-1.72132
-1.72794
-1.73456
-1.74118
-1.7478
-1.75441
-1.76103
-1.76764
-1.77425
-1.78086
-1.78747
-1.79408
-1.80068
-1.80729
-1.81389
-1.8205
-1.8271
-1.8337
-1.8403
-1.8469
-1.8535
-1.8601
-1.86669
-1.87328
-1.87987
-1.88646
-1.89305
-1.89963
-1.90621
-1.91278
-1.91935
-1.92592
-1.93249
-1.93905
-1.94561
-1.95216
-1.95872
-1.96527
-1.97181
-1.97836
-1.9849
-1.99143
-1.99797
-2.0045
-2.01102
-2.01755
-2.02407
-2.03058
-2.0371
-2.04361
-2.05011
-2.05662
-2.06312
-2.06962
-2.07611
-2.0826
-2.08909
-2.09558
-2.10206
-2.10853
-2.11501
-2.12147
-2.12793
-2.13439
-2.14084
-2.14729
-2.15373
-2.16017
-2.1666
-2.17303
-2.17945
-2.18587
-2.19228
-2.19869
-2.20509
-2.21149
-2.21788
-2.22427
-2.23065
-2.23703
-2.24341
-2.24978
-2.25614
-2.2625
-2.26886
-2.27521
-2.28156
-2.2879
-2.29424
-2.30057
-2.3069
-2.31323
-2.31955
-2.32586
-2.33217
-2.33847
-2.34476
-2.35105
-2.35733
-2.3636
-2.36987
-2.37613
-2.38238
-2.38863
-2.39487
-2.4011
-2.40733
-2.41355
-2.41977
-2.42598
-2.43218
-2.43838
-2.44457
-2.45075
-2.45693
-2.4631
-2.46926
-2.47542
-2.48157
-2.48771
-2.49385
-2.49999
-2.50611
-2.51223
-2.51835
-2.52445
-2.53056
-2.53665
-2.54274
-2.54882
-2.5549
-2.56096
-2.56702
-2.57308
-2.57912
-2.58516
-2.59119
-2.59721
-2.60323
-2.60923
-2.61523
-2.62122
-2.6272
-2.63318
-2.63915
-2.64511
-2.65106
-2.65701
-2.66295
-2.66888
-2.6748
-2.68072
-2.68663
-2.69252
-2.69842
-2.7043
-2.71018
-2.71605
-2.72191
-2.72776
-2.7336
-2.73944
-2.74527
-2.75109
-2.7569
-2.7627
-2.76849
-2.77427
-2.78005
-2.78581
-2.79156
-2.79731
-2.80305
-2.80877
-2.81449
-2.8202
-2.8259
-2.83159
-2.83728
-2.84295
-2.84862
-2.85427
-2.85992
-2.86556
-2.87119
-2.87681
-2.88242
-2.88802
-2.89362
-2.8992
-2.90478
-2.91035
-2.9159
-2.92145
-2.92699
-2.93251
-2.93803
-2.94354
-2.94903
-2.95452
-2.95999
-2.96546
-2.97091
-2.97636
-2.98179
-2.98721
-2.99263
-2.99803
-3.00342
-3.0088
-3.01417
-3.01952
-3.02487
-3.03021
-3.03553
-3.04085
-3.04615
-3.05145
-3.05673
-3.062
-3.06727
-3.07252
-3.07776
-3.083
-3.08822
-3.09343
-3.09863
-3.10382
-3.109
-3.11417
-3.11933
-3.12448
-3.12961
-3.13474
-3.13985
-3.14495
-3.15004
-3.15512
-3.16018
-3.16524
-3.17028
-3.1753
-3.18032
-3.18532
-3.19031
-3.19528
-3.20025
-3.2052
-3.21014
-3.21506
-3.21998
-3.22488
-3.22977
-3.23464
-3.23951
-3.24436
-3.2492
-3.25403
-3.25884
-3.26365
-3.26844
-3.27321
-3.27798
-3.28273
-3.28747
-3.2922
-3.29691
-3.30161
-3.3063
-3.31097
-3.31563
-3.32028
-3.32491
-3.32953
-3.33414
-3.33873
-3.3433
-3.34786
-3.35241
-3.35695
-3.36147
-3.36597
-3.37046
-3.37494
-3.3794
-3.38385
-3.38829
-3.39271
-3.39712
-3.40151
-3.40589
-3.41026
-3.41461
-3.41895
-3.42327
-3.42758
-3.43188
-3.43616
-3.44043
-3.44468
-3.44892
-3.45314
-3.45734
-3.46153
-3.46571
-3.46987
-3.47401
-3.47813
-3.48224
-3.48633
-3.49041
-3.49447
-3.49851
-3.50254
-3.50656
-3.51055
-3.51454
-3.5185
-3.52245
-3.52639
-3.53031
-3.53421
-3.5381
-3.54197
-3.54582
-3.54966
-3.55348
-3.55729
-3.56108
-3.56486
-3.56861
-3.57236
-3.57608
-3.57979
-3.58348
-3.58715
-3.5908
-3.59443
-3.59805
-3.60164
-3.60522
-3.60878
-3.61232
-3.61584
-3.61935
-3.62283
-3.6263
-3.62975
-3.63318
-3.6366
-3.63999
-3.64337
-3.64673
-3.65008
-3.65341
-3.65672
-3.66001
-3.66328
-3.66653
-3.66977
-3.67299
-3.67619
-3.67937
-3.68252
-3.68566
-3.68878
-3.69187
-3.69495
-3.698
-3.70103
-3.70404
-3.70703
-3.71
-3.71294
-3.71587
-3.71877
-3.72165
-3.72451
-3.72734
-3.73015
-3.73294
-3.73571
-3.73845
-3.74116
-3.74385
-3.74652
-3.74916
-3.75177
-3.75436
-3.75692
-3.75945
-3.76195
-3.76443
-3.76688
-3.7693
-3.7717
-3.77406
-3.7764
-3.7787
-3.78098
-3.78322
-3.78543
-3.78761
-3.78975
-3.79186
-3.79394
-3.79598
-3.79799
-3.79996
-3.80189
-3.80379
-3.80565
-3.80747
-3.80925
-3.81099
-3.81269
-3.81434
-3.81596
-3.81753
-3.81906
-3.82054
-3.82198
-3.82337
-3.82471
-3.826
-3.82724
-3.82842
-3.82956
-3.83064
-3.83166
-3.83263
-3.83354
-3.8344
-3.83519
-3.83592
-3.83659
-3.8372
-3.83774
-3.83821
-3.83862
-3.83895
-3.83922
-3.8394
-3.83951
-3.83954
-3.8395
-3.83937
-3.83915
-3.83886
-3.83847
-3.838
-3.83743
-3.83677
-3.83602
-3.83516
-3.83421
-3.83315
-3.83199
-3.83072
-3.82934
-3.82784
-3.82622
-3.82448
-3.82262
-3.82063
-3.81851
-3.81626
-3.81387
-3.81134
-3.80866
-3.80583
-3.80285
-3.79971
-3.79641
-3.79294
-3.7893
-3.78548
-3.78148
-3.77729
-3.77291
-3.76833
-3.76355
-3.75856
-3.75336
-3.74793
-3.74228
-3.7364
-3.73028
-3.72391
-3.71729
-3.71041
-3.70327
-3.69584
-3.68813
-3.68013
-3.67183
-3.66322
-3.6543
-3.64505
-3.63546
-3.62553
-3.61524
-3.6046
-3.59357
-3.58217
-3.57036
-3.55815
-3.54552
-3.53247
-3.51897
-3.50502
-3.4906
-3.47571
-3.46032
-3.44444
-3.42803
-3.4111
-3.39362
-3.37559
-3.35698
-3.33779
-3.31799
-3.29758
-3.27654
-3.25485
-3.23251
-3.20949
-3.18578
-3.16137
-3.13623
-3.11037
-3.08377
-3.0564
-3.02826
-2.99934
-2.96961
-2.93908
-2.90773
-2.87556
-2.84256
-2.80871
-2.77402
-2.73848
-2.7021
-2.66488
-2.62682
-2.58793
-2.5482
-2.50766
-2.46631
-2.42416
-2.38123
-2.33754
-2.29311
-2.24797
-2.20213
-2.1556
-2.1084
-2.06058
-2.01216
-1.96315
-1.91353
-1.86328
-1.81237
-1.76073
-1.70824
-1.65472
-1.59989
-1.54335
-1.4845
-1.42255
-1.35636
-1.28443
-1.20479
-1.11496
-1.012
-0.892727
-0.754209
-0.594656
-0.414932
-0.220848
-0.0268797
0.137343
0.219463
0.150716
-68.2446
-226.566
-373.998
-498.157
-595.355
-665.952
-712.903
-740.302
-752.376
-752.956
-745.245
-731.784
-714.503
-694.823
-673.766
-652.046
-630.156
-608.426
-587.075
-566.241
-546.009
-526.426
-507.513
-489.274
-471.702
-454.784
-438.499
-422.825
-407.74
-393.218
-379.237
-365.772
-352.802
-340.303
-328.255
-316.64
-305.437
-294.63
-284.202
-274.137
-264.421
-255.04
-245.982
-237.233
-228.783
-220.619
-212.733
-205.113
-197.752
-190.64
-183.768
-177.13
-170.719
-164.526
-158.547
-152.774
-147.204
-141.829
-136.646
-131.649
-126.835
-122.199
-117.738
-113.449
-109.327
-105.369
-101.573
-97.9339
-94.4493
-91.1151
-87.927
-84.8802
-81.9696
-79.1895
-76.5336
-73.9954
-71.5681
-69.2448
-67.0186
-64.8829
-62.8316
-60.8589
-58.9595
-57.1286
-55.362
-53.6559
-52.0069
-50.412
-48.8684
-47.3738
-45.9259
-44.5227
-43.1625
-41.8436
-40.5646
-39.324
-38.1207
-36.9536
-35.8219
-34.7246
-33.661
-32.6307
-31.633
-30.6677
-29.7345
-28.833
-27.9633
-27.1252
-26.3185
-25.5431
-24.7986
-24.0847
-23.4007
-22.7459
-22.1191
-21.5193
-20.9449
-20.3945
-19.8664
-19.359
-18.8707
-18.3999
-17.9453
-17.5056
-17.0796
-16.6663
-16.2647
-15.8741
-15.4939
-15.1234
-14.7622
-14.4098
-14.0659
-13.7302
-13.4025
-13.0827
-12.7706
-12.4661
-12.1694
-11.8803
-11.5989
-11.3254
-11.0598
-10.8022
-10.5527
-10.3112
-10.0779
-9.85255
-9.63512
-9.4254
-9.22317
-9.02812
-8.83993
-8.65825
-8.48272
-8.31298
-8.14867
-7.98945
-7.83502
-7.68509
-7.5394
-7.39772
-7.25985
-7.12561
-6.99484
-6.86741
-6.74321
-6.62217
-6.50421
-6.38929
-6.27739
-6.16851
-6.06264
-5.9598
-5.86
-5.76327
-5.66959
-5.57896
-5.49132
-5.40662
-5.32475
-5.24556
-5.1689
-5.09456
-5.02233
-4.95199
-4.88331
-4.81609
-4.75014
-4.68532
-4.6215
-4.5586
-4.49658
-4.43545
-4.37521
-4.31594
-4.25772
-4.20063
-4.14478
-4.09027
-4.03722
-3.98572
-3.93584
-3.88767
-3.84126
-3.79665
-3.75386
-3.7129
-3.67375
-3.63638
-3.60072
-3.56671
-3.53424
-3.50322
-3.47352
-3.44502
-3.41759
-3.3911
-3.36545
-3.34051
-3.3162
-3.29241
-3.26909
-3.24617
-3.2236
-3.20135
-3.17938
-3.15769
-3.13627
-3.11512
-3.09424
-3.07365
-3.05338
-3.03343
-3.01383
-2.9946
-2.97576
-2.95732
-2.9393
-2.92169
-2.9045
-2.88772
-2.87134
-2.85535
-2.83975
-2.82452
-2.80965
-2.79515
-2.78101
-2.76722
-2.75381
-2.74077
-2.72812
-2.71586
-2.704
-2.69255
-2.68152
-2.6709
-2.66071
-2.65094
-2.64159
-2.63265
-2.62413
-2.61602
-2.60831
-2.60099
-2.59406
-2.5875
-2.58129
-2.57544
-2.56991
-2.5647
-2.5598
-2.5552
-2.55089
-2.54685
-2.5431
-2.53961
-2.53639
-2.53345
-2.53077
-2.52837
-2.52624
-2.52437
-2.52278
-2.52145
-2.52038
-2.51958
-2.51902
-2.51872
-2.51866
-2.51883
-2.51923
-2.51986
-2.52069
-2.52174
-2.52299
-2.52443
-2.52606
-2.52787
-2.52985
-2.532
-2.53431
-2.53678
-2.5394
-2.54216
-2.54506
-2.54809
-2.55126
-2.55454
-2.55795
-2.56148
-2.56512
-2.56886
-2.57271
-2.57666
-2.58071
-2.58485
-2.58909
-2.59341
-2.59781
-2.6023
-2.60687
-2.61152
-2.61624
-2.62103
-2.6259
-2.63083
-2.63582
-2.64089
-2.64601
-2.65119
-2.65642
-2.66171
-2.66705
-2.67244
-2.67788
-2.68336
-2.68888
-2.69445
-2.70006
-2.70571
-2.71139
-2.71711
-2.72287
-2.72866
-2.73448
-2.74033
-2.74622
-2.75213
-2.75807
-2.76403
-2.77002
-2.77604
-2.78207
-2.78813
-2.79422
-2.80032
-2.80645
-2.81259
-2.81876
-2.82494
-2.83114
-2.83736
-2.8436
-2.84985
-2.85612
-2.86241
-2.86871
-2.87502
-2.88135
-2.88768
-2.89403
-2.90039
-2.90677
-2.91315
-2.91954
-2.92594
-2.93234
-2.93876
-2.94518
-2.95161
-2.95805
-2.96449
-2.97094
-2.97739
-2.98385
-2.99032
-2.99678
-3.00325
-3.00973
-3.01621
-3.02269
-3.02918
-3.03567
-3.04216
-3.04866
-3.05516
-3.06167
-3.06818
-3.07469
-3.0812
-3.08772
-3.09424
-3.10076
-3.10728
-3.1138
-3.12033
-3.12685
-3.13338
-3.1399
-3.14643
-3.15296
-3.15948
-3.16601
-3.17253
-3.17906
-3.18558
-3.1921
-3.19862
-3.20514
-3.21166
-3.21818
-3.22469
-3.23121
-3.23772
-3.24423
-3.25074
-3.25725
-3.26376
-3.27027
-3.27677
-3.28328
-3.28978
-3.29629
-3.30279
-3.30929
-3.31579
-3.32228
-3.32878
-3.33527
-3.34175
-3.34824
-3.35472
-3.3612
-3.36768
-3.37415
-3.38062
-3.38709
-3.39355
-3.40001
-3.40647
-3.41292
-3.41937
-3.42582
-3.43227
-3.43871
-3.44515
-3.45158
-3.45801
-3.46444
-3.47087
-3.47729
-3.48371
-3.49012
-3.49654
-3.50295
-3.50935
-3.51576
-3.52216
-3.52856
-3.53495
-3.54134
-3.54773
-3.55411
-3.56049
-3.56686
-3.57323
-3.57959
-3.58595
-3.5923
-3.59865
-3.605
-3.61134
-3.61767
-3.624
-3.63033
-3.63665
-3.64296
-3.64927
-3.65558
-3.66188
-3.66818
-3.67447
-3.68076
-3.68704
-3.69332
-3.6996
-3.70586
-3.71213
-3.71839
-3.72465
-3.7309
-3.73714
-3.74339
-3.74963
-3.75586
-3.76209
-3.76831
-3.77452
-3.78073
-3.78693
-3.79313
-3.79932
-3.80551
-3.81168
-3.81785
-3.82402
-3.83018
-3.83633
-3.84248
-3.84862
-3.85475
-3.86088
-3.867
-3.87312
-3.87923
-3.88533
-3.89143
-3.89752
-3.9036
-3.90968
-3.91575
-3.92182
-3.92787
-3.93393
-3.93997
-3.94601
-3.95205
-3.95808
-3.9641
-3.97011
-3.97612
-3.98212
-3.98812
-3.99411
-4.00009
-4.00607
-4.01203
-4.01799
-4.02395
-4.02989
-4.03583
-4.04176
-4.04768
-4.0536
-4.05951
-4.06541
-4.0713
-4.07718
-4.08306
-4.08893
-4.09479
-4.10065
-4.1065
-4.11234
-4.11817
-4.124
-4.12981
-4.13562
-4.14142
-4.14722
-4.15301
-4.15878
-4.16456
-4.17032
-4.17607
-4.18182
-4.18756
-4.19329
-4.19901
-4.20472
-4.21042
-4.21611
-4.2218
-4.22747
-4.23314
-4.2388
-4.24444
-4.25008
-4.25571
-4.26134
-4.26695
-4.27255
-4.27815
-4.28374
-4.28931
-4.29488
-4.30044
-4.306
-4.31154
-4.31707
-4.3226
-4.32812
-4.33362
-4.33912
-4.34461
-4.35009
-4.35556
-4.36102
-4.36647
-4.37191
-4.37735
-4.38277
-4.38818
-4.39358
-4.39897
-4.40435
-4.40971
-4.41507
-4.42042
-4.42576
-4.43109
-4.4364
-4.44171
-4.447
-4.45229
-4.45756
-4.46283
-4.46808
-4.47332
-4.47856
-4.48378
-4.48899
-4.49419
-4.49939
-4.50457
-4.50974
-4.5149
-4.52005
-4.52519
-4.53032
-4.53544
-4.54055
-4.54565
-4.55074
-4.55582
-4.56088
-4.56594
-4.57098
-4.57601
-4.58103
-4.58603
-4.59103
-4.59601
-4.60098
-4.60594
-4.61088
-4.61582
-4.62074
-4.62565
-4.63054
-4.63543
-4.6403
-4.64516
-4.65001
-4.65484
-4.65967
-4.66448
-4.66928
-4.67407
-4.67884
-4.6836
-4.68836
-4.69309
-4.69782
-4.70253
-4.70724
-4.71192
-4.7166
-4.72126
-4.72592
-4.73055
-4.73518
-4.73979
-4.74439
-4.74897
-4.75354
-4.7581
-4.76264
-4.76717
-4.77169
-4.77619
-4.78068
-4.78515
-4.78961
-4.79406
-4.79849
-4.80291
-4.80732
-4.81171
-4.81609
-4.82046
-4.82481
-4.82914
-4.83347
-4.83778
-4.84208
-4.84636
-4.85063
-4.85488
-4.85912
-4.86335
-4.86756
-4.87176
-4.87594
-4.88011
-4.88426
-4.8884
-4.89252
-4.89662
-4.90071
-4.90479
-4.90885
-4.91289
-4.91691
-4.92093
-4.92492
-4.9289
-4.93287
-4.93681
-4.94075
-4.94467
-4.94857
-4.95245
-4.95633
-4.96018
-4.96402
-4.96784
-4.97165
-4.97544
-4.97922
-4.98298
-4.98672
-4.99045
-4.99416
-4.99786
-5.00153
-5.0052
-5.00884
-5.01247
-5.01607
-5.01967
-5.02324
-5.02679
-5.03033
-5.03384
-5.03734
-5.04082
-5.04429
-5.04773
-5.05116
-5.05457
-5.05796
-5.06134
-5.06469
-5.06803
-5.07136
-5.07466
-5.07795
-5.08122
-5.08447
-5.0877
-5.09092
-5.09412
-5.09729
-5.10045
-5.10359
-5.10671
-5.10981
-5.11289
-5.11595
-5.11899
-5.12201
-5.125
-5.12798
-5.13093
-5.13387
-5.13678
-5.13967
-5.14254
-5.14538
-5.14821
-5.15101
-5.15379
-5.15655
-5.15928
-5.16199
-5.16467
-5.16733
-5.16997
-5.17257
-5.17516
-5.17771
-5.18024
-5.18274
-5.18522
-5.18767
-5.19009
-5.19248
-5.19485
-5.19718
-5.19949
-5.20177
-5.20401
-5.20623
-5.20841
-5.21056
-5.21268
-5.21477
-5.21682
-5.21884
-5.22082
-5.22277
-5.22468
-5.22655
-5.22838
-5.23018
-5.23194
-5.23366
-5.23534
-5.23697
-5.23857
-5.24012
-5.24163
-5.24309
-5.24451
-5.24588
-5.2472
-5.24847
-5.2497
-5.25087
-5.25199
-5.25305
-5.25406
-5.25502
-5.25592
-5.25676
-5.25754
-5.25826
-5.25892
-5.25952
-5.26005
-5.26051
-5.26091
-5.26124
-5.26149
-5.26167
-5.26177
-5.2618
-5.26175
-5.26161
-5.2614
-5.2611
-5.26071
-5.26023
-5.25966
-5.259
-5.25825
-5.2574
-5.25644
-5.25539
-5.25423
-5.25296
-5.25158
-5.25009
-5.24848
-5.24675
-5.24489
-5.24291
-5.2408
-5.23856
-5.23618
-5.23366
-5.23099
-5.22817
-5.22521
-5.22208
-5.2188
-5.21535
-5.21172
-5.20792
-5.20394
-5.19978
-5.19542
-5.19087
-5.18612
-5.18115
-5.17598
-5.17059
-5.16497
-5.15912
-5.15303
-5.1467
-5.14012
-5.13328
-5.12617
-5.11879
-5.11113
-5.10318
-5.09493
-5.08637
-5.0775
-5.06831
-5.05878
-5.04891
-5.0387
-5.02812
-5.01716
-5.00583
-4.99411
-4.98198
-4.96943
-4.95647
-4.94306
-4.9292
-4.91489
-4.9001
-4.88482
-4.86905
-4.85276
-4.83595
-4.8186
-4.8007
-4.78224
-4.76319
-4.74354
-4.72329
-4.70241
-4.6809
-4.65873
-4.6359
-4.61238
-4.58816
-4.56324
-4.53759
-4.5112
-4.48406
-4.45615
-4.42747
-4.398
-4.36772
-4.33663
-4.30472
-4.27199
-4.23842
-4.20401
-4.16876
-4.13265
-4.09571
-4.05792
-4.01929
-3.97981
-3.9395
-3.89836
-3.85641
-3.81364
-3.77006
-3.72569
-3.68055
-3.63464
-3.58797
-3.54054
-3.49234
-3.44338
-3.39365
-3.34312
-3.29173
-3.23939
-3.18598
-3.13133
-3.07519
-3.01719
-2.95687
-2.89353
-2.8263
-2.75397
-2.67497
-2.5873
-2.48847
-2.37551
-2.24509
-2.09376
-1.9183
-1.71627
-1.48632
-1.22822
-0.941706
-0.621266
-0.243231
-54.7455
-188.341
-319.281
-433.532
-526.09
-596.138
-645.396
-676.868
-693.948
-699.879
-697.479
-689.056
-676.419
-660.939
-643.632
-625.235
-606.276
-587.126
-568.045
-549.21
-530.742
-512.717
-495.185
-478.174
-461.697
-445.756
-430.348
-415.462
-401.088
-387.209
-373.81
-360.874
-348.385
-336.326
-324.681
-313.435
-302.571
-292.076
-281.935
-272.136
-262.666
-253.513
-244.665
-236.113
-227.844
-219.851
-212.122
-204.651
-197.427
-190.443
-183.693
-177.168
-170.862
-164.769
-158.882
-153.197
-147.708
-142.41
-137.298
-132.368
-127.617
-123.039
-118.632
-114.393
-110.316
-106.401
-102.642
-99.0379
-95.5836
-92.2759
-89.1106
-86.083
-83.1883
-80.4208
-77.7748
-75.244
-72.822
-70.5022
-68.2781
-66.1437
-64.093
-62.1204
-60.2209
-58.39
-56.6235
-54.9177
-53.2693
-51.6752
-50.1328
-48.6397
-47.1936
-45.7926
-44.4348
-43.1186
-41.8424
-40.6051
-39.4052
-38.2418
-37.1138
-36.0205
-34.961
-33.9348
-32.9413
-31.9802
-31.051
-30.1535
-29.2876
-28.4529
-27.6492
-26.8764
-26.1341
-25.4217
-24.7387
-24.0842
-23.4573
-22.8567
-22.2811
-21.7291
-21.1992
-20.6898
-20.1994
-19.7265
-19.2699
-18.8284
-18.4007
-17.9859
-17.5831
-17.1915
-16.8106
-16.4396
-16.0782
-15.7258
-15.3822
-15.047
-14.72
-14.401
-14.0899
-13.7866
-13.4911
-13.2034
-12.9235
-12.6514
-12.3872
-12.131
-11.8827
-11.6424
-11.4101
-11.1857
-10.969
-10.76
-10.5582
-10.3635
-10.1756
-9.99408
-9.81865
-9.64896
-9.48468
-9.32549
-9.17109
-9.02121
-8.8756
-8.73404
-8.59632
-8.46227
-8.33174
-8.20459
-8.08072
-7.96004
-7.84247
-7.72798
-7.61653
-7.50809
-7.40268
-7.30028
-7.2009
-7.10454
-7.01119
-6.92084
-6.83342
-6.74887
-6.66709
-6.58794
-6.51127
-6.43689
-6.36461
-6.29422
-6.22552
-6.15832
-6.09245
-6.02777
-5.96417
-5.90156
-5.83992
-5.77922
-5.71949
-5.66078
-5.60314
-5.54667
-5.49144
-5.43755
-5.3851
-5.33416
-5.28481
-5.23711
-5.19112
-5.14686
-5.10437
-5.06363
-5.02463
-4.98734
-4.95171
-4.91766
-4.88511
-4.85395
-4.82409
-4.7954
-4.76777
-4.74108
-4.71523
-4.69011
-4.66562
-4.64169
-4.61825
-4.59524
-4.57261
-4.55033
-4.52836
-4.5067
-4.48533
-4.46425
-4.44346
-4.42299
-4.40283
-4.38301