/*--------------------------------*- C++ -*----------------------------------*\
| =========                 |                                                 |
| \\      /  F ield         | OpenFOAM: The Open Source CFD Toolbox           |
|  \\    /   O peration     | Version:  2512                                  |
|   \\  /    A nd           | Website:  www.openfoam.com                      |
|    \\/     M anipulation  |                                                 |
\*---------------------------------------------------------------------------*/
FoamFile
{
    version     2.0;
    format      ascii;
    arch        "LSB;label=32;scalar=64";
    class       surfaceScalarField;
    location    "0.004";
    object      phi;
}
// * * * * * * * * * * * * * * * * * * * * * * * * * * * * * * * * * * * * * //

dimensions      [1 0 -1 0 0 0 0];

oriented        oriented;

internalField   nonuniform List<scalar> 
198900
(
0.00147909
0.000461135
0.00107088
0.000409717
0.000810561
0.000261378
0.000646272
0.000165367
0.000540952
0.000106414
0.000472035
7.00205e-05
0.000425671
4.74738e-05
0.000393481
3.33045e-05
0.000370415
2.41815e-05
0.00035338
1.81506e-05
0.000340433
1.40602e-05
0.000330329
1.12155e-05
0.000322251
9.18684e-06
0.000315654
7.70318e-06
0.000310167
6.59044e-06
0.000305533
5.7352e-06
0.00030157
5.06259e-06
0.000298145
4.52252e-06
0.00029516
4.0809e-06
0.000292541
3.71414e-06
0.000290229
3.4055e-06
0.000288178
3.1429e-06
0.000286352
2.91735e-06
0.000284721
2.72208e-06
0.000283259
2.55182e-06
0.000281946
2.40247e-06
0.000280764
2.27073e-06
0.000279699
2.15396e-06
0.000278737
2.04999e-06
0.000277868
1.95705e-06
0.000277082
1.87365e-06
0.000276371
1.79855e-06
0.000275727
1.73073e-06
0.000275145
1.66929e-06
0.000274618
1.6135e-06
0.000274143
1.56271e-06
0.000273713
1.51637e-06
0.000273326
1.47403e-06
0.000272977
1.43528e-06
0.000272664
1.39976e-06
0.000272384
1.36716e-06
0.000272133
1.33721e-06
0.000271911
1.30967e-06
0.000271713
1.28431e-06
0.000271539
1.26093e-06
0.000271387
1.23937e-06
0.000271255
1.21944e-06
0.000271141
1.20102e-06
0.000271045
1.18397e-06
0.000270965
1.16818e-06
0.000270899
1.15353e-06
0.000270847
1.13994e-06
0.000270808
1.12731e-06
0.000270781
1.11558e-06
0.000270765
1.10468e-06
0.000270759
1.09454e-06
0.000270763
1.0851e-06
0.000270775
1.07632e-06
0.000270797
1.06814e-06
0.000270826
1.06053e-06
0.000270862
1.05343e-06
0.000270905
1.04682e-06
0.000270955
1.04067e-06
0.000271011
1.03496e-06
0.000271072
1.02966e-06
0.000271138
1.02478e-06
0.000271209
1.0203e-06
0.000271284
1.01626e-06
0.000271363
1.01264e-06
0.000271446
1.00948e-06
0.000271531
1.00678e-06
0.000271619
1.00455e-06
0.000271709
1.00279e-06
0.000271801
1.00146e-06
0.000271894
1.00051e-06
0.000271988
9.99898e-07
0.000272082
9.99538e-07
0.000272177
9.99359e-07
0.000272272
9.99288e-07
0.000272368
9.99265e-07
0.000272463
9.99243e-07
0.00027256
9.99193e-07
0.000272656
9.99098e-07
0.000272753
9.98954e-07
0.000272851
9.98764e-07
0.000272949
9.98535e-07
0.000273048
9.98278e-07
0.000273147
9.97999e-07
0.000273247
9.97707e-07
0.000273347
9.97407e-07
0.000273449
9.97102e-07
0.00027355
9.96794e-07
0.000273653
9.96484e-07
0.000273756
9.96172e-07
0.000273859
9.95857e-07
0.000273964
9.95539e-07
0.000274069
9.95215e-07
0.000274174
9.94886e-07
0.000274281
9.94549e-07
0.000274388
9.94204e-07
0.000274496
9.93849e-07
0.000274604
9.93482e-07
0.000274713
9.93105e-07
0.000274823
9.92717e-07
0.000274934
9.92321e-07
0.000275045
9.91921e-07
0.000275157
9.91526e-07
0.00027527
9.91148e-07
0.000275384
9.90801e-07
0.000275498
9.90504e-07
0.000275613
9.90276e-07
0.000275728
9.90134e-07
0.000275844
9.90092e-07
0.00027596
9.90157e-07
0.000276076
9.90328e-07
0.000276192
9.90596e-07
0.000276309
9.90943e-07
0.000276425
9.91348e-07
0.000276541
9.91787e-07
0.000276657
9.92236e-07
0.000276773
9.92675e-07
0.000276889
9.93089e-07
0.000277005
9.93469e-07
0.000277121
9.93809e-07
0.000277238
9.94108e-07
0.000277354
9.94366e-07
0.00027747
9.94587e-07
0.000277587
9.94773e-07
0.000277704
9.94927e-07
0.000277821
9.95053e-07
0.000277939
9.95152e-07
0.000278056
9.95226e-07
0.000278174
9.95277e-07
0.000278293
9.95305e-07
0.000278412
9.9531e-07
0.000278531
9.95295e-07
0.000278651
9.95259e-07
0.000278771
9.95205e-07
0.000278892
9.95133e-07
0.000279013
9.95048e-07
0.000279135
9.94953e-07
0.000279257
9.94851e-07
0.000279379
9.94749e-07
0.000279503
9.94653e-07
0.000279626
9.94568e-07
0.00027975
9.945e-07
0.000279875
9.94453e-07
0.00028
9.94432e-07
0.000280126
9.94438e-07
0.000280252
9.9447e-07
0.000280378
9.94525e-07
0.000280504
9.946e-07
0.000280631
9.94689e-07
0.000280759
9.94788e-07
0.000280886
9.94891e-07
0.000281014
9.94994e-07
0.000281142
9.95096e-07
0.000281271
9.95192e-07
0.0002814
9.95283e-07
0.000281529
9.95367e-07
0.000281659
9.95444e-07
0.000281789
9.95513e-07
0.000281919
9.95575e-07
0.00028205
9.95629e-07
0.000282181
9.95675e-07
0.000282313
9.95714e-07
0.000282445
9.95745e-07
0.000282577
9.95769e-07
0.00028271
9.95786e-07
0.000282843
9.95796e-07
0.000282977
9.95801e-07
0.000283111
9.958e-07
0.000283246
9.95796e-07
0.000283381
9.9579e-07
0.000283516
9.95784e-07
0.000283652
9.95781e-07
0.000283789
9.95783e-07
0.000283926
9.95794e-07
0.000284063
9.95816e-07
0.000284201
9.9585e-07
0.000284339
9.95898e-07
0.000284478
9.95958e-07
0.000284617
9.96029e-07
0.000284757
9.96108e-07
0.000284896
9.9619e-07
0.000285037
9.9627e-07
0.000285177
9.96344e-07
0.000285318
9.96408e-07
0.00028546
9.96458e-07
0.000285602
9.96493e-07
0.000285744
9.9651e-07
0.000285887
9.96511e-07
0.00028603
9.96495e-07
0.000286174
9.96464e-07
0.000286318
9.96422e-07
0.000286463
9.96371e-07
0.000286609
9.96313e-07
0.000286755
9.96253e-07
0.000286901
9.96193e-07
0.000287049
9.96136e-07
0.000287196
9.96083e-07
0.000287345
9.96036e-07
0.000287493
9.95996e-07
0.000287643
9.95962e-07
0.000287792
9.95934e-07
0.000287943
9.95914e-07
0.000288094
9.95902e-07
0.000288245
9.95898e-07
0.000288397
9.95902e-07
0.000288549
9.95914e-07
0.000288702
9.95936e-07
0.000288855
9.95965e-07
0.000289009
9.96001e-07
0.000289164
9.96043e-07
0.000289318
9.96087e-07
0.000289473
9.96134e-07
0.000289629
9.96179e-07
0.000289785
9.96222e-07
0.000289942
9.96261e-07
0.000290099
9.96295e-07
0.000290257
9.96323e-07
0.000290415
9.96345e-07
0.000290573
9.96361e-07
0.000290733
9.96372e-07
0.000290892
9.96377e-07
0.000291052
9.96376e-07
0.000291213
9.9637e-07
0.000291374
9.9636e-07
0.000291536
9.96345e-07
0.000291699
9.96326e-07
0.000291862
9.96303e-07
0.000292025
9.96278e-07
0.000292189
9.96251e-07
0.000292354
9.96222e-07
0.000292519
9.96192e-07
0.000292685
9.96163e-07
0.000292851
9.96135e-07
0.000293018
9.96108e-07
0.000293185
9.96082e-07
0.000293353
9.96059e-07
0.000293522
9.96036e-07
0.000293691
9.96015e-07
0.000293861
9.95993e-07
0.000294031
9.95972e-07
0.000294202
9.95949e-07
0.000294374
9.95924e-07
0.000294546
9.95898e-07
0.000294718
9.95869e-07
0.000294891
9.95838e-07
0.000295065
9.95806e-07
0.00029524
9.95773e-07
0.000295415
9.95738e-07
0.00029559
9.95704e-07
0.000295766
9.9567e-07
0.000295943
9.95636e-07
0.000296121
9.95603e-07
0.000296299
9.95571e-07
0.000296477
9.95539e-07
0.000296656
9.95508e-07
0.000296836
9.95477e-07
0.000297016
9.95446e-07
0.000297197
9.95416e-07
0.000297379
9.95386e-07
0.000297561
9.95356e-07
0.000297744
9.95327e-07
0.000297927
9.95298e-07
0.000298111
9.95269e-07
0.000298296
9.9524e-07
0.000298481
9.95212e-07
0.000298667
9.95183e-07
0.000298854
9.95154e-07
0.000299041
9.95123e-07
0.000299228
9.95092e-07
0.000299417
9.9506e-07
0.000299605
9.95026e-07
0.000299795
9.94991e-07
0.000299985
9.94954e-07
0.000300176
9.94916e-07
0.000300367
9.94878e-07
0.000300559
9.94838e-07
0.000300752
9.94799e-07
0.000300945
9.94759e-07
0.000301139
9.94719e-07
0.000301334
9.9468e-07
0.000301529
9.9464e-07
0.000301725
9.94601e-07
0.000301922
9.94562e-07
0.000302119
9.94523e-07
0.000302316
9.94484e-07
0.000302515
9.94446e-07
0.000302714
9.94406e-07
0.000302914
9.94367e-07
0.000303114
9.94328e-07
0.000303315
9.94288e-07
0.000303517
9.94248e-07
0.000303719
9.94207e-07
0.000303922
9.94166e-07
0.000304126
9.94125e-07
0.00030433
9.94083e-07
0.000304535
9.94041e-07
0.00030474
9.93998e-07
0.000304946
9.93955e-07
0.000305153
9.93912e-07
0.000305361
9.93868e-07
0.000305569
9.93823e-07
0.000305778
9.93778e-07
0.000305988
9.93733e-07
0.000306198
9.93687e-07
0.000306409
9.93641e-07
0.00030662
9.93594e-07
0.000306832
9.93547e-07
0.000307045
9.93499e-07
0.000307259
9.93451e-07
0.000307473
9.93403e-07
0.000307688
9.93354e-07
0.000307904
9.93304e-07
0.00030812
9.93254e-07
0.000308337
9.93204e-07
0.000308554
9.93153e-07
0.000308773
9.93102e-07
0.000308992
9.9305e-07
0.000309211
9.92998e-07
0.000309432
9.92946e-07
0.000309653
9.92893e-07
0.000309875
9.9284e-07
0.000310097
9.92786e-07
0.00031032
9.92731e-07
0.000310544
9.92677e-07
0.000310768
9.92622e-07
0.000310994
9.92566e-07
0.00031122
9.9251e-07
0.000311446
9.92454e-07
0.000311674
9.92397e-07
0.000311902
9.9234e-07
0.00031213
9.92282e-07
0.00031236
9.92224e-07
0.00031259
9.92166e-07
0.000312821
9.92107e-07
0.000313052
9.92048e-07
0.000313284
9.91989e-07
0.000313517
9.91929e-07
0.000313751
9.91868e-07
0.000313986
9.91808e-07
0.000314221
9.91746e-07
0.000314456
9.91685e-07
0.000314693
9.91623e-07
0.00031493
9.91561e-07
0.000315168
9.91498e-07
0.000315407
9.91435e-07
0.000315646
9.91372e-07
0.000315886
9.91308e-07
0.000316127
9.91244e-07
0.000316369
9.9118e-07
0.000316611
9.91115e-07
0.000316854
9.9105e-07
0.000317098
9.90984e-07
0.000317342
9.90918e-07
0.000317588
9.90852e-07
0.000317834
9.90785e-07
0.00031808
9.90719e-07
0.000318328
9.90651e-07
0.000318576
9.90584e-07
0.000318825
9.90516e-07
0.000319074
9.90448e-07
0.000319325
9.90379e-07
0.000319576
9.9031e-07
0.000319828
9.90241e-07
0.00032008
9.90171e-07
0.000320334
9.90101e-07
0.000320588
9.90031e-07
0.000320843
9.89961e-07
0.000321098
9.8989e-07
0.000321354
9.89819e-07
0.000321611
9.89747e-07
0.000321869
9.89676e-07
0.000322128
9.89604e-07
0.000322387
9.89531e-07
0.000322647
9.89459e-07
0.000322908
9.89386e-07
0.000323169
9.89313e-07
0.000323432
9.8924e-07
0.000323695
9.89166e-07
0.000323959
9.89092e-07
0.000324223
9.89018e-07
0.000324488
9.88943e-07
0.000324754
9.88868e-07
0.000325021
9.88793e-07
0.000325289
9.88718e-07
0.000325557
9.88642e-07
0.000325826
9.88566e-07
0.000326096
9.8849e-07
0.000326367
9.88414e-07
0.000326638
9.88337e-07
0.00032691
9.8826e-07
0.000327183
9.88183e-07
0.000327457
9.88106e-07
0.000327732
9.88028e-07
0.000328007
9.87951e-07
0.000328283
9.87873e-07
0.00032856
9.87794e-07
0.000328837
9.87716e-07
0.000329115
9.87637e-07
0.000329394
9.87558e-07
0.000329674
9.87479e-07
0.000329955
9.874e-07
0.000330236
9.8732e-07
0.000330518
9.87241e-07
0.000330801
9.87161e-07
0.000331085
9.8708e-07
0.00033137
9.87e-07
0.000331655
9.86919e-07
0.000331941
9.86839e-07
0.000332228
9.86758e-07
0.000332515
9.86677e-07
0.000332804
9.86595e-07
0.000333093
9.86514e-07
0.000333383
9.86432e-07
0.000333674
9.8635e-07
0.000333965
9.86268e-07
0.000334257
9.86186e-07
0.00033455
9.86103e-07
0.000334844
9.86021e-07
0.000335139
9.85938e-07
0.000335434
9.85855e-07
0.000335731
9.85772e-07
0.000336028
9.85689e-07
0.000336325
9.85606e-07
0.000336624
9.85522e-07
0.000336923
9.85439e-07
0.000337223
9.85355e-07
0.000337524
9.85271e-07
0.000337826
9.85187e-07
0.000338129
9.85103e-07
0.000338432
9.85018e-07
0.000338736
9.84934e-07
0.000339041
9.84849e-07
0.000339347
9.84765e-07
0.000339653
9.8468e-07
0.00033996
9.84595e-07
0.000340268
9.8451e-07
0.000340577
9.84425e-07
0.000340887
9.84339e-07
0.000341197
9.84254e-07
0.000341509
9.84169e-07
0.000341821
9.84083e-07
0.000342134
9.83997e-07
0.000342447
9.83912e-07
0.000342762
9.83826e-07
0.000343077
9.8374e-07
0.000343393
9.83654e-07
0.00034371
9.83568e-07
0.000344027
9.83482e-07
0.000344346
9.83396e-07
0.000344665
9.83309e-07
0.000344985
9.83223e-07
0.000345306
9.83136e-07
0.000345627
9.8305e-07
0.00034595
9.82963e-07
0.000346273
9.82877e-07
0.000346597
9.8279e-07
0.000346922
9.82703e-07
0.000347247
9.82616e-07
0.000347574
9.82529e-07
0.000347901
9.82443e-07
0.000348229
9.82356e-07
0.000348558
9.82269e-07
0.000348887
9.82182e-07
0.000349218
9.82095e-07
0.000349549
9.82008e-07
0.000349881
9.81921e-07
0.000350214
9.81834e-07
0.000350548
9.81747e-07
0.000350882
9.8166e-07
0.000351217
9.81572e-07
0.000351553
9.81485e-07
0.00035189
9.81398e-07
0.000352228
9.81311e-07
0.000352566
9.81224e-07
0.000352905
9.81136e-07
0.000353246
9.81049e-07
0.000353586
9.80962e-07
0.000353928
9.80875e-07
0.000354271
9.80788e-07
0.000354614
9.807e-07
0.000354958
9.80613e-07
0.000355303
9.80526e-07
0.000355649
9.80439e-07
0.000355995
9.80352e-07
0.000356342
9.80265e-07
0.00035669
9.80178e-07
0.000357039
9.80091e-07
0.000357389
9.80004e-07
0.00035774
9.79918e-07
0.000358091
9.79831e-07
0.000358443
9.79744e-07
0.000358796
9.79657e-07
0.00035915
9.79571e-07
0.000359504
9.79484e-07
0.00035986
9.79397e-07
0.000360216
9.79311e-07
0.000360573
9.79224e-07
0.000360931
9.79138e-07
0.000361289
9.79052e-07
0.000361649
9.78965e-07
0.000362009
9.78879e-07
0.00036237
9.78793e-07
0.000362732
9.78707e-07
0.000363094
9.78621e-07
0.000363458
9.78536e-07
0.000363822
9.7845e-07
0.000364187
9.78364e-07
0.000364553
9.78279e-07
0.00036492
9.78193e-07
0.000365287
9.78108e-07
0.000365655
9.78022e-07
0.000366024
9.77937e-07
0.000366394
9.77852e-07
0.000366765
9.77767e-07
0.000367136
9.77683e-07
0.000367509
9.77598e-07
0.000367882
9.77513e-07
0.000368255
9.77429e-07
0.00036863
9.77345e-07
0.000369006
9.7726e-07
0.000369382
9.77176e-07
0.000369759
9.77093e-07
0.000370137
9.77009e-07
0.000370516
9.76925e-07
0.000370895
9.76842e-07
0.000371275
9.76759e-07
0.000371656
9.76675e-07
0.000372038
9.76592e-07
0.000372421
9.76509e-07
0.000372804
9.76427e-07
0.000373189
9.76344e-07
0.000373574
9.76262e-07
0.00037396
9.7618e-07
0.000374346
9.76098e-07
0.000374734
9.76016e-07
0.000375122
9.75934e-07
0.000375511
9.75852e-07
0.000375901
9.75771e-07
0.000376292
9.7569e-07
0.000376683
9.75609e-07
0.000377075
9.75528e-07
0.000377468
9.75447e-07
0.000377862
9.75367e-07
0.000378257
9.75287e-07
0.000378652
9.75207e-07
0.000379049
9.75127e-07
0.000379446
9.75048e-07
0.000379843
9.74968e-07
0.000380242
9.74889e-07
0.000380641
9.7481e-07
0.000381042
9.74732e-07
0.000381443
9.74653e-07
0.000381844
9.74575e-07
0.000382247
9.74497e-07
0.00038265
9.74419e-07
0.000383054
9.74342e-07
0.000383459
9.74264e-07
0.000383865
9.74187e-07
0.000384272
9.7411e-07
0.000384679
9.74034e-07
0.000385087
9.73957e-07
0.000385496
9.73881e-07
0.000385905
9.73805e-07
0.000386316
9.7373e-07
0.000386727
9.73654e-07
0.000387139
9.73579e-07
0.000387552
9.73505e-07
0.000387965
9.7343e-07
0.00038838
9.73356e-07
0.000388795
9.73282e-07
0.000389211
9.73208e-07
0.000389627
9.73135e-07
0.000390045
9.73062e-07
0.000390463
9.72989e-07
0.000390882
9.72916e-07
0.000391302
9.72844e-07
0.000391722
9.72772e-07
0.000392144
9.727e-07
0.000392566
9.72629e-07
0.000392989
9.72558e-07
0.000393412
9.72487e-07
0.000393837
9.72417e-07
0.000394262
9.72346e-07
0.000394688
9.72277e-07
0.000395115
9.72207e-07
0.000395542
9.72138e-07
0.000395971
9.72069e-07
0.0003964
9.72e-07
0.00039683
9.71932e-07
0.00039726
9.71864e-07
0.000397691
9.71796e-07
0.000398124
9.71729e-07
0.000398556
9.71662e-07
0.00039899
9.71596e-07
0.000399424
9.71529e-07
0.00039986
9.71463e-07
0.000400296
9.71398e-07
0.000400732
9.71333e-07
0.00040117
9.71268e-07
0.000401608
9.71203e-07
0.000402047
9.71139e-07
0.000402487
9.71076e-07
0.000402927
9.71012e-07
0.000403368
9.70949e-07
0.00040381
9.70887e-07
0.000404253
9.70824e-07
0.000404696
9.70763e-07
0.000405141
9.70701e-07
0.000405586
9.7064e-07
0.000406031
9.70579e-07
0.000406478
9.70519e-07
0.000406925
9.70459e-07
0.000407373
9.70399e-07
0.000407822
9.7034e-07
0.000408271
9.70281e-07
0.000408721
9.70223e-07
0.000409172
9.70165e-07
0.000409624
9.70107e-07
0.000410077
9.7005e-07
0.00041053
9.69993e-07
0.000410984
9.69937e-07
0.000411438
9.69881e-07
0.000411894
9.69825e-07
0.00041235
9.6977e-07
0.000412807
9.69716e-07
0.000413264
9.69661e-07
0.000413723
9.69608e-07
0.000414182
9.69554e-07
0.000414641
9.69501e-07
0.000415102
9.69449e-07
0.000415563
9.69397e-07
0.000416025
9.69345e-07
0.000416488
9.69294e-07
0.000416951
9.69243e-07
0.000417415
9.69193e-07
0.00041788
9.69143e-07
0.000418346
9.69094e-07
0.000418812
9.69045e-07
0.000419279
9.68997e-07
0.000419747
9.68949e-07
0.000420215
9.68901e-07
0.000420684
9.68854e-07
0.000421154
9.68808e-07
0.000421625
9.68762e-07
0.000422096
9.68716e-07
0.000422568
9.68671e-07
0.000423041
9.68626e-07
0.000423514
9.68582e-07
0.000423988
9.68538e-07
0.000424463
9.68495e-07
0.000424939
9.68452e-07
0.000425415
9.6841e-07
0.000425892
9.68368e-07
0.000426369
9.68327e-07
0.000426848
9.68287e-07
0.000427327
9.68246e-07
0.000427807
9.68207e-07
0.000428287
9.68168e-07
0.000428768
9.68129e-07
0.00042925
9.68091e-07
0.000429732
9.68053e-07
0.000430216
9.68016e-07
0.0004307
9.6798e-07
0.000431184
9.67944e-07
0.000431669
9.67908e-07
0.000432155
9.67873e-07
0.000432642
9.67839e-07
0.000433129
9.67805e-07
0.000433617
9.67771e-07
0.000434106
9.67739e-07
0.000434595
9.67706e-07
0.000435085
9.67674e-07
0.000435576
9.67643e-07
0.000436067
9.67613e-07
0.000436559
9.67583e-07
0.000437052
9.67553e-07
0.000437545
9.67524e-07
0.00043804
9.67496e-07
0.000438534
9.67468e-07
0.00043903
9.67441e-07
0.000439526
9.67414e-07
0.000440022
9.67388e-07
0.00044052
9.67362e-07
0.000441018
9.67337e-07
0.000441516
9.67313e-07
0.000442016
9.67289e-07
0.000442516
9.67265e-07
0.000443016
9.67243e-07
0.000443518
9.67221e-07
0.00044402
9.67199e-07
0.000444522
9.67178e-07
0.000445025
9.67158e-07
0.000445529
9.67138e-07
0.000446034
9.67119e-07
0.000446539
9.671e-07
0.000447045
9.67083e-07
0.000447551
9.67065e-07
0.000448058
9.67049e-07
0.000448566
9.67033e-07
0.000449074
9.67017e-07
0.000449583
9.67002e-07
0.000450093
9.66988e-07
0.000450603
9.66975e-07
0.000451114
9.66962e-07
0.000451626
9.66949e-07
0.000452138
9.66938e-07
0.000452651
9.66926e-07
0.000453164
9.66916e-07
0.000453678
9.66906e-07
0.000454193
9.66897e-07
0.000454708
9.66888e-07
0.000455224
9.6688e-07
0.00045574
9.66873e-07
0.000456257
9.66866e-07
0.000456775
9.6686e-07
0.000457293
9.66855e-07
0.000457812
9.6685e-07
0.000458332
9.66846e-07
0.000458852
9.66843e-07
0.000459372
9.6684e-07
0.000459894
9.66838e-07
0.000460416
9.66836e-07
0.000460938
9.66836e-07
0.000461461
9.66836e-07
0.000461985
9.66836e-07
0.000462509
9.66838e-07
0.000463034
9.6684e-07
0.000463559
9.66842e-07
0.000464086
9.66846e-07
0.000464612
9.6685e-07
0.000465139
9.66854e-07
0.000465667
9.6686e-07
0.000466196
9.66866e-07
0.000466724
9.66872e-07
0.000467254
9.6688e-07
0.000467784
9.66888e-07
0.000468315
9.66897e-07
0.000468846
9.66906e-07
0.000469378
9.66916e-07
0.00046991
9.66927e-07
0.000470443
9.66939e-07
0.000470977
9.66951e-07
0.000471511
9.66964e-07
0.000472045
9.66977e-07
0.00047258
9.66992e-07
0.000473116
9.67007e-07
0.000473652
9.67023e-07
0.000474189
9.6704e-07
0.000474727
9.67057e-07
0.000475265
9.67075e-07
0.000475803
9.67094e-07
0.000476342
9.67113e-07
0.000476882
9.67133e-07
0.000477422
9.67154e-07
0.000477962
9.67176e-07
0.000478504
9.67199e-07
0.000479045
9.67222e-07
0.000479588
9.67246e-07
0.00048013
9.6727e-07
0.000480674
9.67296e-07
0.000481217
9.67322e-07
0.000481762
9.67349e-07
0.000482307
9.67376e-07
0.000482852
9.67404e-07
0.000483398
9.67434e-07
0.000483944
9.67463e-07
0.000484491
9.67494e-07
0.000485039
9.67525e-07
0.000485587
9.67557e-07
0.000486135
9.6759e-07
0.000486684
9.67624e-07
0.000487234
9.67658e-07
0.000487784
9.67693e-07
0.000488334
9.67729e-07
0.000488885
9.67766e-07
0.000489437
9.67804e-07
0.000489989
9.67842e-07
0.000490541
9.67881e-07
0.000491094
9.67921e-07
0.000491648
9.67961e-07
0.000492202
9.68003e-07
0.000492756
9.68045e-07
0.000493311
9.68088e-07
0.000493866
9.68132e-07
0.000494422
9.68176e-07
0.000494978
9.68221e-07
0.000495535
9.68268e-07
0.000496093
9.68314e-07
0.00049665
9.68362e-07
0.000497209
9.68411e-07
0.000497767
9.6846e-07
0.000498326
9.6851e-07
0.000498886
9.68561e-07
0.000499446
9.68613e-07
0.000500007
9.68665e-07
0.000500568
9.68719e-07
0.000501129
9.68773e-07
0.000501691
9.68828e-07
0.000502253
9.68884e-07
0.000502816
9.6894e-07
0.000503379
9.68998e-07
0.000503943
9.69056e-07
0.000504507
9.69115e-07
0.000505072
9.69175e-07
0.000505637
9.69235e-07
0.000506202
9.69297e-07
0.000506768
9.69359e-07
0.000507334
9.69422e-07
0.000507901
9.69486e-07
0.000508468
9.69551e-07
0.000509036
9.69617e-07
0.000509604
9.69683e-07
0.000510172
9.6975e-07
0.000510741
9.69819e-07
0.00051131
9.69888e-07
0.00051188
9.69957e-07
0.00051245
9.70028e-07
0.00051302
9.701e-07
0.000513591
9.70172e-07
0.000514162
9.70245e-07
0.000514734
9.70319e-07
0.000515306
9.70394e-07
0.000515879
9.7047e-07
0.000516452
9.70546e-07
0.000517025
9.70624e-07
0.000517598
9.70702e-07
0.000518172
9.70781e-07
0.000518747
9.70861e-07
0.000519322
9.70942e-07
0.000519897
9.71024e-07
0.000520472
9.71107e-07
0.000521048
9.7119e-07
0.000521625
9.71274e-07
0.000522201
9.7136e-07
0.000522778
9.71446e-07
0.000523356
9.71532e-07
0.000523934
9.7162e-07
0.000524512
9.71709e-07
0.00052509
9.71798e-07
0.000525669
9.71889e-07
0.000526248
9.7198e-07
0.000526828
9.72072e-07
0.000527408
9.72165e-07
0.000527988
9.72259e-07
0.000528569
9.72354e-07
0.00052915
9.72449e-07
0.000529731
9.72546e-07
0.000530313
9.72643e-07
0.000530895
9.72741e-07
0.000531477
9.7284e-07
0.00053206
9.7294e-07
0.000532643
9.73041e-07
0.000533226
9.73142e-07
0.000533809
9.73245e-07
0.000534393
9.73348e-07
0.000534978
9.73452e-07
0.000535562
9.73557e-07
0.000536147
9.73663e-07
0.000536732
9.7377e-07
0.000537318
9.73877e-07
0.000537904
9.73986e-07
0.00053849
9.74095e-07
0.000539076
9.74205e-07
0.000539663
9.74316e-07
0.00054025
9.74428e-07
0.000540838
9.7454e-07
0.000541425
9.74654e-07
0.000542013
9.74768e-07
0.000542601
9.74883e-07
0.00054319
9.74999e-07
0.000543779
9.75115e-07
0.000544368
9.75233e-07
0.000544957
9.75351e-07
0.000545547
9.7547e-07
0.000546137
9.75589e-07
0.000546727
9.7571e-07
0.000547317
9.75831e-07
0.000547908
9.75953e-07
0.000548499
9.76075e-07
0.00054909
9.76199e-07
0.000549682
9.76322e-07
0.000550274
9.76447e-07
0.000550866
9.76572e-07
0.000551458
9.76698e-07
0.000552051
9.76825e-07
0.000552644
9.76952e-07
0.000553237
9.77079e-07
0.00055383
9.77207e-07
0.000554424
9.77336e-07
0.000555017
9.77465e-07
0.000555611
9.77594e-07
0.000556206
9.77724e-07
0.0005568
9.77855e-07
0.000557395
9.77985e-07
0.00055799
9.78116e-07
0.000558585
9.78247e-07
0.000559181
9.78378e-07
0.000559777
9.7851e-07
0.000560372
9.78641e-07
0.000560969
9.78773e-07
0.000561565
9.78904e-07
0.000562162
9.79036e-07
0.000562759
9.79167e-07
0.000563356
9.79298e-07
0.000563953
9.79429e-07
0.00056455
9.79559e-07
0.000565148
9.79689e-07
0.000565746
9.79818e-07
0.000566344
9.79946e-07
0.000566943
9.80074e-07
0.000567541
9.802e-07
0.00056814
9.80326e-07
0.000568739
9.8045e-07
0.000569338
9.80573e-07
0.000569938
9.80694e-07
0.000570537
9.80814e-07
0.000571137
9.80931e-07
0.000571737
9.81047e-07
0.000572338
9.8116e-07
0.000572938
9.81271e-07
0.000573539
9.81378e-07
0.00057414
9.81483e-07
0.000574741
9.81584e-07
0.000575342
9.81682e-07
0.000575944
9.81776e-07
0.000576546
9.81865e-07
0.000577148
9.81949e-07
0.00057775
9.82029e-07
0.000578353
9.82103e-07
0.000578956
9.82171e-07
0.000579559
9.82232e-07
0.000580162
9.82286e-07
0.000580766
9.82333e-07
0.00058137
9.82371e-07
0.000581974
9.82401e-07
0.000582578
9.8242e-07
0.000583183
9.8243e-07
0.000583788
9.82428e-07
0.000584394
9.82414e-07
0.000584999
9.82387e-07
0.000585605
9.82346e-07
0.000586212
9.82289e-07
0.000586819
9.82216e-07
0.000587426
9.82125e-07
0.000588033
9.82015e-07
0.000588641
9.81884e-07
0.00058925
9.81731e-07
0.000589859
9.81553e-07
0.000590468
9.8135e-07
0.000591078
9.81118e-07
0.000591689
9.80856e-07
0.0005923
9.8056e-07
0.000592912
9.8023e-07
0.000593524
9.79861e-07
0.000594137
9.79451e-07
0.000594751
9.78996e-07
0.000595366
9.78494e-07
0.000595981
9.77939e-07
0.000596598
9.77329e-07
0.000597215
9.76657e-07
0.000597834
9.75919e-07
0.000598453
9.75109e-07
0.000599074
9.74221e-07
0.000599696
9.73249e-07
0.000600319
9.72183e-07
0.000600944
9.71018e-07
0.00060157
9.69742e-07
0.000602198
9.68346e-07
0.000602828
9.6682e-07
0.00060346
9.6515e-07
0.000604094
9.63324e-07
0.000604731
9.61326e-07
0.000605369
9.5914e-07
0.000606011
9.56748e-07
0.000606655
9.54129e-07
0.000607303
9.5126e-07
0.000607954
9.48116e-07
0.000608609
9.44669e-07
0.000609268
9.40887e-07
0.000609931
9.36736e-07
0.000610599
9.32173e-07
0.000611273
9.27148e-07
0.000611953
9.21595e-07
0.000612639
9.15414e-07
0.000613332
9.08453e-07
0.000614034
9.00451e-07
0.000614745
8.90963e-07
0.000615469
8.79232e-07
0.000616208
8.6398e-07
0.000616969
8.43102e-07
0.00061776
8.13221e-07
0.000618595
7.69131e-07
0.000619496
7.03727e-07
0.000620491
6.09887e-07
0.000621616
4.80621e-07
2.92966e-07
0.0019647
0.000438105
0.00179186
0.000584593
0.00156953
0.000485524
0.00137443
0.000362301
0.00122023
0.000262453
0.00110301
0.000189094
0.0010151
0.000137249
0.000949174
0.000101095
0.000899354
7.58686e-05
0.000861233
5.81397e-05
0.000831615
4.5545e-05
0.000808218
3.64771e-05
0.000789422
2.9845e-05
0.000774079
2.49076e-05
0.000761367
2.11608e-05
0.000750698
1.82607e-05
0.000741644
1.59718e-05
0.000733888
1.41319e-05
0.000727193
1.26281e-05
0.000721378
1.13809e-05
0.0007163
1.03331e-05
0.000711849
9.44322e-06
0.000707935
8.68019e-06
0.000704485
8.02056e-06
0.000701438
7.44622e-06
0.000698744
6.94297e-06
0.000696362
6.49951e-06
0.000694256
6.10675e-06
0.000692395
5.75731e-06
0.000690753
5.44511e-06
0.000689307
5.16511e-06
0.000688038
4.91313e-06
0.000686928
4.68563e-06
0.000685964
4.47964e-06
0.00068513
4.29262e-06
0.000684415
4.12243e-06
0.00068381
3.96722e-06
0.000683304
3.8254e-06
0.000682889
3.69562e-06
0.000682557
3.57666e-06
0.000682303
3.4675e-06
0.000682118
3.36719e-06
0.000681999
3.27493e-06
0.000681939
3.18997e-06
0.000681934
3.11166e-06
0.00068198
3.03938e-06
0.000682073
2.9726e-06
0.00068221
2.91085e-06
0.000682387
2.85368e-06
0.000682601
2.80069e-06
0.00068285
2.75155e-06
0.000683131
2.70594e-06
0.000683443
2.66356e-06
0.000683782
2.62418e-06
0.000684147
2.58756e-06
0.000684536
2.55348e-06
0.000684948
2.52176e-06
0.00068538
2.49223e-06
0.000685832
2.46473e-06
0.000686303
2.43911e-06
0.000686791
2.41525e-06
0.000687294
2.39304e-06
0.000687812
2.37238e-06
0.000688344
2.3532e-06
0.000688889
2.33546e-06
0.000689445
2.31913e-06
0.000690012
2.30421e-06
0.000690589
2.29073e-06
0.000691175
2.27873e-06
0.000691768
2.26825e-06
0.000692368
2.25932e-06
0.000692973
2.25195e-06
0.000693583
2.24609e-06
0.000694196
2.24166e-06
0.000694811
2.23851e-06
0.000695429
2.23643e-06
0.000696047
2.2352e-06
0.000696667
2.23458e-06
0.000697287
2.23434e-06
0.000697907
2.23428e-06
0.000698528
2.23426e-06
0.000699149
2.23416e-06
0.00069977
2.23393e-06
0.000700392
2.23355e-06
0.000701015
2.23302e-06
0.000701639
2.23236e-06
0.000702263
2.2316e-06
0.000702889
2.23075e-06
0.000703515
2.22984e-06
0.000704143
2.22889e-06
0.000704771
2.22791e-06
0.000705401
2.22691e-06
0.000706032
2.22589e-06
0.000706664
2.22485e-06
0.000707297
2.22379e-06
0.000707931
2.22271e-06
0.000708566
2.22161e-06
0.000709203
2.22048e-06
0.000709841
2.21933e-06
0.00071048
2.21814e-06
0.00071112
2.21692e-06
0.000711762
2.21566e-06
0.000712405
2.21437e-06
0.000713049
2.21306e-06
0.000713695
2.21172e-06
0.000714342
2.21038e-06
0.000714991
2.20908e-06
0.00071564
2.20784e-06
0.000716291
2.20672e-06
0.000716943
2.20577e-06
0.000717596
2.20505e-06
0.00071825
2.20462e-06
0.000718904
2.20451e-06
0.000719559
2.20474e-06
0.000720214
2.20531e-06
0.000720868
2.2062e-06
0.000721522
2.20734e-06
0.000722176
2.20866e-06
0.000722829
2.2101e-06
0.000723481
2.21158e-06
0.000724133
2.21304e-06
0.000724785
2.21442e-06
0.000725436
2.2157e-06
0.000726087
2.21686e-06
0.000726737
2.21788e-06
0.000727388
2.21877e-06
0.000728038
2.21955e-06
0.000728688
2.2202e-06
0.000729339
2.22075e-06
0.000729989
2.22121e-06
0.00073064
2.22157e-06
0.000731291
2.22185e-06
0.000731943
2.22204e-06
0.000732595
2.22216e-06
0.000733247
2.22221e-06
0.0007339
2.22219e-06
0.000734553
2.2221e-06
0.000735208
2.22195e-06
0.000735862
2.22175e-06
0.000736518
2.22151e-06
0.000737174
2.22124e-06
0.000737831
2.22095e-06
0.000738488
2.22066e-06
0.000739146
2.2204e-06
0.000739805
2.22017e-06
0.000740465
2.22e-06
0.000741125
2.2199e-06
0.000741786
2.21989e-06
0.000742447
2.21996e-06
0.000743108
2.22011e-06
0.00074377
2.22035e-06
0.000744433
2.22065e-06
0.000745095
2.22099e-06
0.000745758
2.22138e-06
0.000746421
2.22178e-06
0.000747085
2.22218e-06
0.000747748
2.22258e-06
0.000748412
2.22297e-06
0.000749076
2.22334e-06
0.000749741
2.22369e-06
0.000750406
2.22402e-06
0.000751071
2.22433e-06
0.000751737
2.22461e-06
0.000752402
2.22487e-06
0.000753069
2.22511e-06
0.000753736
2.22532e-06
0.000754403
2.22551e-06
0.00075507
2.22568e-06
0.000755738
2.22582e-06
0.000756407
2.22595e-06
0.000757076
2.22606e-06
0.000757746
2.22615e-06
0.000758416
2.22624e-06
0.000759086
2.22632e-06
0.000759758
2.22641e-06
0.000760429
2.2265e-06
0.000761101
2.22662e-06
0.000761774
2.22677e-06
0.000762447
2.22695e-06
0.000763121
2.22718e-06
0.000763794
2.22745e-06
0.000764469
2.22776e-06
0.000765143
2.22811e-06
0.000765818
2.22848e-06
0.000766494
2.22886e-06
0.000767169
2.22924e-06
0.000767845
2.2296e-06
0.000768522
2.22993e-06
0.000769199
2.23022e-06
0.000769876
2.23046e-06
0.000770553
2.23065e-06
0.000771232
2.23079e-06
0.00077191
2.23087e-06
0.00077259
2.23092e-06
0.00077327
2.23092e-06
0.00077395
2.23089e-06
0.000774632
2.23085e-06
0.000775314
2.2308e-06
0.000775996
2.23075e-06
0.000776679
2.23071e-06
0.000777363
2.23069e-06
0.000778048
2.23068e-06
0.000778733
2.2307e-06
0.000779419
2.23074e-06
0.000780105
2.2308e-06
0.000780792
2.23089e-06
0.000781479
2.23101e-06
0.000782167
2.23116e-06
0.000782856
2.23133e-06
0.000783545
2.23154e-06
0.000784234
2.23178e-06
0.000784924
2.23204e-06
0.000785614
2.23233e-06
0.000786305
2.23264e-06
0.000786996
2.23296e-06
0.000787688
2.23328e-06
0.00078838
2.23361e-06
0.000789073
2.23393e-06
0.000789766
2.23424e-06
0.000790459
2.23453e-06
0.000791153
2.23481e-06
0.000791847
2.23507e-06
0.000792542
2.23532e-06