/*--------------------------------*- C++ -*----------------------------------*\
| =========                 |                                                 |
| \\      /  F ield         | OpenFOAM: The Open Source CFD Toolbox           |
|  \\    /   O peration     | Version:  2512                                  |
|   \\  /    A nd           | Website:  www.openfoam.com                      |
|    \\/     M anipulation  |                                                 |
\*---------------------------------------------------------------------------*/
FoamFile
{
    version     2.0;
    format      ascii;
    arch        "LSB;label=32;scalar=64";
    class       surfaceScalarField;
    location    "0.004";
    object      phiB;
}
// * * * * * * * * * * * * * * * * * * * * * * * * * * * * * * * * * * * * * //

dimensions      [1 2 -2 0 0 -1 0];

oriented        oriented;

internalField   nonuniform List<scalar> 
198900
(
0.000539303
0.0400572
0.000504412
0.0400349
0.000454163
0.0400502
0.000403948
0.0400502
0.000360357
0.0400436
0.000324519
0.0400358
0.000296038
0.0400285
0.000274005
0.040022
0.000257318
0.0400167
0.000244888
0.0400124
0.000235745
0.0400091
0.00022908
0.0400067
0.000224251
0.0400048
0.000220765
0.0400035
0.000218254
0.0400025
0.000216448
0.0400018
0.000215153
0.0400013
0.000214231
0.0400009
0.000213583
0.0400006
0.000213137
0.0400004
0.000212845
0.0400003
0.000212668
0.0400002
0.000212581
0.0400001
0.000212563
0.04
0.000212601
0.04
0.000212681
0.0399999
0.000212797
0.0399999
0.000212942
0.0399999
0.00021311
0.0399998
0.000213297
0.0399998
0.0002135
0.0399998
0.000213716
0.0399998
0.000213945
0.0399998
0.000214182
0.0399998
0.000214429
0.0399998
0.000214682
0.0399997
0.000214942
0.0399997
0.000215207
0.0399997
0.000215477
0.0399997
0.000215751
0.0399997
0.000216028
0.0399997
0.000216309
0.0399997
0.000216592
0.0399997
0.000216877
0.0399997
0.000217164
0.0399997
0.000217452
0.0399997
0.000217742
0.0399997
0.000218033
0.0399997
0.000218324
0.0399997
0.000218616
0.0399997
0.000218909
0.0399997
0.000219202
0.0399997
0.000219496
0.0399997
0.00021979
0.0399997
0.000220084
0.0399997
0.000220378
0.0399997
0.000220673
0.0399997
0.000220967
0.0399997
0.000221262
0.0399997
0.000221557
0.0399997
0.000221852
0.0399997
0.000222147
0.0399997
0.000222443
0.0399997
0.000222738
0.0399997
0.000223033
0.0399997
0.000223327
0.0399997
0.000223621
0.0399997
0.000223915
0.0399997
0.000224206
0.0399997
0.000224496
0.0399997
0.000224783
0.0399997
0.000225067
0.0399997
0.000225347
0.0399997
0.000225622
0.0399997
0.000225893
0.0399997
0.000226157
0.0399997
0.000226417
0.0399997
0.00022667
0.0399997
0.000226918
0.0399998
0.00022716
0.0399998
0.000227398
0.0399998
0.000227631
0.0399998
0.00022786
0.0399998
0.000228086
0.0399998
0.000228308
0.0399998
0.000228527
0.0399998
0.000228744
0.0399998
0.000228959
0.0399998
0.000229172
0.0399998
0.000229383
0.0399998
0.000229593
0.0399998
0.000229802
0.0399998
0.000230009
0.0399998
0.000230215
0.0399998
0.00023042
0.0399998
0.000230624
0.0399998
0.000230828
0.0399998
0.00023103
0.0399998
0.000231233
0.0399998
0.000231435
0.0399998
0.000231636
0.0399998
0.000231838
0.0399998
0.000232039
0.0399998
0.000232241
0.0399998
0.000232442
0.0399998
0.000232644
0.0399998
0.000232846
0.0399998
0.000233047
0.0399998
0.000233249
0.0399998
0.000233451
0.0399998
0.000233653
0.0399998
0.000233855
0.0399998
0.000234055
0.0399998
0.000234255
0.0399998
0.000234454
0.0399998
0.000234652
0.0399998
0.000234848
0.0399998
0.000235042
0.0399998
0.000235235
0.0399998
0.000235426
0.0399998
0.000235616
0.0399998
0.000235804
0.0399998
0.000235991
0.0399998
0.000236177
0.0399998
0.000236362
0.0399998
0.000236546
0.0399998
0.000236729
0.0399998
0.000236911
0.0399998
0.000237093
0.0399998
0.000237274
0.0399998
0.000237455
0.0399998
0.000237635
0.0399998
0.000237816
0.0399998
0.000237996
0.0399998
0.000238176
0.0399998
0.000238356
0.0399998
0.000238536
0.0399998
0.000238716
0.0399998
0.000238896
0.0399998
0.000239076
0.0399998
0.000239256
0.0399998
0.000239437
0.0399998
0.000239618
0.0399998
0.000239799
0.0399998
0.00023998
0.0399998
0.000240161
0.0399998
0.000240342
0.0399998
0.000240523
0.0399998
0.000240704
0.0399998
0.000240884
0.0399998
0.000241065
0.0399998
0.000241245
0.0399998
0.000241425
0.0399998
0.000241604
0.0399998
0.000241783
0.0399998
0.000241962
0.0399998
0.000242141
0.0399998
0.000242319
0.0399998
0.000242497
0.0399998
0.000242675
0.0399998
0.000242852
0.0399998
0.000243029
0.0399998
0.000243206
0.0399998
0.000243383
0.0399998
0.00024356
0.0399998
0.000243736
0.0399998
0.000243913
0.0399998
0.00024409
0.0399998
0.000244266
0.0399998
0.000244443
0.0399998
0.000244619
0.0399998
0.000244796
0.0399998
0.000244972
0.0399998
0.000245149
0.0399998
0.000245325
0.0399998
0.000245502
0.0399998
0.000245678
0.0399998
0.000245855
0.0399998
0.000246032
0.0399998
0.000246208
0.0399998
0.000246384
0.0399998
0.00024656
0.0399998
0.000246736
0.0399998
0.000246912
0.0399998
0.000247087
0.0399998
0.000247263
0.0399998
0.000247438
0.0399998
0.000247613
0.0399998
0.000247787
0.0399998
0.000247962
0.0399998
0.000248136
0.0399998
0.000248311
0.0399998
0.000248485
0.0399998
0.00024866
0.0399998
0.000248835
0.0399998
0.000249009
0.0399998
0.000249184
0.0399998
0.000249359
0.0399998
0.000249534
0.0399998
0.00024971
0.0399998
0.000249885
0.0399998
0.000250061
0.0399998
0.000250236
0.0399998
0.000250412
0.0399998
0.000250588
0.0399998
0.000250764
0.0399998
0.000250939
0.0399998
0.000251115
0.0399998
0.000251291
0.0399998
0.000251467
0.0399998
0.000251642
0.0399998
0.000251818
0.0399998
0.000251993
0.0399998
0.000252168
0.0399998
0.000252344
0.0399998
0.000252519
0.0399998
0.000252694
0.0399998
0.000252868
0.0399998
0.000253043
0.0399998
0.000253217
0.0399998
0.000253392
0.0399998
0.000253566
0.0399998
0.00025374
0.0399998
0.000253915
0.0399998
0.000254089
0.0399998
0.000254263
0.0399998
0.000254437
0.0399998
0.000254611
0.0399998
0.000254785
0.0399998
0.00025496
0.0399998
0.000255134
0.0399998
0.000255308
0.0399998
0.000255482
0.0399998
0.000255657
0.0399998
0.000255831
0.0399998
0.000256005
0.0399998
0.00025618
0.0399998
0.000256354
0.0399998
0.000256528
0.0399998
0.000256703
0.0399998
0.000256877
0.0399998
0.000257051
0.0399998
0.000257226
0.0399998
0.0002574
0.0399998
0.000257575
0.0399998
0.000257749
0.0399998
0.000257923
0.0399998
0.000258098
0.0399998
0.000258272
0.0399998
0.000258447
0.0399998
0.000258621
0.0399998
0.000258795
0.0399998
0.00025897
0.0399998
0.000259144
0.0399998
0.000259319
0.0399998
0.000259493
0.0399998
0.000259668
0.0399998
0.000259842
0.0399998
0.000260017
0.0399998
0.000260191
0.0399998
0.000260366
0.0399998
0.00026054
0.0399998
0.000260715
0.0399998
0.000260889
0.0399998
0.000261064
0.0399998
0.000261238
0.0399998
0.000261413
0.0399998
0.000261587
0.0399998
0.000261762
0.0399998
0.000261936
0.0399998
0.000262111
0.0399998
0.000262285
0.0399998
0.000262459
0.0399998
0.000262634
0.0399998
0.000262808
0.0399998
0.000262983
0.0399998
0.000263157
0.0399998
0.000263331
0.0399998
0.000263506
0.0399998
0.00026368
0.0399998
0.000263854
0.0399998
0.000264029
0.0399998
0.000264203
0.0399998
0.000264378
0.0399998
0.000264552
0.0399998
0.000264726
0.0399998
0.000264901
0.0399998
0.000265075
0.0399998
0.000265249
0.0399998
0.000265424
0.0399998
0.000265598
0.0399998
0.000265772
0.0399998
0.000265947
0.0399998
0.000266121
0.0399998
0.000266295
0.0399998
0.00026647
0.0399998
0.000266644
0.0399998
0.000266818
0.0399998
0.000266993
0.0399998
0.000267167
0.0399998
0.000267341
0.0399998
0.000267515
0.0399998
0.00026769
0.0399998
0.000267864
0.0399998
0.000268038
0.0399998
0.000268212
0.0399998
0.000268386
0.0399998
0.000268561
0.0399998
0.000268735
0.0399998
0.000268909
0.0399998
0.000269083
0.0399998
0.000269257
0.0399998
0.000269432
0.0399998
0.000269606
0.0399998
0.00026978
0.0399998
0.000269954
0.0399998
0.000270128
0.0399998
0.000270302
0.0399998
0.000270476
0.0399998
0.00027065
0.0399998
0.000270825
0.0399998
0.000270999
0.0399998
0.000271173
0.0399998
0.000271347
0.0399998
0.000271521
0.0399998
0.000271695
0.0399998
0.000271869
0.0399998
0.000272043
0.0399998
0.000272217
0.0399998
0.000272391
0.0399998
0.000272565
0.0399998
0.000272739
0.0399998
0.000272913
0.0399998
0.000273087
0.0399998
0.000273261
0.0399998
0.000273435
0.0399998
0.000273609
0.0399998
0.000273784
0.0399998
0.000273958
0.0399998
0.000274132
0.0399998
0.000274306
0.0399998
0.000274479
0.0399998
0.000274653
0.0399998
0.000274827
0.0399998
0.000275001
0.0399998
0.000275175
0.0399998
0.000275349
0.0399998
0.000275523
0.0399998
0.000275697
0.0399998
0.000275871
0.0399998
0.000276045
0.0399998
0.000276219
0.0399998
0.000276393
0.0399998
0.000276567
0.0399998
0.000276741
0.0399998
0.000276915
0.0399998
0.000277089
0.0399998
0.000277263
0.0399998
0.000277437
0.0399998
0.00027761
0.0399998
0.000277784
0.0399998
0.000277958
0.0399998
0.000278132
0.0399998
0.000278306
0.0399998
0.00027848
0.0399998
0.000278654
0.0399998
0.000278828
0.0399998
0.000279002
0.0399998
0.000279175
0.0399998
0.000279349
0.0399998
0.000279523
0.0399998
0.000279697
0.0399998
0.000279871
0.0399998
0.000280045
0.0399998
0.000280219
0.0399998
0.000280392
0.0399998
0.000280566
0.0399998
0.00028074
0.0399998
0.000280914
0.0399998
0.000281088
0.0399998
0.000281261
0.0399998
0.000281435
0.0399998
0.000281609
0.0399998
0.000281783
0.0399998
0.000281957
0.0399998
0.00028213
0.0399998
0.000282304
0.0399998
0.000282478
0.0399998
0.000282652
0.0399998
0.000282826
0.0399998
0.000282999
0.0399998
0.000283173
0.0399998
0.000283347
0.0399998
0.000283521
0.0399998
0.000283694
0.0399998
0.000283868
0.0399998
0.000284042
0.0399998
0.000284216
0.0399998
0.000284389
0.0399998
0.000284563
0.0399998
0.000284737
0.0399998
0.000284911
0.0399998
0.000285084
0.0399998
0.000285258
0.0399998
0.000285432
0.0399998
0.000285605
0.0399998
0.000285779
0.0399998
0.000285953
0.0399998
0.000286127
0.0399998
0.0002863
0.0399998
0.000286474
0.0399998
0.000286648
0.0399998
0.000286821
0.0399998
0.000286995
0.0399998
0.000287169
0.0399998
0.000287342
0.0399998
0.000287516
0.0399998
0.00028769
0.0399998
0.000287863
0.0399998
0.000288037
0.0399998
0.000288211
0.0399998
0.000288384
0.0399998
0.000288558
0.0399998
0.000288731
0.0399998
0.000288905
0.0399998
0.000289079
0.0399998
0.000289252
0.0399998
0.000289426
0.0399998
0.0002896
0.0399998
0.000289773
0.0399998
0.000289947
0.0399998
0.00029012
0.0399998
0.000290294
0.0399998
0.000290468
0.0399998
0.000290641
0.0399998
0.000290815
0.0399998
0.000290988
0.0399998
0.000291162
0.0399998
0.000291335
0.0399998
0.000291509
0.0399998
0.000291682
0.0399998
0.000291856
0.0399998
0.00029203
0.0399998
0.000292203
0.0399998
0.000292377
0.0399998
0.00029255
0.0399998
0.000292724
0.0399998
0.000292897
0.0399998
0.000293071
0.0399998
0.000293244
0.0399998
0.000293418
0.0399998
0.000293591
0.0399998
0.000293765
0.0399998
0.000293938
0.0399998
0.000294112
0.0399998
0.000294285
0.0399998
0.000294459
0.0399998
0.000294632
0.0399998
0.000294806
0.0399998
0.000294979
0.0399998
0.000295153
0.0399998
0.000295326
0.0399998
0.0002955
0.0399998
0.000295673
0.0399998
0.000295846
0.0399998
0.00029602
0.0399998
0.000296193
0.0399998
0.000296367
0.0399998
0.00029654
0.0399998
0.000296714
0.0399998
0.000296887
0.0399998
0.00029706
0.0399998
0.000297234
0.0399998
0.000297407
0.0399998
0.000297581
0.0399998
0.000297754
0.0399998
0.000297927
0.0399998
0.000298101
0.0399998
0.000298274
0.0399998
0.000298448
0.0399998
0.000298621
0.0399998
0.000298794
0.0399998
0.000298968
0.0399998
0.000299141
0.0399998
0.000299314
0.0399998
0.000299488
0.0399998
0.000299661
0.0399998
0.000299834
0.0399998
0.000300008
0.0399998
0.000300181
0.0399998
0.000300354
0.0399998
0.000300528
0.0399998
0.000300701
0.0399998
0.000300874
0.0399998
0.000301048
0.0399998
0.000301221
0.0399998
0.000301394
0.0399998
0.000301567
0.0399998
0.000301741
0.0399998
0.000301914
0.0399998
0.000302087
0.0399998
0.000302261
0.0399998
0.000302434
0.0399998
0.000302607
0.0399998
0.00030278
0.0399998
0.000302954
0.0399998
0.000303127
0.0399998
0.0003033
0.0399998
0.000303473
0.0399998
0.000303647
0.0399998
0.00030382
0.0399998
0.000303993
0.0399998
0.000304166
0.0399998
0.000304339
0.0399998
0.000304513
0.0399998
0.000304686
0.0399998
0.000304859
0.0399998
0.000305032
0.0399998
0.000305205
0.0399998
0.000305379
0.0399998
0.000305552
0.0399998
0.000305725
0.0399998
0.000305898
0.0399998
0.000306071
0.0399998
0.000306244
0.0399998
0.000306418
0.0399998
0.000306591
0.0399998
0.000306764
0.0399998
0.000306937
0.0399998
0.00030711
0.0399998
0.000307283
0.0399998
0.000307456
0.0399998
0.000307629
0.0399998
0.000307802
0.0399998
0.000307976
0.0399998
0.000308149
0.0399998
0.000308322
0.0399998
0.000308495
0.0399998
0.000308668
0.0399998
0.000308841
0.0399998
0.000309014
0.0399998
0.000309187
0.0399998
0.00030936
0.0399998
0.000309533
0.0399998
0.000309706
0.0399998
0.000309879
0.0399998
0.000310052
0.0399998
0.000310225
0.0399998
0.000310398
0.0399998
0.000310571
0.0399998
0.000310744
0.0399998
0.000310917
0.0399998
0.00031109
0.0399998
0.000311263
0.0399998
0.000311436
0.0399998
0.000311609
0.0399998
0.000311782
0.0399998
0.000311955
0.0399998
0.000312128
0.0399998
0.000312301
0.0399998
0.000312474
0.0399998
0.000312647
0.0399998
0.00031282
0.0399998
0.000312993
0.0399998
0.000313166
0.0399998
0.000313339
0.0399998
0.000313512
0.0399998
0.000313685
0.0399998
0.000313858
0.0399998
0.000314031
0.0399998
0.000314204
0.0399998
0.000314377
0.0399998
0.000314549
0.0399998
0.000314722
0.0399998
0.000314895
0.0399998
0.000315068
0.0399998
0.000315241
0.0399998
0.000315414
0.0399998
0.000315587
0.0399998
0.00031576
0.0399998
0.000315932
0.0399998
0.000316105
0.0399998
0.000316278
0.0399998
0.000316451
0.0399998
0.000316624
0.0399998
0.000316797
0.0399998
0.000316969
0.0399998
0.000317142
0.0399998
0.000317315
0.0399998
0.000317488
0.0399998
0.000317661
0.0399998
0.000317833
0.0399998
0.000318006
0.0399998
0.000318179
0.0399998
0.000318352
0.0399998
0.000318524
0.0399998
0.000318697
0.0399998
0.00031887
0.0399998
0.000319043
0.0399998
0.000319215
0.0399998
0.000319388
0.0399998
0.000319561
0.0399998
0.000319734
0.0399998
0.000319906
0.0399998
0.000320079
0.0399998
0.000320252
0.0399998
0.000320425
0.0399998
0.000320597
0.0399998
0.00032077
0.0399998
0.000320943
0.0399998
0.000321115
0.0399998
0.000321288
0.0399998
0.000321461
0.0399998
0.000321633
0.0399998
0.000321806
0.0399998
0.000321979
0.0399998
0.000322151
0.0399998
0.000322324
0.0399998
0.000322497
0.0399998
0.000322669
0.0399998
0.000322842
0.0399998
0.000323014
0.0399998
0.000323187
0.0399998
0.00032336
0.0399998
0.000323532
0.0399998
0.000323705
0.0399998
0.000323877
0.0399998
0.00032405
0.0399998
0.000324223
0.0399998
0.000324395
0.0399998
0.000324568
0.0399998
0.00032474
0.0399998
0.000324913
0.0399998
0.000325085
0.0399998
0.000325258
0.0399998
0.00032543
0.0399998
0.000325603
0.0399998
0.000325775
0.0399998
0.000325948
0.0399998
0.00032612
0.0399998
0.000326293
0.0399998
0.000326465
0.0399998
0.000326638
0.0399998
0.00032681
0.0399998
0.000326983
0.0399998
0.000327155
0.0399998
0.000327328
0.0399998
0.0003275
0.0399998
0.000327673
0.0399998
0.000327845
0.0399998
0.000328018
0.0399998
0.00032819
0.0399998
0.000328363
0.0399998
0.000328535
0.0399998
0.000328707
0.0399998
0.00032888
0.0399998
0.000329052
0.0399998
0.000329225
0.0399998
0.000329397
0.0399998
0.000329569
0.0399998
0.000329742
0.0399998
0.000329914
0.0399998
0.000330086
0.0399998
0.000330259
0.0399998
0.000330431
0.0399998
0.000330604
0.0399998
0.000330776
0.0399998
0.000330948
0.0399998
0.000331121
0.0399998
0.000331293
0.0399998
0.000331465
0.0399998
0.000331638
0.0399998
0.00033181
0.0399998
0.000331982
0.0399998
0.000332154
0.0399998
0.000332327
0.0399998
0.000332499
0.0399998
0.000332671
0.0399998
0.000332844
0.0399998
0.000333016
0.0399998
0.000333188
0.0399998
0.00033336
0.0399998
0.000333533
0.0399998
0.000333705
0.0399998
0.000333877
0.0399998
0.000334049
0.0399998
0.000334221
0.0399998
0.000334394
0.0399998
0.000334566
0.0399998
0.000334738
0.0399998
0.00033491
0.0399998
0.000335082
0.0399998
0.000335255
0.0399998
0.000335427
0.0399998
0.000335599
0.0399998
0.000335771
0.0399998
0.000335943
0.0399998
0.000336115
0.0399998
0.000336288
0.0399998
0.00033646
0.0399998
0.000336632
0.0399998
0.000336804
0.0399998
0.000336976
0.0399998
0.000337148
0.0399998
0.00033732
0.0399998
0.000337492
0.0399998
0.000337664
0.0399998
0.000337837
0.0399998
0.000338009
0.0399998
0.000338181
0.0399998
0.000338353
0.0399998
0.000338525
0.0399998
0.000338697
0.0399998
0.000338869
0.0399998
0.000339041
0.0399998
0.000339213
0.0399998
0.000339385
0.0399998
0.000339557
0.0399998
0.000339729
0.0399998
0.000339901
0.0399998
0.000340073
0.0399998
0.000340245
0.0399998
0.000340417
0.0399998
0.000340589
0.0399998
0.000340761
0.0399998
0.000340933
0.0399998
0.000341105
0.0399998
0.000341277
0.0399998
0.000341449
0.0399998
0.000341621
0.0399998
0.000341793
0.0399998
0.000341965
0.0399998
0.000342136
0.0399998
0.000342308
0.0399998
0.00034248
0.0399998
0.000342652
0.0399998
0.000342824
0.0399998
0.000342996
0.0399998
0.000343168
0.0399998
0.00034334
0.0399998
0.000343512
0.0399998
0.000343683
0.0399998
0.000343855
0.0399998
0.000344027
0.0399998
0.000344199
0.0399998
0.000344371
0.0399998
0.000344543
0.0399998
0.000344714
0.0399998
0.000344886
0.0399998
0.000345058
0.0399998
0.00034523
0.0399998
0.000345402
0.0399998
0.000345573
0.0399998
0.000345745
0.0399998
0.000345917
0.0399998
0.000346089
0.0399998
0.00034626
0.0399998
0.000346432
0.0399998
0.000346604
0.0399998
0.000346776
0.0399998
0.000346947
0.0399998
0.000347119
0.0399998
0.000347291
0.0399998
0.000347462
0.0399998
0.000347634
0.0399998
0.000347806
0.0399998
0.000347978
0.0399998
0.000348149
0.0399998
0.000348321
0.0399998
0.000348493
0.0399998
0.000348664
0.0399998
0.000348836
0.0399998
0.000349007
0.0399998
0.000349179
0.0399998
0.000349351
0.0399998
0.000349522
0.0399998
0.000349694
0.0399998
0.000349866
0.0399998
0.000350037
0.0399998
0.000350209
0.0399998
0.00035038
0.0399998
0.000350552
0.0399998
0.000350724
0.0399998
0.000350895
0.0399998
0.000351067
0.0399998
0.000351238
0.0399998
0.00035141
0.0399998
0.000351581
0.0399998
0.000351753
0.0399998
0.000351924
0.0399998
0.000352096
0.0399998
0.000352267
0.0399998
0.000352439
0.0399998
0.00035261
0.0399998
0.000352782
0.0399998
0.000352953
0.0399998
0.000353125
0.0399998
0.000353296
0.0399998
0.000353468
0.0399998
0.000353639
0.0399998
0.00035381
0.0399998
0.000353982
0.0399998
0.000354153
0.0399998
0.000354325
0.0399998
0.000354496
0.0399998
0.000354668
0.0399998
0.000354839
0.0399998
0.00035501
0.0399998
0.000355182
0.0399998
0.000355353
0.0399998
0.000355524
0.0399998
0.000355696
0.0399998
0.000355867
0.0399998
0.000356038
0.0399998
0.00035621
0.0399998
0.000356381
0.0399998
0.000356552
0.0399998
0.000356724
0.0399998
0.000356895
0.0399998
0.000357066
0.0399998
0.000357238
0.0399998
0.000357409
0.0399998
0.00035758
0.0399998
0.000357751
0.0399998
0.000357923
0.0399998
0.000358094
0.0399998
0.000358265
0.0399998
0.000358436
0.0399998
0.000358608
0.0399998
0.000358779
0.0399998
0.00035895
0.0399998
0.000359121
0.0399998
0.000359292
0.0399998
0.000359464
0.0399998
0.000359635
0.0399998
0.000359806
0.0399998
0.000359977
0.0399998
0.000360148
0.0399998
0.000360319
0.0399998
0.00036049
0.0399998
0.000360662
0.0399998
0.000360833
0.0399998
0.000361004
0.0399998
0.000361175
0.0399998
0.000361346
0.0399998
0.000361517
0.0399998
0.000361688
0.0399998
0.000361859
0.0399998
0.00036203
0.0399998
0.000362201
0.0399998
0.000362372
0.0399998
0.000362543
0.0399998
0.000362714
0.0399998
0.000362885
0.0399998
0.000363056
0.0399998
0.000363227
0.0399998
0.000363398
0.0399998
0.000363569
0.0399998
0.00036374
0.0399998
0.000363911
0.0399998
0.000364082
0.0399998
0.000364253
0.0399998
0.000364424
0.0399998
0.000364595
0.0399998
0.000364766
0.0399998
0.000364937
0.0399998
0.000365108
0.0399998
0.000365278
0.0399998
0.000365449
0.0399998
0.00036562
0.0399998
0.000365791
0.0399998
0.000365962
0.0399998
0.000366133
0.0399998
0.000366304
0.0399998
0.000366474
0.0399998
0.000366645
0.0399998
0.000366816
0.0399998
0.000366987
0.0399998
0.000367158
0.0399998
0.000367328
0.0399998
0.000367499
0.0399998
0.00036767
0.0399998
0.000367841
0.0399998
0.000368011
0.0399998
0.000368182
0.0399998
0.000368353
0.0399998
0.000368523
0.0399998
0.000368694
0.0399998
0.000368865
0.0399998
0.000369035
0.0399998
0.000369206
0.0399998
0.000369377
0.0399998
0.000369547
0.0399998
0.000369718
0.0399998
0.000369889
0.0399998
0.000370059
0.0399998
0.00037023
0.0399998
0.000370401
0.0399998
0.000370571
0.0399998
0.000370742
0.0399998
0.000370912
0.0399998
0.000371083
0.0399998
0.000371253
0.0399998
0.000371424
0.0399998
0.000371595
0.0399998
0.000371765
0.0399998
0.000371936
0.0399998
0.000372106
0.0399998
0.000372277
0.0399998
0.000372447
0.0399998
0.000372618
0.0399998
0.000372788
0.0399998
0.000372959
0.0399998
0.000373129
0.0399998
0.0003733
0.0399998
0.00037347
0.0399998
0.000373641
0.0399998
0.000373811
0.0399998
0.000373982
0.0399998
0.000374152
0.0399998
0.000374323
0.0399998
0.000374494
0.0399998
0.000374664
0.0399998
0.000374835
0.0399998
0.000375005
0.0399998
0.000375176
0.0399998
0.000375346
0.0399998
0.000375517
0.0399998
0.000375688
0.0399998
0.000375858
0.0399998
0.000376029
0.0399998
0.0003762
0.0399998
0.00037637
0.0399998
0.000376541
0.0399998
0.000376712
0.0399998
0.000376883
0.0399998
0.000377054
0.0399998
0.000377225
0.0399998
0.000377396
0.0399998
0.000377567
0.0399998
0.000377738
0.0399998
0.000377909
0.0399998
0.000378081
0.0399998
0.000378252
0.0399998
0.000378423
0.0399998
0.000378595
0.0399998
0.000378767
0.0399998
0.000378938
0.0399998
0.00037911
0.0399998
0.000379282
0.0399998
0.000379455
0.0399998
0.000379627
0.0399998
0.0003798
0.0399998
0.000379972
0.0399998
0.000380145
0.0399998
0.000380319
0.0399998
0.000380492
0.0399998
0.000380666
0.0399998
0.00038084
0.0399998
0.000381014
0.0399998
0.000381189
0.0399998
0.000381364
0.0399998
0.000381539
0.0399998
0.000381715
0.0399998
0.000381891
0.0399998
0.000382068
0.0399998
0.000382245
0.0399998
0.000382423
0.0399998
0.000382602
0.0399998
0.000382781
0.0399998
0.00038296
0.0399998
0.000383141
0.0399998
0.000383322
0.0399998
0.000383504
0.0399998
0.000383687
0.0399998
0.000383871
0.0399998
0.000384056
0.0399998
0.000384242
0.0399998
0.000384429
0.0399998
0.000384617
0.0399998
0.000384807
0.0399998
0.000384998
0.0399998
0.00038519
0.0399998
0.000385383
0.0399998
0.000385577
0.0399998
0.000385772
0.0399998
0.000385969
0.0399998
0.000386165
0.0399998
0.000386363
0.0399998
0.00038656
0.0399998
0.000386759
0.0399998
0.000386959
0.0399998
0.000387165
0.0399998
0.00038738
0.0399998
0.000387613
0.0399998
0.00038788
0.0399997
0.000388209
0.0399997
0.000388653
0.0399996
0.000389258
0.0399994
0.0399993
0.000621755
0.0400343
0.000631322
0.0400253
0.000633204
0.0400484
0.00062264
0.0400608
0.000604391
0.0400618
0.000583587
0.0400566
0.000563356
0.0400487
0.000545246
0.0400401
0.000529819
0.0400321
0.000517082
0.0400252
0.000506767
0.0400195
0.000498504
0.0400149
0.000491916
0.0400114
0.000486666
0.0400087
0.000482468
0.0400067
0.000479095
0.0400052
0.000476369
0.040004
0.000474151
0.0400031
0.000472338
0.0400025
0.000470848
0.0400019
0.00046962
0.0400015
0.000468607
0.0400012
0.000467772
0.0400009
0.000467085
0.0400007
0.000466524
0.0400005
0.000466069
0.0400004
0.000465706
0.0400002
0.000465422
0.0400001
0.000465208
0.04
0.000465053
0.04
0.000464952
0.0399999
0.000464897
0.0399998
0.000464885
0.0399998
0.000464909
0.0399997
0.000464967
0.0399997
0.000465055
0.0399997
0.000465169
0.0399996
0.000465308
0.0399996
0.00046547
0.0399996
0.000465651
0.0399995
0.00046585
0.0399995
0.000466065
0.0399995
0.000466295
0.0399995
0.000466539
0.0399995
0.000466795
0.0399995
0.000467062
0.0399994
0.000467339
0.0399994
0.000467626
0.0399994
0.00046792
0.0399994
0.000468223
0.0399994
0.000468532
0.0399994
0.000468848
0.0399994
0.00046917
0.0399994
0.000469497
0.0399994
0.00046983
0.0399994
0.000470166
0.0399994
0.000470507
0.0399994
0.000470852
0.0399994
0.000471201
0.0399994
0.000471552
0.0399994
0.000471907
0.0399994
0.000472264
0.0399993
0.000472624
0.0399993
0.000472986
0.0399993
0.00047335
0.0399993
0.000473715
0.0399993
0.000474082
0.0399993
0.000474449
0.0399993
0.000474817
0.0399993
0.000475184
0.0399993
0.000475551
0.0399993
0.000475916
0.0399994
0.000476278
0.0399994
0.000476638
0.0399994
0.000476995
0.0399994
0.000477348
0.0399994
0.000477697
0.0399994
0.000478041
0.0399994
0.000478382
0.0399994
0.000478718
0.0399994
0.000479051
0.0399994
0.00047938
0.0399994
0.000479705
0.0399994
0.000480028
0.0399995
0.000480348
0.0399995
0.000480666
0.0399995
0.000480982
0.0399995
0.000481295
0.0399995
0.000481607
0.0399995
0.000481918
0.0399995
0.000482227
0.0399995
0.000482536
0.0399995
0.000482843
0.0399995
0.000483149
0.0399995
0.000483454
0.0399995
0.000483759
0.0399995
0.000484063
0.0399995
0.000484366
0.0399995
0.000484669
0.0399995
0.000484972
0.0399995
0.000485274
0.0399995
0.000485576
0.0399995
0.000485879
0.0399995
0.000486181
0.0399995
0.000486483
0.0399995
0.000486785
0.0399995
0.000487088
0.0399995
0.00048739
0.0399995
0.000487693
0.0399995
0.000487996
0.0399995
0.000488298
0.0399995
0.000488601
0.0399995
0.000488902
0.0399995
0.000489203
0.0399995
0.000489504
0.0399995
0.000489803
0.0399995
0.0004901
0.0399995
0.000490397
0.0399995
0.000490692
0.0399995
0.000490985
0.0399995
0.000491277
0.0399995
0.000491568
0.0399995
0.000491857
0.0399995
0.000492145
0.0399995
0.000492432
0.0399995
0.000492718
0.0399995
0.000493003
0.0399995
0.000493288
0.0399995
0.000493572
0.0399995
0.000493855
0.0399995
0.000494138
0.0399995
0.00049442
0.0399995
0.000494703
0.0399995
0.000494984
0.0399995
0.000495266
0.0399995
0.000495548
0.0399995
0.000495829
0.0399995
0.000496111
0.0399995
0.000496393
0.0399995
0.000496674
0.0399995
0.000496956
0.0399995
0.000497238
0.0399995
0.00049752
0.0399995
0.000497803
0.0399995
0.000498085
0.0399995
0.000498368
0.0399995
0.00049865
0.0399995
0.000498933
0.0399995
0.000499215
0.0399995
0.000499497
0.0399995
0.000499779
0.0399995
0.000500061
0.0399995
0.000500342
0.0399995
0.000500623
0.0399995
0.000500904
0.0399995
0.000501185
0.0399995
0.000501465
0.0399995
0.000501745
0.0399995
0.000502025
0.0399995
0.000502304
0.0399995
0.000502583
0.0399995
0.000502862
0.0399995
0.000503141
0.0399995
0.000503419
0.0399995
0.000503697
0.0399995
0.000503976
0.0399995
0.000504254
0.0399995
0.000504532
0.0399995
0.00050481
0.0399995
0.000505088
0.0399995
0.000505365
0.0399995
0.000505643
0.0399995
0.000505921
0.0399995
0.000506199
0.0399995
0.000506477
0.0399995
0.000506754
0.0399995
0.000507032
0.0399995
0.00050731
0.0399995
0.000507587
0.0399995
0.000507865
0.0399995
0.000508142
0.0399995
0.000508419
0.0399995
0.000508696
0.0399995
0.000508973
0.0399995
0.00050925
0.0399995
0.000509526
0.0399995
0.000509802
0.0399995
0.000510078
0.0399995
0.000510354
0.0399995
0.00051063
0.0399995
0.000510905
0.0399995
0.000511181
0.0399995
0.000511456
0.0399995
0.000511732
0.0399995
0.000512008
0.0399995
0.000512283
0.0399995
0.000512559
0.0399995
0.000512835
0.0399995
0.000513112
0.0399995
0.000513388
0.0399995
0.000513664
0.0399995
0.000513941
0.0399995
0.000514217
0.0399995
0.000514494
0.0399995
0.00051477
0.0399995
0.000515047
0.0399995
0.000515323
0.0399995
0.0005156
0.0399995
0.000515877
0.0399995
0.000516153
0.0399995
0.000516429
0.0399995
0.000516706
0.0399995
0.000516982
0.0399995
0.000517258
0.0399995
0.000517534
0.0399995
0.000517809
0.0399995
0.000518085
0.0399995
0.00051836
0.0399995
0.000518636
0.0399996
0.000518911
0.0399996
0.000519186
0.0399996
0.000519461
0.0399996
0.000519736
0.0399996
0.00052001
0.0399996
0.000520285
0.0399996
0.00052056
0.0399996
0.000520834
0.0399996
0.000521109
0.0399996
0.000521383
0.0399996
0.000521658
0.0399996
0.000521932
0.0399996
0.000522207
0.0399996
0.000522482
0.0399996
0.000522756
0.0399996
0.000523031
0.0399996
0.000523305
0.0399996
0.00052358
0.0399996
0.000523855
0.0399996
0.000524129
0.0399996
0.000524404
0.0399996
0.000524678
0.0399996
0.000524953
0.0399996
0.000525228
0.0399996
0.000525502
0.0399996
0.000525777
0.0399996
0.000526051
0.0399996
0.000526326
0.0399996
0.0005266
0.0399996
0.000526875
0.0399996
0.000527149
0.0399996
0.000527424
0.0399996
0.000527698
0.0399996
0.000527973
0.0399996
0.000528247
0.0399996
0.000528522
0.0399996
0.000528796
0.0399996
0.000529071
0.0399996
0.000529345
0.0399996
0.000529619
0.0399996
0.000529894
0.0399996
0.000530168
0.0399996
0.000530443
0.0399996
0.000530717
0.0399996
0.000530991
0.0399996
0.000531266
0.0399996
0.00053154
0.0399996
0.000531814
0.0399996
0.000532088
0.0399996
0.000532362
0.0399996
0.000532637
0.0399996
0.000532911
0.0399996
0.000533185
0.0399996
0.000533459
0.0399996
0.000533733
0.0399996
0.000534007
0.0399996
0.000534281
0.0399996
0.000534555
0.0399996
0.000534829
0.0399996
0.000535103
0.0399996
0.000535376
0.0399996
0.00053565
0.0399996
0.000535924
0.0399996
0.000536198
0.0399996
0.000536472
0.0399996
0.000536745
0.0399996
0.000537019
0.0399996
0.000537293
0.0399996
0.000537567
0.0399996
0.00053784
0.0399996
0.000538114
0.0399996
0.000538388
0.0399996
0.000538661
0.0399996
0.000538935
0.0399996
0.000539208
0.0399996
0.000539482
0.0399996
0.000539755
0.0399996
0.000540028
0.0399996
0.000540302
0.0399996
0.000540575
0.0399996
0.000540848
0.0399996
0.000541122
0.0399996
0.000541395
0.0399996
0.000541668
0.0399996
0.000541941
0.0399996
0.000542214
0.0399996
0.000542488
0.0399996
0.000542761
0.0399996
0.000543034
0.0399996
0.000543307
0.0399996
0.00054358
0.0399996
0.000543853
0.0399996
0.000544125
0.0399996
0.000544398
0.0399996
0.000544671
0.0399996
0.000544944
0.0399996
0.000545217
0.0399996
0.000545489
0.0399996
0.000545762
0.0399996
0.000546035
0.0399996
0.000546307
0.0399996
0.00054658
0.0399996
0.000546853
0.0399996
0.000547125
0.0399996
0.000547398
0.0399996
0.00054767
0.0399996
0.000547943
0.0399996
0.000548215
0.0399996
0.000548487
0.0399996
0.00054876