/*--------------------------------*- C++ -*----------------------------------*\
| =========                 |                                                 |
| \\      /  F ield         | OpenFOAM: The Open Source CFD Toolbox           |
|  \\    /   O peration     | Version:  2512                                  |
|   \\  /    A nd           | Website:  www.openfoam.com                      |
|    \\/     M anipulation  |                                                 |
\*---------------------------------------------------------------------------*/
FoamFile
{
    version     2.0;
    format      ascii;
    arch        "LSB;label=32;scalar=64";
    class       volVectorField;
    location    "0.004";
    object      U;
}
// * * * * * * * * * * * * * * * * * * * * * * * * * * * * * * * * * * * * * //

dimensions      [0 1 -1 0 0 0 0];

internalField   nonuniform List<vector> 
100000
(
(0.757187 0.129528 0)
(0.653014 0.0996797 0)
(0.482367 0.0496317 0)
(0.369703 0.0265528 0)
(0.301643 0.0152547 0)
(0.258354 0.00902994 0)
(0.229608 0.00556434 0)
(0.209944 0.00362773 0)
(0.196076 0.00251201 0)
(0.185986 0.00184194 0)
(0.17842 0.0014223 0)
(0.172587 0.00114846 0)
(0.167974 0.00096229 0)
(0.164243 0.000830562 0)
(0.161164 0.000733743 0)
(0.158581 0.000660053 0)
(0.156384 0.000602218 0)
(0.154493 0.000555635 0)
(0.152851 0.000517312 0)
(0.151415 0.000485249 0)
(0.15015 0.000458061 0)
(0.149031 0.000434759 0)
(0.148036 0.000414611 0)
(0.147148 0.000397061 0)
(0.146354 0.000381679 0)
(0.145641 0.00036812 0)
(0.145 0.000356109 0)
(0.144423 0.000345421 0)
(0.143902 0.00033587 0)
(0.143431 0.000327303 0)
(0.143005 0.00031959 0)
(0.142621 0.000312625 0)
(0.142272 0.000306314 0)
(0.141957 0.000300581 0)
(0.141672 0.00029536 0)
(0.141414 0.000290594 0)
(0.141181 0.000286235 0)
(0.140971 0.00028224 0)
(0.140782 0.000278574 0)
(0.140612 0.000275206 0)
(0.140459 0.000272107 0)
(0.140323 0.000269252 0)
(0.140201 0.000266621 0)
(0.140093 0.000264192 0)
(0.139998 0.000261948 0)
(0.139914 0.000259872 0)
(0.139841 0.000257949 0)
(0.139778 0.000256167 0)
(0.139724 0.000254512 0)
(0.139678 0.000252974 0)
(0.139641 0.000251544 0)
(0.13961 0.000250212 0)
(0.139587 0.000248972 0)
(0.13957 0.000247815 0)
(0.139559 0.000246736 0)
(0.139554 0.000245729 0)
(0.139553 0.000244787 0)
(0.139558 0.000243907 0)
(0.139566 0.000243084 0)
(0.139579 0.000242312 0)
(0.139596 0.000241589 0)
(0.139617 0.000240911 0)
(0.139641 0.000240274 0)
(0.139668 0.000239676 0)
(0.139698 0.000239115 0)
(0.139731 0.000238591 0)
(0.139766 0.000238103 0)
(0.139804 0.000237652 0)
(0.139844 0.000237241 0)
(0.139886 0.00023687 0)
(0.139929 0.000236543 0)
(0.139974 0.000236261 0)
(0.14002 0.000236022 0)
(0.140067 0.000235825 0)
(0.140114 0.000235667 0)
(0.140162 0.00023554 0)
(0.140211 0.000235438 0)
(0.14026 0.000235353 0)
(0.140309 0.000235277 0)
(0.140358 0.000235206 0)
(0.140407 0.000235134 0)
(0.140457 0.000235059 0)
(0.140506 0.00023498 0)
(0.140556 0.000234896 0)
(0.140606 0.000234808 0)
(0.140657 0.000234718 0)
(0.140708 0.000234627 0)
(0.140759 0.000234534 0)
(0.14081 0.000234442 0)
(0.140862 0.00023435 0)
(0.140913 0.000234259 0)
(0.140966 0.000234169 0)
(0.141018 0.00023408 0)
(0.141071 0.000233991 0)
(0.141125 0.000233904 0)
(0.141178 0.000233816 0)
(0.141232 0.000233728 0)
(0.141286 0.000233641 0)
(0.141341 0.000233553 0)
(0.141396 0.000233465 0)
(0.141451 0.000233375 0)
(0.141507 0.000233285 0)
(0.141563 0.000233194 0)
(0.14162 0.000233101 0)
(0.141676 0.000233007 0)
(0.141734 0.000232911 0)
(0.141791 0.000232815 0)
(0.141849 0.00023272 0)
(0.141908 0.000232627 0)
(0.141966 0.000232537 0)
(0.142025 0.000232454 0)
(0.142085 0.000232379 0)
(0.142144 0.000232313 0)
(0.142204 0.000232258 0)
(0.142264 0.000232214 0)
(0.142324 0.000232179 0)
(0.142384 0.000232152 0)
(0.142444 0.000232131 0)
(0.142504 0.000232113 0)
(0.142563 0.000232096 0)
(0.142623 0.000232078 0)
(0.142683 0.000232057 0)
(0.142743 0.000232032 0)
(0.142803 0.000232002 0)
(0.142863 0.000231969 0)
(0.142923 0.000231932 0)
(0.142983 0.000231891 0)
(0.143043 0.000231848 0)
(0.143103 0.000231801 0)
(0.143163 0.000231752 0)
(0.143224 0.0002317 0)
(0.143284 0.000231647 0)
(0.143345 0.000231591 0)
(0.143406 0.000231533 0)
(0.143467 0.000231473 0)
(0.143528 0.000231411 0)
(0.14359 0.000231347 0)
(0.143652 0.000231281 0)
(0.143714 0.000231213 0)
(0.143776 0.000231144 0)
(0.143839 0.000231073 0)
(0.143902 0.000231002 0)
(0.143965 0.00023093 0)
(0.144028 0.000230858 0)
(0.144092 0.000230787 0)
(0.144156 0.000230718 0)
(0.14422 0.00023065 0)
(0.144284 0.000230585 0)
(0.144349 0.000230522 0)
(0.144414 0.000230462 0)
(0.144479 0.000230404 0)
(0.144544 0.000230347 0)
(0.144609 0.000230292 0)
(0.144675 0.000230238 0)
(0.14474 0.000230184 0)
(0.144806 0.000230129 0)
(0.144872 0.000230074 0)
(0.144938 0.000230019 0)
(0.145005 0.000229963 0)
(0.145071 0.000229906 0)
(0.145138 0.000229848 0)
(0.145205 0.000229789 0)
(0.145272 0.00022973 0)
(0.145339 0.000229669 0)
(0.145407 0.000229608 0)
(0.145474 0.000229546 0)
(0.145542 0.000229483 0)
(0.14561 0.00022942 0)
(0.145679 0.000229355 0)
(0.145747 0.00022929 0)
(0.145816 0.000229224 0)
(0.145885 0.000229157 0)
(0.145955 0.000229089 0)
(0.146024 0.000229022 0)
(0.146094 0.000228954 0)
(0.146164 0.000228886 0)
(0.146234 0.000228818 0)
(0.146305 0.000228751 0)
(0.146375 0.000228684 0)
(0.146446 0.000228619 0)
(0.146517 0.000228555 0)
(0.146589 0.000228493 0)
(0.14666 0.000228431 0)
(0.146732 0.00022837 0)
(0.146804 0.000228309 0)
(0.146876 0.000228248 0)
(0.146948 0.000228186 0)
(0.147021 0.000228123 0)
(0.147094 0.000228058 0)
(0.147167 0.000227992 0)
(0.14724 0.000227924 0)
(0.147314 0.000227853 0)
(0.147387 0.000227782 0)
(0.147461 0.000227708 0)
(0.147536 0.000227633 0)
(0.14761 0.000227557 0)
(0.147685 0.000227481 0)
(0.14776 0.000227404 0)
(0.147836 0.000227327 0)
(0.147911 0.00022725 0)
(0.147987 0.000227174 0)
(0.148064 0.000227098 0)
(0.14814 0.000227022 0)
(0.148217 0.000226947 0)
(0.148294 0.000226872 0)
(0.148371 0.000226798 0)
(0.148449 0.000226724 0)
(0.148527 0.000226651 0)
(0.148605 0.000226578 0)
(0.148683 0.000226507 0)
(0.148762 0.000226435 0)
(0.148841 0.000226365 0)
(0.14892 0.000226294 0)
(0.149 0.000226225 0)
(0.149079 0.000226155 0)
(0.149159 0.000226086 0)
(0.149239 0.000226016 0)
(0.14932 0.000225945 0)
(0.1494 0.000225875 0)
(0.149481 0.000225803 0)
(0.149562 0.000225731 0)
(0.149644 0.000225658 0)
(0.149725 0.000225584 0)
(0.149807 0.00022551 0)
(0.149889 0.000225435 0)
(0.149972 0.000225359 0)
(0.150054 0.000225283 0)
(0.150137 0.000225206 0)
(0.150221 0.000225128 0)
(0.150304 0.00022505 0)
(0.150388 0.000224972 0)
(0.150472 0.000224893 0)
(0.150556 0.000224813 0)
(0.150641 0.000224734 0)
(0.150726 0.000224654 0)
(0.150811 0.000224574 0)
(0.150897 0.000224494 0)
(0.150983 0.000224414 0)
(0.151069 0.000224334 0)
(0.151156 0.000224254 0)
(0.151242 0.000224174 0)
(0.151329 0.000224094 0)
(0.151417 0.000224014 0)
(0.151504 0.000223934 0)
(0.151592 0.000223854 0)
(0.15168 0.000223773 0)
(0.151769 0.000223692 0)
(0.151858 0.00022361 0)
(0.151947 0.000223528 0)
(0.152036 0.000223446 0)
(0.152126 0.000223363 0)
(0.152216 0.000223281 0)
(0.152307 0.000223198 0)
(0.152397 0.000223115 0)
(0.152488 0.000223032 0)
(0.152579 0.000222948 0)
(0.152671 0.000222865 0)
(0.152763 0.000222782 0)
(0.152855 0.000222698 0)
(0.152948 0.000222615 0)
(0.15304 0.000222531 0)
(0.153134 0.000222447 0)
(0.153227 0.000222363 0)
(0.153321 0.000222279 0)
(0.153415 0.000222195 0)
(0.153509 0.000222111 0)
(0.153604 0.000222027 0)
(0.153699 0.000221942 0)
(0.153794 0.000221857 0)
(0.15389 0.000221773 0)
(0.153986 0.000221688 0)
(0.154082 0.000221602 0)
(0.154179 0.000221517 0)
(0.154275 0.000221431 0)
(0.154373 0.000221345 0)
(0.15447 0.000221259 0)
(0.154568 0.000221172 0)
(0.154666 0.000221086 0)
(0.154765 0.000220999 0)
(0.154864 0.000220911 0)
(0.154963 0.000220824 0)
(0.155062 0.000220736 0)
(0.155162 0.000220649 0)
(0.155262 0.000220561 0)
(0.155363 0.000220473 0)
(0.155463 0.000220385 0)
(0.155564 0.000220297 0)
(0.155666 0.000220208 0)
(0.155768 0.00022012 0)
(0.15587 0.000220032 0)
(0.155972 0.000219943 0)
(0.156075 0.000219854 0)
(0.156178 0.000219765 0)
(0.156281 0.000219676 0)
(0.156385 0.000219587 0)
(0.156489 0.000219497 0)
(0.156594 0.000219407 0)
(0.156699 0.000219318 0)
(0.156804 0.000219228 0)
(0.156909 0.000219137 0)
(0.157015 0.000219047 0)
(0.157121 0.000218957 0)
(0.157227 0.000218866 0)
(0.157334 0.000218775 0)
(0.157441 0.000218684 0)
(0.157549 0.000218593 0)
(0.157657 0.000218502 0)
(0.157765 0.00021841 0)
(0.157873 0.000218318 0)
(0.157982 0.000218226 0)
(0.158091 0.000218134 0)
(0.158201 0.000218042 0)
(0.158311 0.00021795 0)
(0.158421 0.000217857 0)
(0.158532 0.000217765 0)
(0.158643 0.000217672 0)
(0.158754 0.000217579 0)
(0.158866 0.000217486 0)
(0.158978 0.000217392 0)
(0.15909 0.000217299 0)
(0.159203 0.000217205 0)
(0.159316 0.000217111 0)
(0.159429 0.000217017 0)
(0.159543 0.000216923 0)
(0.159657 0.000216829 0)
(0.159771 0.000216734 0)
(0.159886 0.00021664 0)
(0.160002 0.000216545 0)
(0.160117 0.00021645 0)
(0.160233 0.000216355 0)
(0.160349 0.00021626 0)
(0.160466 0.000216164 0)
(0.160583 0.000216069 0)
(0.1607 0.000215973 0)
(0.160818 0.000215877 0)
(0.160936 0.000215781 0)
(0.161054 0.000215685 0)
(0.161173 0.000215589 0)
(0.161292 0.000215492 0)
(0.161412 0.000215395 0)
(0.161532 0.000215299 0)
(0.161652 0.000215202 0)
(0.161773 0.000215105 0)
(0.161894 0.000215007 0)
(0.162015 0.00021491 0)
(0.162137 0.000214812 0)
(0.162259 0.000214715 0)
(0.162381 0.000214617 0)
(0.162504 0.000214519 0)
(0.162627 0.000214421 0)
(0.162751 0.000214323 0)
(0.162875 0.000214224 0)
(0.162999 0.000214126 0)
(0.163124 0.000214027 0)
(0.163249 0.000213928 0)
(0.163374 0.000213829 0)
(0.1635 0.00021373 0)
(0.163626 0.000213631 0)
(0.163753 0.000213532 0)
(0.16388 0.000213432 0)
(0.164007 0.000213332 0)
(0.164135 0.000213233 0)
(0.164263 0.000213133 0)
(0.164392 0.000213032 0)
(0.16452 0.000212932 0)
(0.16465 0.000212832 0)
(0.164779 0.000212731 0)
(0.164909 0.000212631 0)
(0.16504 0.00021253 0)
(0.16517 0.000212429 0)
(0.165302 0.000212328 0)
(0.165433 0.000212227 0)
(0.165565 0.000212126 0)
(0.165697 0.000212024 0)
(0.16583 0.000211923 0)
(0.165963 0.000211821 0)
(0.166096 0.000211719 0)
(0.16623 0.000211617 0)
(0.166365 0.000211515 0)
(0.166499 0.000211413 0)
(0.166634 0.000211311 0)
(0.16677 0.000211208 0)
(0.166905 0.000211106 0)
(0.167041 0.000211003 0)
(0.167178 0.0002109 0)
(0.167315 0.000210798 0)
(0.167452 0.000210694 0)
(0.16759 0.000210591 0)
(0.167728 0.000210488 0)
(0.167867 0.000210385 0)
(0.168006 0.000210281 0)
(0.168145 0.000210177 0)
(0.168285 0.000210074 0)
(0.168425 0.00020997 0)
(0.168565 0.000209866 0)
(0.168706 0.000209762 0)
(0.168847 0.000209657 0)
(0.168989 0.000209553 0)
(0.169131 0.000209449 0)
(0.169273 0.000209344 0)
(0.169416 0.000209239 0)
(0.169559 0.000209135 0)
(0.169703 0.00020903 0)
(0.169847 0.000208925 0)
(0.169992 0.000208819 0)
(0.170136 0.000208714 0)
(0.170282 0.000208609 0)
(0.170427 0.000208503 0)
(0.170573 0.000208398 0)
(0.17072 0.000208292 0)
(0.170867 0.000208186 0)
(0.171014 0.00020808 0)
(0.171161 0.000207974 0)
(0.17131 0.000207868 0)
(0.171458 0.000207762 0)
(0.171607 0.000207656 0)
(0.171756 0.000207549 0)
(0.171906 0.000207443 0)
(0.172056 0.000207336 0)
(0.172206 0.000207229 0)
(0.172357 0.000207123 0)
(0.172508 0.000207016 0)
(0.17266 0.000206909 0)
(0.172812 0.000206801 0)
(0.172964 0.000206694 0)
(0.173117 0.000206587 0)
(0.173271 0.00020648 0)
(0.173424 0.000206372 0)
(0.173578 0.000206264 0)
(0.173733 0.000206157 0)
(0.173888 0.000206049 0)
(0.174043 0.000205941 0)
(0.174199 0.000205833 0)
(0.174355 0.000205725 0)
(0.174512 0.000205617 0)
(0.174668 0.000205508 0)
(0.174826 0.0002054 0)
(0.174984 0.000205291 0)
(0.175142 0.000205183 0)
(0.1753 0.000205074 0)
(0.175459 0.000204965 0)
(0.175619 0.000204857 0)
(0.175779 0.000204748 0)
(0.175939 0.000204639 0)
(0.176099 0.00020453 0)
(0.17626 0.00020442 0)
(0.176422 0.000204311 0)
(0.176584 0.000204202 0)
(0.176746 0.000204092 0)
(0.176909 0.000203983 0)
(0.177072 0.000203873 0)
(0.177235 0.000203764 0)
(0.177399 0.000203654 0)
(0.177563 0.000203544 0)
(0.177728 0.000203434 0)
(0.177893 0.000203324 0)
(0.178059 0.000203214 0)
(0.178225 0.000203104 0)
(0.178391 0.000202994 0)
(0.178558 0.000202883 0)
(0.178725 0.000202773 0)
(0.178893 0.000202662 0)
(0.179061 0.000202552 0)
(0.179229 0.000202441 0)
(0.179398 0.00020233 0)
(0.179567 0.00020222 0)
(0.179737 0.000202109 0)
(0.179907 0.000201998 0)
(0.180078 0.000201887 0)
(0.180249 0.000201776 0)
(0.18042 0.000201665 0)
(0.180592 0.000201553 0)
(0.180764 0.000201442 0)
(0.180937 0.000201331 0)
(0.18111 0.000201219 0)
(0.181283 0.000201108 0)
(0.181457 0.000200996 0)
(0.181631 0.000200884 0)
(0.181806 0.000200773 0)
(0.181981 0.000200661 0)
(0.182156 0.000200549 0)
(0.182332 0.000200437 0)
(0.182508 0.000200325 0)
(0.182685 0.000200213 0)
(0.182862 0.000200101 0)
(0.18304 0.000199989 0)
(0.183218 0.000199877 0)
(0.183396 0.000199764 0)
(0.183575 0.000199652 0)
(0.183754 0.00019954 0)
(0.183934 0.000199427 0)
(0.184114 0.000199315 0)
(0.184294 0.000199202 0)
(0.184475 0.000199089 0)
(0.184657 0.000198977 0)
(0.184838 0.000198864 0)
(0.18502 0.000198751 0)
(0.185203 0.000198638 0)
(0.185386 0.000198525 0)
(0.185569 0.000198412 0)
(0.185753 0.000198299 0)
(0.185937 0.000198186 0)
(0.186122 0.000198073 0)
(0.186307 0.00019796 0)
(0.186492 0.000197846 0)
(0.186678 0.000197733 0)
(0.186864 0.00019762 0)
(0.187051 0.000197506 0)
(0.187238 0.000197393 0)
(0.187426 0.000197279 0)
(0.187614 0.000197165 0)
(0.187802 0.000197052 0)
(0.187991 0.000196938 0)
(0.18818 0.000196824 0)
(0.18837 0.000196711 0)
(0.18856 0.000196597 0)
(0.18875 0.000196483 0)
(0.188941 0.000196369 0)
(0.189132 0.000196255 0)
(0.189324 0.000196141 0)
(0.189516 0.000196027 0)
(0.189708 0.000195913 0)
(0.189901 0.000195799 0)
(0.190095 0.000195684 0)
(0.190288 0.00019557 0)
(0.190482 0.000195456 0)
(0.190677 0.000195341 0)
(0.190872 0.000195227 0)
(0.191067 0.000195113 0)
(0.191263 0.000194998 0)
(0.191459 0.000194884 0)
(0.191656 0.000194769 0)
(0.191853 0.000194655 0)
(0.192051 0.00019454 0)
(0.192248 0.000194425 0)
(0.192447 0.000194311 0)
(0.192645 0.000194196 0)
(0.192844 0.000194081 0)
(0.193044 0.000193966 0)
(0.193244 0.000193851 0)
(0.193444 0.000193737 0)
(0.193645 0.000193622 0)
(0.193846 0.000193507 0)
(0.194048 0.000193392 0)
(0.19425 0.000193277 0)
(0.194452 0.000193162 0)
(0.194655 0.000193047 0)
(0.194858 0.000192931 0)
(0.195062 0.000192816 0)
(0.195266 0.000192701 0)
(0.19547 0.000192586 0)
(0.195675 0.000192471 0)
(0.19588 0.000192355 0)
(0.196086 0.00019224 0)
(0.196292 0.000192125 0)
(0.196498 0.000192009 0)
(0.196705 0.000191894 0)
(0.196912 0.000191779 0)
(0.19712 0.000191663 0)
(0.197328 0.000191548 0)
(0.197537 0.000191432 0)
(0.197746 0.000191317 0)
(0.197955 0.000191201 0)
(0.198165 0.000191085 0)
(0.198375 0.00019097 0)
(0.198585 0.000190854 0)
(0.198796 0.000190738 0)
(0.199008 0.000190623 0)
(0.199219 0.000190507 0)
(0.199431 0.000190391 0)
(0.199644 0.000190276 0)
(0.199857 0.00019016 0)
(0.20007 0.000190044 0)
(0.200284 0.000189928 0)
(0.200498 0.000189812 0)
(0.200713 0.000189696 0)
(0.200928 0.000189581 0)
(0.201143 0.000189465 0)
(0.201359 0.000189349 0)
(0.201575 0.000189233 0)
(0.201792 0.000189117 0)
(0.202009 0.000189001 0)
(0.202226 0.000188885 0)
(0.202444 0.000188769 0)
(0.202662 0.000188653 0)
(0.20288 0.000188537 0)
(0.203099 0.00018842 0)
(0.203319 0.000188304 0)
(0.203539 0.000188188 0)
(0.203759 0.000188072 0)
(0.203979 0.000187956 0)
(0.2042 0.00018784 0)
(0.204422 0.000187724 0)
(0.204643 0.000187607 0)
(0.204865 0.000187491 0)
(0.205088 0.000187375 0)
(0.205311 0.000187259 0)
(0.205534 0.000187142 0)
(0.205758 0.000187026 0)
(0.205982 0.00018691 0)
(0.206206 0.000186794 0)
(0.206431 0.000186677 0)
(0.206657 0.000186561 0)
(0.206882 0.000186445 0)
(0.207108 0.000186328 0)
(0.207335 0.000186212 0)
(0.207562 0.000186095 0)
(0.207789 0.000185979 0)
(0.208016 0.000185863 0)
(0.208244 0.000185746 0)
(0.208473 0.00018563 0)
(0.208702 0.000185513 0)
(0.208931 0.000185397 0)
(0.20916 0.000185281 0)
(0.20939 0.000185164 0)
(0.209621 0.000185048 0)
(0.209851 0.000184931 0)
(0.210082 0.000184815 0)
(0.210314 0.000184698 0)
(0.210546 0.000184582 0)
(0.210778 0.000184465 0)
(0.21101 0.000184349 0)
(0.211243 0.000184232 0)
(0.211477 0.000184116 0)
(0.211711 0.000183999 0)
(0.211945 0.000183883 0)
(0.212179 0.000183766 0)
(0.212414 0.000183649 0)
(0.212649 0.000183533 0)
(0.212885 0.000183416 0)
(0.213121 0.0001833 0)
(0.213358 0.000183183 0)
(0.213594 0.000183067 0)
(0.213832 0.000182951 0)
(0.214069 0.000182834 0)
(0.214307 0.000182718 0)
(0.214545 0.000182602 0)
(0.214784 0.000182485 0)
(0.215023 0.000182369 0)
(0.215262 0.000182253 0)
(0.215502 0.000182137 0)
(0.215742 0.000182021 0)
(0.215983 0.000181905 0)
(0.216224 0.000181789 0)
(0.216465 0.000181673 0)
(0.216707 0.000181558 0)
(0.216949 0.000181442 0)
(0.217191 0.000181326 0)
(0.217434 0.000181211 0)
(0.217677 0.000181095 0)
(0.21792 0.00018098 0)
(0.218164 0.000180865 0)
(0.218408 0.000180749 0)
(0.218653 0.000180634 0)
(0.218898 0.000180519 0)
(0.219143 0.000180404 0)
(0.219389 0.000180289 0)
(0.219635 0.000180174 0)
(0.219881 0.000180059 0)
(0.220128 0.000179945 0)
(0.220375 0.00017983 0)
(0.220622 0.000179715 0)
(0.22087 0.000179601 0)
(0.221118 0.000179487 0)
(0.221367 0.000179372 0)
(0.221616 0.000179258 0)
(0.221865 0.000179144 0)
(0.222114 0.00017903 0)
(0.222364 0.000178916 0)
(0.222615 0.000178803 0)
(0.222865 0.000178689 0)
(0.223116 0.000178575 0)
(0.223368 0.000178462 0)
(0.223619 0.000178349 0)
(0.223871 0.000178235 0)
(0.224124 0.000178122 0)
(0.224376 0.000178009 0)
(0.22463 0.000177896 0)
(0.224883 0.000177783 0)
(0.225137 0.00017767 0)
(0.225391 0.000177558 0)
(0.225645 0.000177445 0)
(0.2259 0.000177333 0)
(0.226155 0.000177221 0)
(0.226411 0.000177108 0)
(0.226667 0.000176996 0)
(0.226923 0.000176884 0)
(0.227179 0.000176772 0)
(0.227436 0.000176661 0)
(0.227693 0.000176549 0)
(0.227951 0.000176437 0)
(0.228209 0.000176326 0)
(0.228467 0.000176215 0)
(0.228726 0.000176104 0)
(0.228984 0.000175993 0)
(0.229244 0.000175882 0)
(0.229503 0.000175771 0)
(0.229763 0.00017566 0)
(0.230023 0.00017555 0)
(0.230284 0.000175439 0)
(0.230545 0.000175329 0)
(0.230806 0.000175219 0)
(0.231067 0.000175108 0)
(0.231329 0.000174999 0)
(0.231591 0.000174889 0)
(0.231854 0.000174779 0)
(0.232117 0.000174669 0)
(0.23238 0.00017456 0)
(0.232643 0.000174451 0)
(0.232907 0.000174341 0)
(0.233171 0.000174232 0)
(0.233436 0.000174123 0)
(0.233701 0.000174015 0)
(0.233966 0.000173906 0)
(0.234231 0.000173797 0)
(0.234497 0.000173689 0)
(0.234763 0.000173581 0)
(0.235029 0.000173473 0)
(0.235296 0.000173365 0)
(0.235563 0.000173257 0)
(0.23583 0.000173149 0)
(0.236098 0.000173041 0)
(0.236366 0.000172934 0)
(0.236634 0.000172826 0)
(0.236902 0.000172719 0)
(0.237171 0.000172612 0)
(0.23744 0.000172505 0)
(0.23771 0.000172398 0)
(0.23798 0.000172292 0)
(0.23825 0.000172185 0)
(0.23852 0.000172079 0)
(0.238791 0.000171973 0)
(0.239062 0.000171867 0)
(0.239333 0.000171761 0)
(0.239605 0.000171655 0)
(0.239876 0.000171549 0)
(0.240149 0.000171444 0)
(0.240421 0.000171338 0)
(0.240694 0.000171233 0)
(0.240967 0.000171128 0)
(0.24124 0.000171023 0)
(0.241514 0.000170918 0)
(0.241788 0.000170813 0)
(0.242062 0.000170709 0)
(0.242337 0.000170604 0)
(0.242612 0.0001705 0)
(0.242887 0.000170396 0)
(0.243162 0.000170292 0)
(0.243438 0.000170188 0)
(0.243714 0.000170085 0)
(0.24399 0.000169981 0)
(0.244267 0.000169878 0)
(0.244543 0.000169775 0)
(0.244821 0.000169672 0)
(0.245098 0.000169569 0)
(0.245376 0.000169466 0)
(0.245654 0.000169363 0)
(0.245932 0.000169261 0)
(0.24621 0.000169158 0)
(0.246489 0.000169056 0)
(0.246768 0.000168954 0)
(0.247048 0.000168852 0)
(0.247327 0.000168751 0)
(0.247607 0.000168649 0)
(0.247887 0.000168548 0)
(0.248168 0.000168447 0)
(0.248448 0.000168345 0)
(0.248729 0.000168245 0)
(0.249011 0.000168144 0)
(0.249292 0.000168043 0)
(0.249574 0.000167943 0)
(0.249856 0.000167842 0)
(0.250138 0.000167742 0)
(0.250421 0.000167642 0)
(0.250704 0.000167542 0)
(0.250987 0.000167443 0)
(0.25127 0.000167343 0)
(0.251554 0.000167244 0)
(0.251838 0.000167144 0)
(0.252122 0.000167045 0)
(0.252406 0.000166946 0)
(0.252691 0.000166848 0)
(0.252976 0.000166749 0)
(0.253261 0.000166651 0)
(0.253546 0.000166552 0)
(0.253832 0.000166454 0)
(0.254118 0.000166356 0)
(0.254404 0.000166259 0)
(0.25469 0.000166161 0)
(0.254977 0.000166064 0)
(0.255264 0.000165966 0)
(0.255551 0.000165869 0)
(0.255838 0.000165772 0)
(0.256126 0.000165675 0)
(0.256414 0.000165579 0)
(0.256702 0.000165482 0)
(0.25699 0.000165386 0)
(0.257278 0.00016529 0)
(0.257567 0.000165194 0)
(0.257856 0.000165098 0)
(0.258146 0.000165002 0)
(0.258435 0.000164907 0)
(0.258725 0.000164811 0)
(0.259015 0.000164716 0)
(0.259305 0.000164621 0)
(0.259595 0.000164526 0)
(0.259886 0.000164432 0)
(0.260177 0.000164337 0)
(0.260468 0.000164243 0)
(0.260759 0.000164149 0)
(0.261051 0.000164055 0)
(0.261343 0.000163961 0)
(0.261635 0.000163867 0)
(0.261927 0.000163774 0)
(0.262219 0.000163681 0)
(0.262512 0.000163587 0)
(0.262805 0.000163495 0)
(0.263098 0.000163402 0)
(0.263391 0.000163309 0)
(0.263685 0.000163217 0)
(0.263978 0.000163124 0)
(0.264272 0.000163032 0)
(0.264566 0.00016294 0)
(0.264861 0.000162849 0)
(0.265155 0.000162757 0)
(0.26545 0.000162666 0)
(0.265745 0.000162574 0)
(0.26604 0.000162483 0)
(0.266335 0.000162392 0)
(0.266631 0.000162302 0)
(0.266927 0.000162211 0)
(0.267223 0.000162121 0)
(0.267519 0.000162031 0)
(0.267815 0.000161941 0)
(0.268112 0.000161851 0)
(0.268409 0.000161761 0)
(0.268706 0.000161672 0)
(0.269003 0.000161583 0)
(0.2693 0.000161494 0)
(0.269598 0.000161405 0)
(0.269895 0.000161316 0)
(0.270193 0.000161227 0)
(0.270491 0.000161139 0)
(0.270789 0.000161051 0)
(0.271088 0.000160963 0)
(0.271387 0.000160875 0)
(0.271685 0.000160787 0)
(0.271984 0.0001607 0)
(0.272284 0.000160613 0)
(0.272583 0.000160526 0)
(0.272882 0.000160439 0)
(0.273182 0.000160352 0)
(0.273482 0.000160266 0)
(0.273782 0.000160179 0)
(0.274082 0.000160093 0)
(0.274383 0.000160007 0)
(0.274683 0.000159921 0)
(0.274984 0.000159836 0)
(0.275285 0.000159751 0)
(0.275586 0.000159665 0)
(0.275887 0.00015958 0)
(0.276188 0.000159496 0)
(0.27649 0.000159411 0)
(0.276792 0.000159326 0)
(0.277094 0.000159242 0)
(0.277396 0.000159158 0)
(0.277698 0.000159074 0)
(0.278 0.000158991 0)
(0.278303 0.000158907 0)
(0.278605 0.000158824 0)
(0.278908 0.000158741 0)
(0.279211 0.000158658 0)
(0.279514 0.000158575 0)
(0.279818 0.000158493 0)
(0.280121 0.000158411 0)
(0.280424 0.000158329 0)
(0.280728 0.000158247 0)
(0.281032 0.000158165 0)
(0.281336 0.000158084 0)
(0.28164 0.000158002 0)
(0.281944 0.000157921 0)
(0.282249 0.00015784 0)
(0.282553 0.00015776 0)
(0.282858 0.000157679 0)
(0.283163 0.000157599 0)
(0.283468 0.000157519 0)
(0.283773 0.000157439 0)
(0.284078 0.000157359 0)
(0.284384 0.00015728 0)
(0.284689 0.0001572 0)
(0.284995 0.000157121 0)
(0.2853 0.000157042 0)
(0.285606 0.000156964 0)
(0.285912 0.000156885 0)
(0.286218 0.000156807 0)
(0.286525 0.000156729 0)
(0.286831 0.000156651 0)
(0.287138 0.000156573 0)
(0.287444 0.000156496 0)
(0.287751 0.000156419 0)
(0.288058 0.000156341 0)
(0.288365 0.000156265 0)
(0.288672 0.000156188 0)
(0.288979 0.000156111 0)
(0.289286 0.000156035 0)
(0.289594 0.000155959 0)
(0.289901 0.000155882 0)
(0.290209 0.000155807 0)
(0.290517 0.000155731 0)
(0.290825 0.000155655 0)
(0.291133 0.00015558 0)
(0.291441 0.000155504 0)
(0.291749 0.000155429 0)
(0.292058 0.000155354 0)
(0.292366 0.000155279 0)
(0.292675 0.000155205 0)
(0.292983 0.00015513 0)
(0.293292 0.000155055 0)
(0.293601 0.000154981 0)
(0.29391 0.000154906 0)
(0.294219 0.000154832 0)
(0.294528 0.000154758 0)
(0.294838 0.000154684 0)
(0.295147 0.00015461 0)
(0.295457 0.000154536 0)
(0.295766 0.000154462 0)
(0.296076 0.000154388 0)
(0.296386 0.000154313 0)
(0.296696 0.000154239 0)
(0.297006 0.000154165 0)
(0.297317 0.000154091 0)
(0.297627 0.000154017 0)
(0.297938 0.000153942 0)
(0.298248 0.000153868 0)
(0.298559 0.000153793 0)
(0.29887 0.000153718 0)
(0.299181 0.000153643 0)
(0.299492 0.000153567 0)
(0.299803 0.000153491 0)
(0.300115 0.000153415 0)
(0.300427 0.000153339 0)
(0.300738 0.000153262 0)
(0.30105 0.000153184 0)
(0.301362 0.000153106 0)
(0.301675 0.000153027 0)
(0.301987 0.000152948 0)
(0.3023 0.000152868 0)
(0.302613 0.000152787 0)
(0.302926 0.000152705 0)
(0.303239 0.000152622 0)
(0.303553 0.000152538 0)
(0.303866 0.000152452 0)
(0.30418 0.000152365 0)
(0.304495 0.000152277 0)
(0.304809 0.000152186 0)
(0.305124 0.000152094 0)
(0.305439 0.000152 0)
(0.305755 0.000151904 0)
(0.30607 0.000151805 0)
(0.306387 0.000151704 0)
(0.306703 0.000151599 0)
(0.30702 0.000151492 0)
(0.307338 0.000151381 0)
(0.307656 0.000151266 0)
(0.307974 0.000151147 0)
(0.308293 0.000151023 0)
(0.308613 0.000150894 0)
(0.308933 0.000150759 0)
(0.309254 0.000150618 0)
(0.309576 0.00015047 0)
(0.309898 0.000150315 0)
(0.310221 0.000150151 0)
(0.310545 0.000149978 0)
(0.310871 0.000149795 0)
(0.311197 0.0001496 0)
(0.311524 0.000149392 0)
(0.311853 0.000149171 0)
(0.312183 0.000148933 0)
(0.312514 0.000148678 0)
(0.312847 0.000148404 0)
(0.313182 0.000148108 0)
(0.313518 0.000147787 0)
(0.313857 0.00014744 0)
(0.314197 0.000147061 0)
(0.314541 0.000146649 0)
(0.314886 0.000146197 0)
(0.315235 0.0001457 0)
(0.315587 0.000145149 0)
(0.315942 0.00014453 0)
(0.316302 0.000143813 0)
(0.316666 0.000142952 0)
(0.317035 0.000141856 0)
(0.317412 0.000140368 0)
(0.317797 0.000138211 0)
(0.318196 0.000134848 0)
(0.318614 0.000129322 0)
(0.319055 0.00012107 0)
(0.319535 0.000112938 0)
(0.32014 0.000102356 0)
(0.321022 2.27952e-05 0)
(0.999072 0.266741 0)
(0.979145 0.291217 0)
(0.867965 0.212745 0)
(0.755303 0.144653 0)
(0.664458 0.0972333 0)
(0.59511 0.0659525 0)
(0.543031 0.045672 0)
(0.504079 0.0324792 0)
(0.474803 0.023769 0)
(0.452556 0.0179071 0)
(0.435403 0.0138801 0)
(0.421961 0.0110544 0)
(0.411246 0.00902719 0)
(0.402562 0.00753915 0)
(0.395414 0.006421 0)
(0.389449 0.0055611 0)
(0.38441 0.00488506 0)
(0.380111 0.00434273 0)
(0.376413 0.00389983 0)
(0.373208 0.00353249 0)
(0.370416 0.0032238 0)
(0.367973 0.00296149 0)
(0.365827 0.00273646 0)
(0.363937 0.00254184 0)
(0.36227 0.00237232 0)
(0.360796 0.00222375 0)
(0.359493 0.00209281 0)
(0.35834 0.00197683 0)
(0.357321 0.00187364 0)
(0.356421 0.00178145 0)
(0.355628 0.00169878 0)
(0.354931 0.00162439 0)
(0.35432 0.00155724 0)
(0.353787 0.00149644 0)
(0.353325 0.00144126 0)
(0.352927 0.00139105 0)
(0.352589 0.00134528 0)
(0.352303 0.00130346 0)
(0.352067 0.00126521 0)
(0.351875 0.00123016 0)
(0.351725 0.00119801 0)
(0.351613 0.00116848 0)
(0.351535 0.00114133 0)
(0.351489 0.00111634 0)
(0.351473 0.00109331 0)
(0.351484 0.00107207 0)
(0.351521 0.00105246 0)
(0.35158 0.00103433 0)
(0.351662 0.00101755 0)
(0.351763 0.00100201 0)
(0.351882 0.000987601 0)
(0.352019 0.000974233 0)
(0.352172 0.000961822 0)
(0.35234 0.000950291 0)
(0.352522 0.000939574 0)
(0.352716 0.000929608 0)
(0.352923 0.000920335 0)
(0.353141 0.000911706 0)
(0.353369 0.000903672 0)
(0.353607 0.00089619 0)
(0.353854 0.000889222 0)
(0.354109 0.000882735 0)
(0.354373 0.000876699 0)
(0.354644 0.000871092 0)
(0.354921 0.0008659 0)
(0.355205 0.000861116 0)
(0.355495 0.00085674 0)
(0.35579 0.00085278 0)
(0.356089 0.00084925 0)
(0.356393 0.000846164 0)
(0.356701 0.000843534 0)
(0.357012 0.000841364 0)
(0.357325 0.000839645 0)
(0.35764 0.000838348 0)
(0.357957 0.000837431 0)
(0.358275 0.000836834 0)
(0.358593 0.000836487 0)
(0.358912 0.000836317 0)
(0.359232 0.000836254 0)
(0.359551 0.00083624 0)
(0.359871 0.00083623 0)
(0.360191 0.000836193 0)
(0.360511 0.000836114 0)
(0.360832 0.000835986 0)
(0.361153 0.000835814 0)
(0.361474 0.000835603 0)
(0.361795 0.000835363 0)
(0.362118 0.000835102 0)
(0.36244 0.000834826 0)
(0.362763 0.000834541 0)
(0.363087 0.00083425 0)
(0.363411 0.000833956 0)
(0.363736 0.000833658 0)
(0.364062 0.000833357 0)
(0.364388 0.000833053 0)
(0.364714 0.000832745 0)
(0.365041 0.000832432 0)
(0.365369 0.000832112 0)
(0.365698 0.000831785 0)
(0.366027 0.000831449 0)
(0.366356 0.000831104 0)
(0.366687 0.000830748 0)
(0.367018 0.000830382 0)
(0.36735 0.000830006 0)
(0.367682 0.000829623 0)
(0.368015 0.000829238 0)
(0.368349 0.000828859 0)
(0.368684 0.000828497 0)
(0.369019 0.000828167 0)
(0.369355 0.000827887 0)
(0.369691 0.000827675 0)
(0.370028 0.000827547 0)
(0.370365 0.000827517 0)
(0.370702 0.000827591 0)
(0.37104 0.000827768 0)
(0.371377 0.000828039 0)
(0.371714 0.000828387 0)
(0.372051 0.000828792 0)
(0.372388 0.000829229 0)
(0.372725 0.000829678 0)
(0.373061 0.000830118 0)
(0.373397 0.000830534 0)
(0.373732 0.000830918 0)
(0.374068 0.000831264 0)
(0.374403 0.000831569 0)
(0.374738 0.000831836 0)
(0.375074 0.000832066 0)
(0.375409 0.000832263 0)
(0.375744 0.000832428 0)
(0.376079 0.000832565 0)
(0.376415 0.000832677 0)
(0.37675 0.000832763 0)
(0.377086 0.000832827 0)
(0.377422 0.000832868 0)
(0.377758 0.000832888 0)
(0.378094 0.000832888 0)
(0.378431 0.000832868 0)
(0.378768 0.00083283 0)
(0.379105 0.000832776 0)
(0.379443 0.000832709 0)
(0.379781 0.000832633 0)
(0.380119 0.000832551 0)
(0.380458 0.000832469 0)
(0.380797 0.000832393 0)
(0.381136 0.000832328 0)
(0.381476 0.00083228 0)
(0.381816 0.000832254 0)
(0.382157 0.000832253 0)
(0.382497 0.000832277 0)
(0.382838 0.000832328 0)
(0.383179 0.000832401 0)
(0.38352 0.000832494 0)
(0.383862 0.000832602 0)
(0.384203 0.000832719 0)
(0.384545 0.000832841 0)
(0.384887 0.000832963 0)
(0.385229 0.000833084 0)
(0.385571 0.000833201 0)
(0.385913 0.000833313 0)
(0.386256 0.000833418 0)
(0.386598 0.000833516 0)
(0.386941 0.000833608 0)
(0.387284 0.000833692 0)
(0.387627 0.000833769 0)
(0.387971 0.000833839 0)
(0.388314 0.000833902 0)
(0.388658 0.000833958 0)
(0.389002 0.000834007 0)
(0.389346 0.000834049 0)
(0.389691 0.000834085 0)
(0.390035 0.000834116 0)
(0.39038 0.000834143 0)
(0.390726 0.000834166 0)
(0.391071 0.000834188 0)
(0.391417 0.000834211 0)
(0.391763 0.000834236 0)