/*--------------------------------*- C++ -*----------------------------------*\
| =========                 |                                                 |
| \\      /  F ield         | OpenFOAM: The Open Source CFD Toolbox           |
|  \\    /   O peration     | Version:  2512                                  |
|   \\  /    A nd           | Website:  www.openfoam.com                      |
|    \\/     M anipulation  |                                                 |
\*---------------------------------------------------------------------------*/
FoamFile
{
    version     2.0;
    format      ascii;
    arch        "LSB;label=32;scalar=64";
    class       volScalarField;
    location    "0.004";
    object      Ux;
}
// * * * * * * * * * * * * * * * * * * * * * * * * * * * * * * * * * * * * * //

dimensions      [0 1 -1 0 0 0 0];

internalField   nonuniform List<scalar> 
100000
(
0.757187
0.653014
0.482367
0.369703
0.301643
0.258354
0.229608
0.209944
0.196076
0.185986
0.17842
0.172587
0.167974
0.164243
0.161164
0.158581
0.156384
0.154493
0.152851
0.151415
0.15015
0.149031
0.148036
0.147148
0.146354
0.145641
0.145
0.144423
0.143902
0.143431
0.143005
0.142621
0.142272
0.141957
0.141672
0.141414
0.141181
0.140971
0.140782
0.140612
0.140459
0.140323
0.140201
0.140093
0.139998
0.139914
0.139841
0.139778
0.139724
0.139678
0.139641
0.13961
0.139587
0.13957
0.139559
0.139554
0.139553
0.139558
0.139566
0.139579
0.139596
0.139617
0.139641
0.139668
0.139698
0.139731
0.139766
0.139804
0.139844
0.139886
0.139929
0.139974
0.14002
0.140067
0.140114
0.140162
0.140211
0.14026
0.140309
0.140358
0.140407
0.140457
0.140506
0.140556
0.140606
0.140657
0.140708
0.140759
0.14081
0.140862
0.140913
0.140966
0.141018
0.141071
0.141125
0.141178
0.141232
0.141286
0.141341
0.141396
0.141451
0.141507
0.141563
0.14162
0.141676
0.141734
0.141791
0.141849
0.141908
0.141966
0.142025
0.142085
0.142144
0.142204
0.142264
0.142324
0.142384
0.142444
0.142504
0.142563
0.142623
0.142683
0.142743
0.142803
0.142863
0.142923
0.142983
0.143043
0.143103
0.143163
0.143224
0.143284
0.143345
0.143406
0.143467
0.143528
0.14359
0.143652
0.143714
0.143776
0.143839
0.143902
0.143965
0.144028
0.144092
0.144156
0.14422
0.144284
0.144349
0.144414
0.144479
0.144544
0.144609
0.144675
0.14474
0.144806
0.144872
0.144938
0.145005
0.145071
0.145138
0.145205
0.145272
0.145339
0.145407
0.145474
0.145542
0.14561
0.145679
0.145747
0.145816
0.145885
0.145955
0.146024
0.146094
0.146164
0.146234
0.146305
0.146375
0.146446
0.146517
0.146589
0.14666
0.146732
0.146804
0.146876
0.146948
0.147021
0.147094
0.147167
0.14724
0.147314
0.147387
0.147461
0.147536
0.14761
0.147685
0.14776
0.147836
0.147911
0.147987
0.148064
0.14814
0.148217
0.148294
0.148371
0.148449
0.148527
0.148605
0.148683
0.148762
0.148841
0.14892
0.149
0.149079
0.149159
0.149239
0.14932
0.1494
0.149481
0.149562
0.149644
0.149725
0.149807
0.149889
0.149972
0.150054
0.150137
0.150221
0.150304
0.150388
0.150472
0.150556
0.150641
0.150726
0.150811
0.150897
0.150983
0.151069
0.151156
0.151242
0.151329
0.151417
0.151504
0.151592
0.15168
0.151769
0.151858
0.151947
0.152036
0.152126
0.152216
0.152307
0.152397
0.152488
0.152579
0.152671
0.152763
0.152855
0.152948
0.15304
0.153134
0.153227
0.153321
0.153415
0.153509
0.153604
0.153699
0.153794
0.15389
0.153986
0.154082
0.154179
0.154275
0.154373
0.15447
0.154568
0.154666
0.154765
0.154864
0.154963
0.155062
0.155162
0.155262
0.155363
0.155463
0.155564
0.155666
0.155768
0.15587
0.155972
0.156075
0.156178
0.156281
0.156385
0.156489
0.156594
0.156699
0.156804
0.156909
0.157015
0.157121
0.157227
0.157334
0.157441
0.157549
0.157657
0.157765
0.157873
0.157982
0.158091
0.158201
0.158311
0.158421
0.158532
0.158643
0.158754
0.158866
0.158978
0.15909
0.159203
0.159316
0.159429
0.159543
0.159657
0.159771
0.159886
0.160002
0.160117
0.160233
0.160349
0.160466
0.160583
0.1607
0.160818
0.160936
0.161054
0.161173
0.161292
0.161412
0.161532
0.161652
0.161773
0.161894
0.162015
0.162137
0.162259
0.162381
0.162504
0.162627
0.162751
0.162875
0.162999
0.163124
0.163249
0.163374
0.1635
0.163626
0.163753
0.16388
0.164007
0.164135
0.164263
0.164392
0.16452
0.16465
0.164779
0.164909
0.16504
0.16517
0.165302
0.165433
0.165565
0.165697
0.16583
0.165963
0.166096
0.16623
0.166365
0.166499
0.166634
0.16677
0.166905
0.167041
0.167178
0.167315
0.167452
0.16759
0.167728
0.167867
0.168006
0.168145
0.168285
0.168425
0.168565
0.168706
0.168847
0.168989
0.169131
0.169273
0.169416
0.169559
0.169703
0.169847
0.169992
0.170136
0.170282
0.170427
0.170573
0.17072
0.170867
0.171014
0.171161
0.17131
0.171458
0.171607
0.171756
0.171906
0.172056
0.172206
0.172357
0.172508
0.17266
0.172812
0.172964
0.173117
0.173271
0.173424
0.173578
0.173733
0.173888
0.174043
0.174199
0.174355
0.174512
0.174668
0.174826
0.174984
0.175142
0.1753
0.175459
0.175619
0.175779
0.175939
0.176099
0.17626
0.176422
0.176584
0.176746
0.176909
0.177072
0.177235
0.177399
0.177563
0.177728
0.177893
0.178059
0.178225
0.178391
0.178558
0.178725
0.178893
0.179061
0.179229
0.179398
0.179567
0.179737
0.179907
0.180078
0.180249
0.18042
0.180592
0.180764
0.180937
0.18111
0.181283
0.181457
0.181631
0.181806
0.181981
0.182156
0.182332
0.182508
0.182685
0.182862
0.18304
0.183218
0.183396
0.183575
0.183754
0.183934
0.184114
0.184294
0.184475
0.184657
0.184838
0.18502
0.185203
0.185386
0.185569
0.185753
0.185937
0.186122
0.186307
0.186492
0.186678
0.186864
0.187051
0.187238
0.187426
0.187614
0.187802
0.187991
0.18818
0.18837
0.18856
0.18875
0.188941
0.189132
0.189324
0.189516
0.189708
0.189901
0.190095
0.190288
0.190482
0.190677
0.190872
0.191067
0.191263
0.191459
0.191656
0.191853
0.192051
0.192248
0.192447
0.192645
0.192844
0.193044
0.193244
0.193444
0.193645
0.193846
0.194048
0.19425
0.194452
0.194655
0.194858
0.195062
0.195266
0.19547
0.195675
0.19588
0.196086
0.196292
0.196498
0.196705
0.196912
0.19712
0.197328
0.197537
0.197746
0.197955
0.198165
0.198375
0.198585
0.198796
0.199008
0.199219
0.199431
0.199644
0.199857
0.20007
0.200284
0.200498
0.200713
0.200928
0.201143
0.201359
0.201575
0.201792
0.202009
0.202226
0.202444
0.202662
0.20288
0.203099
0.203319
0.203539
0.203759
0.203979
0.2042
0.204422
0.204643
0.204865
0.205088
0.205311
0.205534
0.205758
0.205982
0.206206
0.206431
0.206657
0.206882
0.207108
0.207335
0.207562
0.207789
0.208016
0.208244
0.208473
0.208702
0.208931
0.20916
0.20939
0.209621
0.209851
0.210082
0.210314
0.210546
0.210778
0.21101
0.211243
0.211477
0.211711
0.211945
0.212179
0.212414
0.212649
0.212885
0.213121
0.213358
0.213594
0.213832
0.214069
0.214307
0.214545
0.214784
0.215023
0.215262
0.215502
0.215742
0.215983
0.216224
0.216465
0.216707
0.216949
0.217191
0.217434
0.217677
0.21792
0.218164
0.218408
0.218653
0.218898
0.219143
0.219389
0.219635
0.219881
0.220128
0.220375
0.220622
0.22087
0.221118
0.221367
0.221616
0.221865
0.222114
0.222364
0.222615
0.222865
0.223116
0.223368
0.223619
0.223871
0.224124
0.224376
0.22463
0.224883
0.225137
0.225391
0.225645
0.2259
0.226155
0.226411
0.226667
0.226923
0.227179
0.227436
0.227693
0.227951
0.228209
0.228467
0.228726
0.228984
0.229244
0.229503
0.229763
0.230023
0.230284
0.230545
0.230806
0.231067
0.231329
0.231591
0.231854
0.232117
0.23238
0.232643
0.232907
0.233171
0.233436
0.233701
0.233966
0.234231
0.234497
0.234763
0.235029
0.235296
0.235563
0.23583
0.236098
0.236366
0.236634
0.236902
0.237171
0.23744
0.23771
0.23798
0.23825
0.23852
0.238791
0.239062
0.239333
0.239605
0.239876
0.240149
0.240421
0.240694
0.240967
0.24124
0.241514
0.241788
0.242062
0.242337
0.242612
0.242887
0.243162
0.243438
0.243714
0.24399
0.244267
0.244543
0.244821
0.245098
0.245376
0.245654
0.245932
0.24621
0.246489
0.246768
0.247048
0.247327
0.247607
0.247887
0.248168
0.248448
0.248729
0.249011
0.249292
0.249574
0.249856
0.250138
0.250421
0.250704
0.250987
0.25127
0.251554
0.251838
0.252122
0.252406
0.252691
0.252976
0.253261
0.253546
0.253832
0.254118
0.254404
0.25469
0.254977
0.255264
0.255551
0.255838
0.256126
0.256414
0.256702
0.25699
0.257278
0.257567
0.257856
0.258146
0.258435
0.258725
0.259015
0.259305
0.259595
0.259886
0.260177
0.260468
0.260759
0.261051
0.261343
0.261635
0.261927
0.262219
0.262512
0.262805
0.263098
0.263391
0.263685
0.263978
0.264272
0.264566
0.264861
0.265155
0.26545
0.265745
0.26604
0.266335
0.266631
0.266927
0.267223
0.267519
0.267815
0.268112
0.268409
0.268706
0.269003
0.2693
0.269598
0.269895
0.270193
0.270491
0.270789
0.271088
0.271387
0.271685
0.271984
0.272284
0.272583
0.272882
0.273182
0.273482
0.273782
0.274082
0.274383
0.274683
0.274984
0.275285
0.275586
0.275887
0.276188
0.27649
0.276792
0.277094
0.277396
0.277698
0.278
0.278303
0.278605
0.278908
0.279211
0.279514
0.279818
0.280121
0.280424
0.280728
0.281032
0.281336
0.28164
0.281944
0.282249
0.282553
0.282858
0.283163
0.283468
0.283773
0.284078
0.284384
0.284689
0.284995
0.2853
0.285606
0.285912
0.286218
0.286525
0.286831
0.287138
0.287444
0.287751
0.288058
0.288365
0.288672
0.288979
0.289286
0.289594
0.289901
0.290209
0.290517
0.290825
0.291133
0.291441
0.291749
0.292058
0.292366
0.292675
0.292983
0.293292
0.293601
0.29391
0.294219
0.294528
0.294838
0.295147
0.295457
0.295766
0.296076
0.296386
0.296696
0.297006
0.297317
0.297627
0.297938
0.298248
0.298559
0.29887
0.299181
0.299492
0.299803
0.300115
0.300427
0.300738
0.30105
0.301362
0.301675
0.301987
0.3023
0.302613
0.302926
0.303239
0.303553
0.303866
0.30418
0.304495
0.304809
0.305124
0.305439
0.305755
0.30607
0.306387
0.306703
0.30702
0.307338
0.307656
0.307974
0.308293
0.308613
0.308933
0.309254
0.309576
0.309898
0.310221
0.310545
0.310871
0.311197
0.311524
0.311853
0.312183
0.312514
0.312847
0.313182
0.313518
0.313857
0.314197
0.314541
0.314886
0.315235
0.315587
0.315942
0.316302
0.316666
0.317035
0.317412
0.317797
0.318196
0.318614
0.319055
0.319535
0.32014
0.321022
0.999072
0.979145
0.867965
0.755303
0.664458
0.59511
0.543031
0.504079
0.474803
0.452556
0.435403
0.421961
0.411246
0.402562
0.395414
0.389449
0.38441
0.380111
0.376413
0.373208
0.370416
0.367973
0.365827
0.363937
0.36227
0.360796
0.359493
0.35834
0.357321
0.356421
0.355628
0.354931
0.35432
0.353787
0.353325
0.352927
0.352589
0.352303
0.352067
0.351875
0.351725
0.351613
0.351535
0.351489
0.351473
0.351484
0.351521
0.35158
0.351662
0.351763
0.351882
0.352019
0.352172
0.35234
0.352522
0.352716
0.352923
0.353141
0.353369
0.353607
0.353854
0.354109
0.354373
0.354644
0.354921
0.355205
0.355495
0.35579
0.356089
0.356393
0.356701
0.357012
0.357325
0.35764
0.357957
0.358275
0.358593
0.358912
0.359232
0.359551
0.359871
0.360191
0.360511
0.360832
0.361153
0.361474
0.361795
0.362118
0.36244
0.362763
0.363087
0.363411
0.363736
0.364062
0.364388
0.364714
0.365041
0.365369
0.365698
0.366027
0.366356
0.366687
0.367018
0.36735
0.367682
0.368015
0.368349
0.368684
0.369019
0.369355
0.369691
0.370028
0.370365
0.370702
0.37104
0.371377
0.371714
0.372051
0.372388
0.372725
0.373061
0.373397
0.373732
0.374068
0.374403
0.374738
0.375074
0.375409
0.375744
0.376079
0.376415
0.37675
0.377086
0.377422
0.377758
0.378094
0.378431
0.378768
0.379105
0.379443
0.379781
0.380119
0.380458
0.380797
0.381136
0.381476
0.381816
0.382157
0.382497
0.382838
0.383179
0.38352
0.383862
0.384203
0.384545
0.384887
0.385229
0.385571
0.385913
0.386256
0.386598
0.386941
0.387284
0.387627
0.387971
0.388314
0.388658
0.389002
0.389346
0.389691
0.390035
0.39038
0.390726
0.391071
0.391417
0.391763
0.392109
0.392456
0.392803
0.39315
0.393497
0.393844
0.394192
0.39454
0.394888
0.395236
0.395584
0.395933
0.396281
0.39663
0.39698
0.397329
0.397679
0.398029
0.398379
0.39873
0.399081
0.399432
0.399784
0.400135
0.400488
0.40084
0.401193
0.401547
0.4019
0.402254
0.402608
0.402963
0.403317
0.403672
0.404028
0.404383
0.404739
0.405095
0.405451
0.405807
0.406164
0.406521
0.406878
0.407235
0.407593
0.40795
0.408308
0.408667
0.409025
0.409384
0.409743
0.410103
0.410462
0.410822
0.411182
0.411543
0.411904
0.412265
0.412626
0.412988
0.41335
0.413713
0.414076
0.414439
0.414802
0.415166
0.41553
0.415894
0.416258
0.416623
0.416988
0.417354
0.41772
0.418086
0.418452
0.418819
0.419186
0.419554
0.419921
0.420289
0.420658
0.421027
0.421396
0.421765
0.422135
0.422505
0.422875
0.423246
0.423616
0.423988
0.424359
0.424731
0.425103
0.425476
0.425849
0.426222
0.426596
0.426969
0.427344
0.427718
0.428093
0.428468
0.428843
0.429219
0.429595
0.429972
0.430349
0.430726
0.431103
0.431481
0.431859
0.432238
0.432617
0.432996
0.433375
0.433755
0.434135
0.434516
0.434896
0.435278
0.435659
0.436041
0.436423
0.436806
0.437189
0.437572
0.437955
0.438339
0.438724
0.439108
0.439493
0.439878
0.440264
0.44065
0.441036
0.441423
0.44181
0.442197
0.442585
0.442973
0.443362
0.44375
0.444139
0.444529
0.444919
0.445309
0.4457
0.44609
0.446482
0.446873
0.447265
0.447658
0.44805
0.448444
0.448837
0.449231
0.449625
0.450019
0.450414
0.45081
0.451205
0.451601
0.451998
0.452394
0.452791
0.453189
0.453587
0.453985
0.454384
0.454783
0.455182
0.455582
0.455982
0.456382
0.456783
0.457184
0.457586
0.457988
0.45839
0.458793
0.459196
0.459599
0.460003
0.460407
0.460812
0.461217
0.461622
0.462028
0.462434
0.462841
0.463248
0.463655
0.464063
0.464471
0.464879
0.465288
0.465697
0.466107
0.466517
0.466927
0.467338
0.467749
0.468161
0.468572
0.468985
0.469398
0.469811
0.470224
0.470638
0.471052
0.471467
0.471882
0.472298
0.472713
0.47313
0.473546
0.473963
0.474381
0.474799
0.475217
0.475636
0.476055
0.476474
0.476894
0.477314
0.477735
0.478156
0.478577
0.478999
0.479422
0.479844
0.480267
0.480691
0.481115
0.481539
0.481963
0.482389
0.482814
0.48324
0.483666
0.484093
0.48452
0.484947
0.485375
0.485804
0.486232
0.486662
0.487091
0.487521
0.487951
0.488382
0.488813
0.489245
0.489677
0.490109
0.490542
0.490975
0.491409
0.491843
0.492277
0.492712
0.493148
0.493583
0.494019
0.494456
0.494893
0.49533
0.495768
0.496206
0.496645
0.497084
0.497523
0.497963
0.498403
0.498844
0.499285
0.499726
0.500168
0.50061
0.501053
0.501496
0.50194
0.502384
0.502828
0.503273
0.503718
0.504164
0.50461
0.505056
0.505503
0.50595
0.506398
0.506846
0.507294
0.507743
0.508193
0.508643
0.509093
0.509543
0.509994
0.510446
0.510898
0.51135
0.511803
0.512256
0.512709
0.513163
0.513618
0.514072
0.514528
0.514983
0.515439
0.515896
0.516353
0.51681
0.517268
0.517726
0.518184
0.518643
0.519103
0.519562
0.520023
0.520483
0.520944
0.521406
0.521868
0.52233
0.522793
0.523256
0.523719
0.524183
0.524648
0.525112
0.525578
0.526043
0.526509
0.526976
0.527443
0.52791
0.528378
0.528846
0.529314
0.529783
0.530253
0.530722
0.531193
0.531663
0.532134
0.532606
0.533078
0.53355
0.534023
0.534496
0.534969
0.535443
0.535918
0.536392
0.536868
0.537343
0.537819
0.538296
0.538772
0.53925
0.539727
0.540205
0.540684
0.541163
0.541642
0.542122
0.542602
0.543083
0.543563
0.544045
0.544527
0.545009
0.545491
0.545974
0.546458
0.546942
0.547426
0.547911
0.548396
0.548881
0.549367
0.549853
0.55034
0.550827
0.551315
0.551802
0.552291
0.552779
0.553269
0.553758
0.554248
0.554738
0.555229
0.55572
0.556212
0.556704
0.557196
0.557689
0.558182
0.558676
0.559169
0.559664
0.560159
0.560654
0.561149
0.561645
0.562142
0.562638
0.563136
0.563633
0.564131
0.564629
0.565128
0.565627
0.566127
0.566627
0.567127
0.567628
0.568129
0.56863
0.569132
0.569635
0.570137
0.57064
0.571144
0.571648
0.572152
0.572657
0.573162
0.573667
0.574173
0.574679
0.575186
0.575693
0.5762
0.576708
0.577216
0.577724
0.578233
0.578742
0.579252
0.579762
0.580272
0.580783
0.581294
0.581806
0.582318
0.58283
0.583343
0.583856
0.58437
0.584883
0.585398
0.585912
0.586427
0.586942
0.587458
0.587974
0.588491
0.589008
0.589525
0.590042
0.59056
0.591079
0.591597
0.592116
0.592636
0.593155
0.593676
0.594196
0.594717
0.595238
0.59576
0.596282
0.596804
0.597327
0.59785
0.598373
0.598897
0.599421
0.599946
0.600471
0.600996
0.601521
0.602047
0.602574
0.6031
0.603627
0.604155
0.604682
0.60521
0.605739
0.606267
0.606797
0.607326
0.607856
0.608386
0.608916
0.609447
0.609978
0.61051
0.611042
0.611574
0.612106
0.612639
0.613173
0.613706
0.61424
0.614774
0.615309
0.615844
0.616379
0.616915
0.617451
0.617987
0.618523
0.61906
0.619598
0.620135
0.620673
0.621211
0.62175
0.622289
0.622828
0.623367
0.623907
0.624447
0.624988
0.625529
0.62607
0.626611
0.627153
0.627695
0.628238
0.62878
0.629324
0.629867
0.630411
0.630955
0.631499
0.632043
0.632588
0.633134
0.633679
0.634225
0.634771
0.635318
0.635864
0.636411
0.636959
0.637507
0.638054
0.638603
0.639151
0.6397
0.640249
0.640799
0.641349
0.641899
0.642449
0.643
0.643551
0.644102
0.644653
0.645205
0.645757
0.646309
0.646862
0.647415
0.647968
0.648522
0.649076
0.64963
0.650184
0.650739
0.651293
0.651849
0.652404
0.65296
0.653516
0.654072
0.654629
0.655185
0.655743
0.6563
0.656857
0.657415
0.657973
0.658532
0.659091
0.659649
0.660209
0.660768
0.661328
0.661888
0.662448
0.663009
0.663569
0.66413
0.664691
0.665253
0.665815
0.666377
0.666939
0.667501
0.668064
0.668627
0.66919
0.669754
0.670318
0.670881
0.671446
0.67201
0.672575
0.67314
0.673705
0.67427
0.674836
0.675402
0.675968
0.676534
0.6771
0.677667
0.678234
0.678801
0.679369
0.679936
0.680504
0.681072
0.68164
0.682209
0.682778
0.683347
0.683916
0.684485
0.685055
0.685625
0.686195
0.686765
0.687335
0.687906
0.688477
0.689048
0.689619
0.69019
0.690762
0.691334
0.691906
0.692478
0.69305
0.693623
0.694196
0.694769
0.695342
0.695915
0.696489
0.697063
0.697637
0.698211
0.698785
0.69936
0.699934
0.700509
0.701084
0.701659
0.702235
0.70281
0.703386
0.703962
0.704538
0.705114
0.705691
0.706267
0.706844
0.707421
0.707998
0.708575
0.709153
0.70973
0.710308
0.710886
0.711464
0.712042
0.71262
0.713199
0.713777
0.714356
0.714935
0.715514
0.716093
0.716673
0.717252
0.717832
0.718412
0.718992
0.719572
0.720152
0.720732
0.721313
0.721894
0.722474
0.723055
0.723636
0.724217
0.724799
0.72538
0.725962
0.726543
0.727125
0.727707
0.728289
0.728872
0.729454
0.730036
0.730619
0.731202
0.731784
0.732367
0.73295
0.733534
0.734117
0.7347
0.735284
0.735867
0.736451
0.737035
0.737619
0.738203
0.738787
0.739372
0.739956
0.740541
0.741126
0.741711
0.742296
0.742881
0.743466
0.744051
0.744637
0.745222
0.745808
0.746394
0.74698
0.747566
0.748153
0.748739
0.749326
0.749912
0.750499
0.751087
0.751674
0.752261
0.752849
0.753437
0.754025
0.754613
0.755202
0.755791
0.75638
0.756969
0.757559
0.758149
0.758739
0.759329
0.75992
0.760511
0.761103
0.761695
0.762287
0.76288
0.763473
0.764067
0.764661
0.765256
0.765852
0.766448
0.767045
0.767643
0.768241
0.76884
0.769441
0.770042
0.770644
0.771247
0.771852
0.772458
0.773065
0.773673
0.774284
0.774896
0.775509
0.776125
0.776743
0.777363
0.777985
0.77861
0.779238
0.77987
0.780504
0.781142
0.781784
0.78243
0.783081
0.783737
0.784398
0.785065
0.785738
0.786418
0.787106
0.787803
0.788509
0.789226
0.789955
0.7907
0.791465
0.792255
0.79308
0.793946
0.794876
0.795986
0.797397
1.01483
1.04918
1.01071
0.943234
0.8715
0.806672
0.752229
0.708142
0.673026
0.645185
0.623048
0.605315
0.590963
0.579215
0.569484
0.561336
0.554444
0.548564
0.543509
0.539137
0.535337
0.53202
0.529116
0.526568
0.524329
0.522359
0.520627
0.519104
0.517766
0.516595
0.515573
0.514683
0.513914
0.513254
0.512692
0.51222
0.51183
0.511515
0.511267
0.511082
0.510955
0.51088
0.510853
0.510871
0.510931
0.511028
0.51116
0.511325
0.51152
0.511742
0.511991
0.512263
0.512558
0.512873
0.513208
0.513561
0.51393
0.514315
0.514714
0.515127
0.515553
0.515991
0.516439
0.516898
0.517366
0.517842
0.518327
0.518819
0.519317
0.519821
0.52033
0.520843
0.52136
0.521879
0.522401
0.522924
0.523448
0.523973
0.524498
0.525024
0.52555
0.526076
0.526602
0.527129
0.527656
0.528183
0.528711
0.52924
0.529769
0.530298
0.530829
0.53136
0.531891
0.532424
0.532957
0.533491
0.534025
0.534561
0.535097
0.535634
0.536172
0.536711
0.53725
0.537791
0.538332
0.538874
0.539417
0.539961
0.540506
0.541051
0.541597
0.542144
0.542691
0.543238
0.543785
0.544332
0.544878
0.545425
0.545971
0.546516
0.547062
0.547606
0.548151
0.548695
0.549238
0.549782
0.550325
0.550868
0.551412
0.551955
0.552498
0.553041
0.553585
0.554128
0.554672
0.555217
0.555761
0.556306
0.556851
0.557396
0.557942
0.558489
0.559035
0.559583
0.56013
0.560678
0.561226
0.561775
0.562323
0.562873
0.563422
0.563971
0.564521
0.56507
0.56562
0.56617
0.56672
0.56727
0.56782
0.56837
0.568921
0.569471
0.570022
0.570573
0.571124
0.571675
0.572227
0.572778
0.57333
0.573882
0.574435
0.574987
0.57554
0.576093
0.576647
0.5772
0.577754
0.578308
0.578863
0.579417
0.579972
0.580527
0.581082
0.581637
0.582193
0.582748
0.583304
0.58386
0.584415
0.584972
0.585528
0.586085
0.586642
0.587199
0.587756
0.588314
0.588872
0.589431
0.589989
0.590549
0.591108
0.591668
0.592228
0.592789
0.593349
0.593911
0.594472
0.595034
0.595595
0.596158
0.59672
0.597282
0.597845
0.598408
0.598971
0.599535
0.600098
0.600662
0.601226
0.60179
0.602354
0.602919
0.603483
0.604048
0.604614
0.605179
0.605745
0.606311
0.606877
0.607443
0.60801
0.608577
0.609144
0.609712
0.61028
0.610848
0.611417
0.611985
0.612555
0.613124
0.613694
0.614264
0.614834
0.615404
0.615975
0.616546
0.617118
0.617689
0.618261
0.618834
0.619406
0.619979
0.620552
0.621126
0.621699
0.622274
0.622848
0.623423
0.623998
0.624573
0.625148
0.625724
0.626301
0.626877
0.627454
0.628031
0.628608
0.629186
0.629764
0.630342
0.63092
0.631499
0.632078
0.632658
0.633237
0.633817
0.634398
0.634978
0.635559
0.63614
0.636722
0.637304
0.637886
0.638468
0.639051
0.639634
0.640217
0.640801
0.641385
0.641969
0.642554
0.643139
0.643724
0.644309
0.644895
0.645481
0.646068
0.646654
0.647241
0.647829
0.648416
0.649004
0.649593
0.650181
0.65077
0.651359
0.651949
0.652539
0.653129
0.653719
0.65431
0.654901
0.655493
0.656084
0.656676
0.657269
0.657861
0.658454
0.659048
0.659641
0.660235
0.66083
0.661424
0.662019
0.662614
0.66321
0.663806
0.664402
0.664999
0.665596
0.666193
0.66679
0.667388
0.667986
0.668585
0.669184
0.669783
0.670383
0.670982
0.671583
0.672183
0.672784
0.673385
0.673987
0.674589
0.675191
0.675794
0.676396
0.677
0.677603
0.678207
0.678811
0.679416
0.680021
0.680626
0.681232
0.681838
0.682444
0.683051
0.683658
0.684265
0.684873
0.685481
0.686089
0.686698
0.687307
0.687916
0.688526
0.689136
0.689747
0.690357
0.690969
0.69158
0.692192
0.692804
0.693417
0.69403
0.694643
0.695257
0.695871
0.696485
0.6971
0.697715
0.69833
0.698946
0.699562
0.700178
0.700795
0.701412
0.70203
0.702648
0.703266
0.703885
0.704504
0.705123
0.705743
0.706363
0.706983
0.707604
0.708225
0.708847
0.709469
0.710091
0.710713
0.711336
0.71196
0.712583
0.713207
0.713832
0.714457
0.715082
0.715707
0.716333
0.716959
0.717586
0.718213
0.71884
0.719468
0.720096
0.720724
0.721353
0.721982
0.722612
0.723242
0.723872
0.724503
0.725134
0.725765
0.726397
0.727029
0.727662
0.728295
0.728928
0.729561
0.730195
0.73083
0.731464
0.7321
0.732735
0.733371
0.734007
0.734644
0.735281
0.735918
0.736556
0.737194
0.737832
0.738471
0.73911
0.73975
0.74039
0.74103
0.741671
0.742312
0.742953
0.743595
0.744237
0.74488
0.745523
0.746166
0.74681
0.747454
0.748099
0.748743
0.749389
0.750034
0.75068
0.751327
0.751973
0.75262
0.753268
0.753916
0.754564
0.755212
0.755861
0.756511
0.757161
0.757811
0.758461
0.759112
0.759763
0.760415
0.761067
0.761719
0.762372
0.763025
0.763679
0.764332
0.764987
0.765641
0.766296
0.766952
0.767608
0.768264
0.76892
0.769577
0.770234
0.770892
0.77155
0.772208
0.772867
0.773526
0.774186
0.774846
0.775506
0.776167
0.776828
0.777489
0.778151
0.778813
0.779476
0.780139
0.780802
0.781466
0.78213
0.782794
0.783459
0.784124
0.78479
0.785456
0.786122
0.786789
0.787456
0.788123
0.788791
0.789459
0.790128
0.790797
0.791466
0.792136
0.792806
0.793476
0.794147
0.794818
0.79549
0.796161
0.796834
0.797506
0.798179
0.798853
0.799527
0.800201
0.800875
0.80155
0.802226
0.802901
0.803577
0.804254
0.80493
0.805607
0.806285
0.806963
0.807641
0.80832
0.808999
0.809678
0.810358
0.811038
0.811718
0.812399
0.81308
0.813762
0.814444
0.815126
0.815808
0.816491
0.817175
0.817859
0.818543
0.819227
0.819912
0.820597
0.821283
0.821969
0.822655
0.823342
0.824029
0.824716
0.825404
0.826092
0.82678
0.827469
0.828158
0.828848
0.829538
0.830228
0.830919
0.83161
0.832301
0.832993
0.833685
0.834377
0.83507
0.835763
0.836456
0.83715
0.837844
0.838539
0.839234
0.839929
0.840625
0.841321
0.842017
0.842714
0.843411
0.844108
0.844806
0.845504
0.846202
0.846901
0.8476
0.848299
0.848999
0.849699
0.8504
0.851101
0.851802
0.852504
0.853205
0.853908
0.85461
0.855313
0.856016
0.85672
0.857424
0.858128
0.858833
0.859538
0.860243
0.860949
0.861655
0.862361
0.863068
0.863775
0.864482
0.86519
0.865898
0.866606
0.867315
0.868024
0.868733
0.869443
0.870153
0.870863
0.871574
0.872285
0.872996
0.873707
0.874419
0.875132
0.875844
0.876557
0.877271
0.877984
0.878698
0.879412
0.880127
0.880842
0.881557
0.882273
0.882989
0.883705
0.884421
0.885138
0.885855
0.886573
0.88729
0.888009
0.888727
0.889446
0.890165
0.890884
0.891604
0.892324
0.893044
0.893765
0.894485
0.895207
0.895928
0.89665
0.897372
0.898095
0.898817
0.89954
0.900264
0.900987
0.901711
0.902436
0.90316
0.903885
0.90461
0.905336
0.906062
0.906788
0.907514
0.908241
0.908968
0.909695
0.910422
0.91115
0.911878
0.912607
0.913336
0.914065
0.914794
0.915523
0.916253
0.916983
0.917714
0.918445
0.919176
0.919907
0.920639
0.92137
0.922103
0.922835
0.923568
0.924301
0.925034
0.925767
0.926501
0.927235
0.92797
0.928704
0.929439
0.930174
0.93091
0.931646
0.932382
0.933118
0.933854
0.934591
0.935328
0.936066
0.936803
0.937541
0.938279
0.939017
0.939756
0.940495
0.941234
0.941974
0.942713
0.943453
0.944193
0.944934
0.945674
0.946415
0.947157
0.947898
0.94864
0.949382
0.950124
0.950866
0.951609
0.952352
0.953095
0.953838
0.954582
0.955326
0.95607
0.956815
0.957559
0.958304
0.959049
0.959794
0.96054
0.961286
0.962032
0.962778
0.963525
0.964271
0.965018
0.965765
0.966513
0.96726
0.968008
0.968756
0.969505
0.970253
0.971002
0.971751
0.9725
0.973249
0.973999
0.974749
0.975499
0.976249
0.977
0.97775
0.978501
0.979252
0.980004
0.980755
0.981507
0.982259
0.983011
0.983763
0.984516
0.985269
0.986021
0.986775
0.987528
0.988281
0.989035
0.989789
0.990543
0.991298
0.992052
0.992807
0.993562
0.994317
0.995072
0.995827
0.996583
0.997339
0.998095
0.998851
0.999607
1.00036
1.00112
1.00188
1.00263
1.00339
1.00415
1.00491
1.00566
1.00642
1.00718
1.00794
1.0087
1.00946
1.01021
1.01097
1.01173
1.01249
1.01325
1.01401
1.01477
1.01553
1.01629
1.01705
1.01781
1.01857
1.01933
1.02009
1.02085
1.02162
1.02238
1.02314
1.0239
1.02466
1.02542
1.02619
1.02695
1.02771
1.02847
1.02923
1.03
1.03076
1.03152
1.03229
1.03305
1.03381
1.03458
1.03534
1.0361
1.03687
1.03763
1.0384
1.03916
1.03992
1.04069
1.04145
1.04222
1.04298
1.04375
1.04451
1.04528
1.04604
1.04681
1.04758
1.04834
1.04911
1.04987
1.05064
1.0514
1.05217
1.05294
1.0537
1.05447
1.05524
1.056
1.05677
1.05754
1.0583
1.05907
1.05984
1.06061
1.06137
1.06214
1.06291
1.06368
1.06445
1.06521
1.06598
1.06675
1.06752
1.06829
1.06906
1.06982
1.07059
1.07136
1.07213
1.0729
1.07367
1.07444
1.07521
1.07598
1.07675
1.07752
1.07829
1.07906
1.07983
1.0806
1.08137
1.08214
1.08291
1.08369
1.08446
1.08523
1.086
1.08677
1.08755
1.08832
1.08909
1.08987
1.09064
1.09141
1.09219
1.09296
1.09374
1.09451
1.09529
1.09607
1.09684
1.09762
1.0984
1.09918
1.09996
1.10074
1.10152
1.1023
1.10308
1.10387
1.10465
1.10544
1.10622
1.10701
1.1078
1.10859
1.10938
1.11018
1.11097
1.11177
1.11257
1.11337
1.11417
1.11498
1.11578
1.11659
1.11741
1.11822
1.11904
1.11987
1.12069
1.12153
1.12236
1.1232
1.12405
1.1249
1.12576
1.12663
1.1275
1.12838
1.12927
1.13017
1.13108
1.132
1.13293
1.13387
1.13484
1.13582
1.13682
1.13786
1.13892
1.14003
1.14118
1.14249
1.14405
1.01152
1.05482
1.05554
1.02667
0.982361
0.934151
0.888572
0.848428
0.814384
0.786072
0.762722
0.743486
0.727584
0.714357
0.703272
0.693909
0.68594
0.67911
0.673221
0.668116
0.663672
0.65979
0.65639
0.653407
0.650787
0.648483
0.646459
0.644683
0.643127
0.641767
0.640582
0.639557
0.638674
0.63792
0.637283
0.636753
0.636321
0.635977
0.635714
0.635526
0.635406
0.635349
0.635349
0.635403
0.635505
0.635654
0.635843
0.636072
0.636336
0.636634
0.636963
0.63732
0.637703
0.638112
0.638543
0.638996
0.639469
0.639961
0.640469
0.640994
0.641534
0.642088
0.642655
0.643234
0.643825
0.644425
0.645035
0.645653
0.64628
0.646912
0.647551
0.648195
0.648843
0.649494
0.650148
0.650804
0.651461
0.652119
0.652777
0.653437
0.654096
0.654756
0.655416
0.656077
0.656738
0.657399
0.658061
0.658724
0.659387
0.660051
0.660716
0.661381
0.662048
0.662715
0.663382
0.664051
0.664721
0.665391
0.666062
0.666734
0.667408
0.668082
0.668757
0.669433
0.67011
0.670788
0.671467
0.672147
0.672827
0.673509
0.674191
0.674874
0.675557
0.67624
0.676923
0.677606
0.678289
0.678971
0.679653
0.680335
0.681016
0.681696
0.682376
0.683056
0.683735
0.684414
0.685093
0.685772
0.68645
0.687129
0.687807
0.688486
0.689164
0.689843
0.690522
0.691202
0.691882
0.692562
0.693242
0.693923
0.694604
0.695286
0.695968
0.69665
0.697333
0.698016
0.6987
0.699384
0.700068
0.700753
0.701437
0.702122
0.702807
0.703492
0.704177
0.704863
0.705548
0.706233
0.706919
0.707604
0.70829
0.708976
0.709662
0.710348
0.711035
0.711721
0.712408
0.713095
0.713782
0.714469
0.715157
0.715845
0.716533
0.717222
0.71791
0.718599
0.719288
0.719978
0.720668
0.721357
0.722047
0.722738
0.723428
0.724119
0.724809
0.7255
0.726191
0.726882
0.727573
0.728265
0.728956
0.729648
0.73034
0.731033
0.731725
0.732418
0.733112
0.733805
0.7345
0.735194
0.735889
0.736584
0.737279
0.737975
0.738671
0.739368
0.740064
0.740761
0.741458
0.742156
0.742854
0.743551
0.744249
0.744948
0.745646
0.746345
0.747043
0.747742
0.748442
0.749141
0.74984
0.75054
0.75124
0.75194
0.75264
0.753341
0.754042
0.754743
0.755444
0.756146
0.756848
0.75755
0.758253
0.758955
0.759658
0.760362
0.761065
0.761769
0.762474
0.763178
0.763883
0.764588
0.765293
0.765999
0.766705
0.767411
0.768118
0.768825
0.769532
0.770239
0.770947
0.771655
0.772363
0.773072
0.773781
0.77449
0.775199
0.775909
0.776619
0.777329
0.77804
0.778751
0.779462
0.780174
0.780886
0.781598
0.78231
0.783023
0.783736
0.784449
0.785163
0.785877
0.786591
0.787305
0.78802
0.788735
0.78945
0.790166
0.790882
0.791598
0.792314
0.793031
0.793748
0.794466
0.795184
0.795902
0.79662
0.797338
0.798057
0.798777
0.799496
0.800216
0.800936
0.801656
0.802377