/*--------------------------------*- C++ -*----------------------------------*\
| =========                 |                                                 |
| \\      /  F ield         | OpenFOAM: The Open Source CFD Toolbox           |
|  \\    /   O peration     | Version:  2512                                  |
|   \\  /    A nd           | Website:  www.openfoam.com                      |
|    \\/     M anipulation  |                                                 |
\*---------------------------------------------------------------------------*/
FoamFile
{
    version     2.0;
    format      ascii;
    arch        "LSB;label=32;scalar=64";
    class       volVectorField;
    location    "0.1";
    object      B;
}
// * * * * * * * * * * * * * * * * * * * * * * * * * * * * * * * * * * * * * //

dimensions      [1 0 -2 0 0 -1 0];

internalField   nonuniform List<vector> 
8334
(
(0.000216454 20 -3.3964e-20)
(0.000216387 20 -4.13962e-20)
(0.000216319 20 -3.60716e-20)
(0.000216256 20 -3.9419e-20)
(0.000216195 20 -3.77919e-20)
(0.000216135 20 -5.55798e-20)
(0.000216075 20 -4.53413e-20)
(0.000216014 20 -5.24629e-20)
(0.000215954 20 -3.85622e-20)
(0.000215894 20 -4.41274e-20)
(0.000215833 20 -3.75381e-20)
(0.000215773 20 -4.0018e-20)
(0.000215713 20 -3.82507e-20)
(0.000215652 20 -5.54569e-20)
(0.000215592 20 -4.51271e-20)
(0.000215531 20 -5.23284e-20)
(0.00021547 20 -3.81156e-20)
(0.00021541 20 -4.37877e-20)
(0.000215349 20 -3.69919e-20)
(0.000215288 20 -3.94342e-20)
(0.000215228 20 -3.7703e-20)
(0.000215167 20 -5.50333e-20)
(0.000215106 20 -4.46194e-20)
(0.000215045 20 -5.18607e-20)
(0.000214985 20 -3.7741e-20)
(0.000214924 20 -4.35041e-20)
(0.000214863 20 -3.69451e-20)
(0.000214802 20 -3.92326e-20)
(0.000214741 20 -3.75508e-20)
(0.00021468 20 -5.499e-20)
(0.00021462 20 -4.44545e-20)
(0.000214559 20 -5.17673e-20)
(0.000214498 20 -3.79137e-20)
(0.000214438 20 -4.3594e-20)
(0.000214377 20 -3.67866e-20)
(0.000214317 20 -3.93453e-20)
(0.000214256 20 -3.76721e-20)
(0.000214196 20 -5.51684e-20)
(0.000214136 20 -4.47226e-20)
(0.000214076 20 -5.18178e-20)
(0.000214015 20 -3.78155e-20)
(0.000213955 20 -4.34864e-20)
(0.000213895 20 -3.6895e-20)
(0.000213835 20 -3.9355e-20)
(0.000213775 20 -3.79603e-20)
(0.000213715 20 -5.535e-20)
(0.000213654 20 -4.48351e-20)
(0.000213594 20 -5.20202e-20)
(0.000213534 20 -3.77209e-20)
(0.000213473 20 -4.3672e-20)
(0.000213413 20 -3.70155e-20)
(0.000213352 20 -3.93105e-20)
(0.000213292 20 -3.77829e-20)
(0.000213231 20 -5.52852e-20)
(0.000213171 20 -4.45021e-20)
(0.00021311 20 -5.17779e-20)
(0.000213049 20 -3.75615e-20)
(0.000212988 20 -4.33167e-20)
(0.000212927 20 -3.66892e-20)
(0.000212866 20 -3.90978e-20)
(0.000212805 20 -3.77722e-20)
(0.000212744 20 -5.51286e-20)
(0.000212683 20 -4.45541e-20)
(0.000212622 20 -5.15582e-20)
(0.00021256 20 -3.74953e-20)
(0.000212499 20 -4.33422e-20)
(0.000212438 20 -3.67199e-20)
(0.000212376 20 -3.90495e-20)
(0.000212314 20 -3.75491e-20)
(0.000212253 20 -5.53038e-20)
(0.000212191 20 -4.43178e-20)
(0.000212129 20 -5.11491e-20)
(0.000212068 20 -3.71083e-20)
(0.000212006 20 -4.2993e-20)
(0.000211944 20 -3.65518e-20)
(0.000211882 20 -3.90316e-20)
(0.00021182 20 -3.78243e-20)
(0.000211757 20 -5.52598e-20)
(0.000211695 20 -4.4663e-20)
(0.000211633 20 -5.17195e-20)
(0.000211571 20 -3.75782e-20)
(0.000211508 20 -4.3753e-20)
(0.000211446 20 -3.70302e-20)
(0.000211383 20 -3.91977e-20)
(0.000211321 20 -3.7869e-20)
(0.000211258 20 -5.56261e-20)
(0.000211195 20 -4.47233e-20)
(0.000211132 20 -5.17105e-20)
(0.00021107 20 -3.72995e-20)
(0.000211007 20 -4.32295e-20)
(0.000210944 20 -3.66614e-20)
(0.000210881 20 -3.90529e-20)
(0.000210818 20 -3.78772e-20)
(0.000210755 20 -5.55412e-20)
(0.000210691 20 -4.44958e-20)
(0.000210628 20 -5.15569e-20)
(0.000210565 20 -3.72316e-20)
(0.000210501 20 -4.32882e-20)
(0.000210438 20 -3.65985e-20)
(0.000210375 20 -3.8965e-20)
(0.000210311 20 -3.79405e-20)
(0.000210247 20 -5.56909e-20)
(0.000210184 20 -4.48941e-20)
(0.00021012 20 -5.17224e-20)
(0.000210056 20 -3.73588e-20)
(0.000209992 20 -4.34664e-20)
(0.000209929 20 -3.65859e-20)
(0.000209865 20 -3.90091e-20)
(0.000209801 20 -3.80494e-20)
(0.000209736 20 -5.58935e-20)
(0.000209672 20 -4.4805e-20)
(0.000209608 20 -5.15297e-20)
(0.000209544 20 -3.75359e-20)
(0.00020948 20 -4.36651e-20)
(0.000209415 20 -3.69505e-20)
(0.000209351 20 -3.93393e-20)
(0.000209286 20 -3.84872e-20)
(0.000209221 20 -5.58243e-20)
(0.000209157 20 -4.54302e-20)
(0.000209092 20 -4.89443e-20)
(0.000209027 20 -4.21468e-20)
(0.000208962 20 -3.28051e-20)
(0.000208897 20 -4.6953e-20)
(0.000208832 20 -3.63168e-20)
(0.000208767 20 -4.56794e-20)
(0.000208702 20 -3.3825e-20)
(0.000208636 20 -4.15366e-20)
(0.000208571 20 -3.59235e-20)
(0.000208506 20 -3.89029e-20)
(0.00020844 20 -3.8612e-20)
(0.000208374 20 -5.63914e-20)
(0.000208308 20 -4.52435e-20)
(0.000208243 20 -5.20277e-20)
(0.000208177 20 -3.77332e-20)
(0.000208111 20 -4.38248e-20)
(0.000208044 20 -3.69256e-20)
(0.000207978 20 -3.91636e-20)
(0.000207912 20 -3.8325e-20)
(0.000207845 20 -5.59062e-20)
(0.000207779 20 -4.45532e-20)
(0.000207712 20 -5.0974e-20)
(0.000207645 20 -3.66236e-20)
(0.000207578 20 -4.32911e-20)
(0.000207511 20 -3.64449e-20)
(0.000207444 20 -3.86047e-20)
(0.000207377 20 -3.80772e-20)
(0.00020731 20 -5.56273e-20)
(0.000207243 20 -4.44232e-20)
(0.000207175 20 -5.11934e-20)
(0.000207108 20 -3.70232e-20)
(0.00020704 20 -4.31772e-20)
(0.000206973 20 -3.64347e-20)
(0.000206906 20 -3.85417e-20)
(0.000206838 20 -3.79759e-20)
(0.000206771 20 -5.56926e-20)
(0.000206704 20 -4.44451e-20)
(0.000206637 20 -5.09083e-20)
(0.00020657 20 -3.66788e-20)
(0.000206503 20 -4.30635e-20)
(0.000206437 20 -3.63194e-20)
(0.000206371 20 -3.86063e-20)
(0.000206306 20 -3.8168e-20)
(0.000206241 20 -5.57962e-20)
(0.000206177 20 -4.45699e-20)
(0.000206114 20 -5.15209e-20)
(0.000206052 20 -3.68251e-20)
(0.000205991 20 -4.29295e-20)
(0.000205932 20 -3.62089e-20)
(0.000205873 20 -3.85457e-20)
(0.000205817 20 -3.8155e-20)
(0.000205763 20 -5.58855e-20)
(0.000205711 20 -4.44362e-20)
(0.000205662 20 -5.10041e-20)
(0.000205616 20 -3.65042e-20)
(0.000205574 20 -4.26991e-20)
(0.000205535 20 -3.6121e-20)
(0.000205503 20 -3.84568e-20)
(0.000205473 20 -3.81419e-20)
(0.000205454 20 -5.56928e-20)
(0.000205436 20 -4.44271e-20)
(0.000205432 20 -5.06684e-20)
(0.000205443 20 -3.7157e-20)
(0.000205431 20 -4.1158e-20)
(0.000205504 20 -3.75943e-20)
(0.000368663 20 -1.28309e-19)
(0.000368526 20 -1.12504e-19)
(0.000368386 20 -1.23279e-19)
(0.000368248 20 -1.2054e-19)
(0.000368111 20 -1.66816e-19)
(0.000367974 20 -1.37707e-19)
(0.000367837 20 -1.58032e-19)
(0.000367701 20 -1.19948e-19)
(0.000367566 20 -1.36337e-19)
(0.000367431 20 -1.16861e-19)
(0.000367296 20 -1.25014e-19)
(0.000367161 20 -1.21708e-19)
(0.000367026 20 -1.66421e-19)
(0.000366891 20 -1.37014e-19)
(0.000366756 20 -1.57504e-19)
(0.000366621 20 -1.18509e-19)
(0.000366486 20 -1.35187e-19)
(0.000366352 20 -1.15152e-19)
(0.000366217 20 -1.23348e-19)
(0.000366082 20 -1.20121e-19)
(0.000365947 20 -1.65147e-19)
(0.000365813 20 -1.35549e-19)
(0.000365678 20 -1.56116e-19)
(0.000365543 20 -1.1744e-19)
(0.000365409 20 -1.34294e-19)
(0.000365275 20 -1.15008e-19)
(0.00036514 20 -1.22805e-19)
(0.000365006 20 -1.1968e-19)
(0.000364872 20 -1.651e-19)
(0.000364738 20 -1.35083e-19)
(0.000364605 20 -1.55836e-19)
(0.000364472 20 -1.17969e-19)
(0.000364339 20 -1.34575e-19)
(0.000364206 20 -1.14484e-19)
(0.000364074 20 -1.23077e-19)
(0.000363942 20 -1.20061e-19)
(0.00036381 20 -1.65482e-19)
(0.000363678 20 -1.35872e-19)
(0.000363547 20 -1.56062e-19)
(0.000363416 20 -1.17725e-19)
(0.000363285 20 -1.34388e-19)
(0.000363154 20 -1.14941e-19)
(0.000363023 20 -1.23186e-19)
(0.000362893 20 -1.20775e-19)
(0.000362762 20 -1.66087e-19)
(0.000362632 20 -1.36155e-19)
(0.000362501 20 -1.56669e-19)
(0.000362371 20 -1.17377e-19)
(0.00036224 20 -1.34726e-19)
(0.00036211 20 -1.15199e-19)
(0.000361979 20 -1.22982e-19)
(0.000361849 20 -1.20278e-19)
(0.000361718 20 -1.65802e-19)
(0.000361587 20 -1.35173e-19)
(0.000361457 20 -1.55886e-19)
(0.000361326 20 -1.17065e-19)
(0.000361195 20 -1.33879e-19)
(0.000361064 20 -1.14318e-19)
(0.000360933 20 -1.22471e-19)
(0.000360803 20 -1.20256e-19)
(0.000360672 20 -1.65411e-19)
(0.00036054 20 -1.35308e-19)
(0.000360409 20 -1.55283e-19)
(0.000360278 20 -1.16821e-19)
(0.000360147 20 -1.33754e-19)
(0.000360016 20 -1.14298e-19)
(0.000359884 20 -1.22192e-19)
(0.000359753 20 -1.19589e-19)
(0.000359621 20 -1.65773e-19)
(0.00035949 20 -1.34614e-19)
(0.000359358 20 -1.54212e-19)
(0.000359226 20 -1.15757e-19)
(0.000359095 20 -1.32929e-19)
(0.000358963 20 -1.1392e-19)
(0.000358831 20 -1.22227e-19)
(0.000358699 20 -1.20292e-19)
(0.000358567 20 -1.65651e-19)
(0.000358435 20 -1.35628e-19)
(0.000358303 20 -1.55765e-19)
(0.00035817 20 -1.17155e-19)
(0.000358038 20 -1.34928e-19)
(0.000357906 20 -1.15264e-19)
(0.000357773 20 -1.22802e-19)
(0.000357641 20 -1.20635e-19)
(0.000357508 20 -1.66763e-19)
(0.000357376 20 -1.35835e-19)
(0.000357243 20 -1.55884e-19)
(0.00035711 20 -1.1646e-19)
(0.000356977 20 -1.33615e-19)
(0.000356845 20 -1.14252e-19)
(0.000356712 20 -1.22363e-19)
(0.000356579 20 -1.20527e-19)
(0.000356445 20 -1.66426e-19)
(0.000356312 20 -1.35206e-19)
(0.000356179 20 -1.55312e-19)
(0.000356046 20 -1.16189e-19)
(0.000355912 20 -1.33725e-19)
(0.000355779 20 -1.14106e-19)
(0.000355645 20 -1.22237e-19)
(0.000355511 20 -1.20804e-19)
(0.000355378 20 -1.66934e-19)
(0.000355244 20 -1.36377e-19)
(0.00035511 20 -1.55945e-19)
(0.000354976 20 -1.16627e-19)
(0.000354842 20 -1.34245e-19)
(0.000354707 20 -1.13912e-19)
(0.000354573 20 -1.22201e-19)
(0.000354439 20 -1.21015e-19)
(0.000354304 20 -1.67457e-19)
(0.000354169 20 -1.36089e-19)
(0.000354034 20 -1.55406e-19)
(0.0003539 20 -1.17131e-19)
(0.000353764 20 -1.34896e-19)
(0.000353629 20 -1.15138e-19)
(0.000353494 20 -1.23199e-19)
(0.000353358 20 -1.22181e-19)
(0.000353223 20 -1.67219e-19)
(0.000353087 20 -1.37658e-19)
(0.000352951 20 -1.48599e-19)
(0.000352814 20 -1.28388e-19)
(0.000352678 20 -1.06027e-19)
(0.000352541 20 -1.43044e-19)
(0.000352405 20 -1.12623e-19)
(0.000352268 20 -1.3875e-19)
(0.00035213 20 -1.0643e-19)
(0.000351993 20 -1.28701e-19)
(0.000351855 20 -1.12205e-19)
(0.000351717 20 -1.22122e-19)
(0.000351578 20 -1.22621e-19)
(0.00035144 20 -1.6898e-19)
(0.000351301 20 -1.37411e-19)
(0.000351161 20 -1.56779e-19)
(0.000351022 20 -1.17621e-19)
(0.000350882 20 -1.35255e-19)
(0.000350741 20 -1.14995e-19)
(0.0003506 20 -1.22699e-19)
(0.000350459 20 -1.21706e-19)
(0.000350317 20 -1.6738e-19)
(0.000350175 20 -1.35265e-19)
(0.000350032 20 -1.53812e-19)
(0.000349889 20 -1.14508e-19)
(0.000349746 20 -1.33631e-19)
(0.000349602 20 -1.13527e-19)
(0.000349457 20 -1.21122e-19)
(0.000349312 20 -1.20965e-19)
(0.000349166 20 -1.66621e-19)
(0.00034902 20 -1.34961e-19)
(0.000348873 20 -1.54287e-19)
(0.000348725 20 -1.1558e-19)
(0.000348577 20 -1.33242e-19)
(0.000348429 20 -1.13573e-19)
(0.000348279 20 -1.20976e-19)
(0.00034813 20 -1.20664e-19)
(0.000347979 20 -1.66798e-19)
(0.000347829 20 -1.35009e-19)
(0.000347678 20 -1.53591e-19)
(0.000347526 20 -1.1462e-19)
(0.000347375 20 -1.32972e-19)
(0.000347223 20 -1.13158e-19)
(0.000347071 20 -1.2103e-19)
(0.000346919 20 -1.21105e-19)
(0.000346767 20 -1.66937e-19)
(0.000346616 20 -1.3543e-19)
(0.000346466 20 -1.55203e-19)
(0.000346316 20 -1.15081e-19)
(0.000346168 20 -1.32726e-19)
(0.000346021 20 -1.13023e-19)
(0.000345876 20 -1.21071e-19)
(0.000345733 20 -1.21246e-19)
(0.000345593 20 -1.67307e-19)
(0.000345457 20 -1.35039e-19)
(0.000345325 20 -1.53802e-19)
(0.000345198 20 -1.14149e-19)
(0.000345078 20 -1.31998e-19)
(0.000344963 20 -1.12708e-19)
(0.000344858 20 -1.20685e-19)
(0.00034476 20 -1.21033e-19)
(0.000344679 20 -1.66686e-19)
(0.000344601 20 -1.34831e-19)
(0.000344551 20 -1.52939e-19)
(0.000344511 20 -1.15707e-19)
(0.000344474 20 -1.27838e-19)
(0.000344515 20 -1.1675e-19)
(0.000409762 20 -2.27886e-19)
(0.000409606 20 -2.03482e-19)
(0.000409429 20 -2.21933e-19)
(0.000409249 20 -2.22094e-19)
(0.000409069 20 -2.8115e-19)
(0.000408889 20 -2.38881e-19)
(0.000408709 20 -2.68772e-19)
(0.00040853 20 -2.15567e-19)
(0.000408352 20 -2.40754e-19)
(0.000408174 20 -2.1055e-19)
(0.000407996 20 -2.24705e-19)
(0.000407818 20 -2.23529e-19)
(0.000407641 20 -2.80451e-19)
(0.000407463 20 -2.37574e-19)
(0.000407286 20 -2.67438e-19)
(0.000407109 20 -2.12942e-19)
(0.000406931 20 -2.385e-19)
(0.000406754 20 -2.07554e-19)
(0.000406577 20 -2.2216e-19)
(0.0004064 20 -2.21076e-19)
(0.000406223 20 -2.78311e-19)
(0.000406045 20 -2.35259e-19)
(0.000405868 20 -2.65261e-19)
(0.000405691 20 -2.11239e-19)
(0.000405515 20 -2.36937e-19)
(0.000405338 20 -2.07163e-19)
(0.000405162 20 -2.21236e-19)
(0.000404985 20 -2.20309e-19)
(0.00040481 20 -2.7835e-19)
(0.000404634 20 -2.34625e-19)
(0.000404459 20 -2.64894e-19)
(0.000404284 20 -2.12093e-19)
(0.00040411 20 -2.374e-19)
(0.000403936 20 -2.06323e-19)
(0.000403762 20 -2.21638e-19)
(0.000403589 20 -2.20964e-19)
(0.000403417 20 -2.78682e-19)
(0.000403244 20 -2.35751e-19)
(0.000403073 20 -2.65356e-19)
(0.000402901 20 -2.11751e-19)
(0.00040273 20 -2.37374e-19)
(0.000402559 20 -2.07269e-19)
(0.000402388 20 -2.21942e-19)
(0.000402217 20 -2.21841e-19)
(0.000402047 20 -2.7976e-19)
(0.000401877 20 -2.36211e-19)
(0.000401706 20 -2.66346e-19)
(0.000401536 20 -2.11301e-19)
(0.000401366 20 -2.37532e-19)
(0.000401195 20 -2.07573e-19)
(0.000401025 20 -2.21578e-19)
(0.000400855 20 -2.21164e-19)
(0.000400684 20 -2.79126e-19)
(0.000400514 20 -2.34699e-19)
(0.000400344 20 -2.64858e-19)
(0.000400173 20 -2.10918e-19)
(0.000400003 20 -2.36727e-19)
(0.000399832 20 -2.06314e-19)
(0.000399662 20 -2.20915e-19)
(0.000399491 20 -2.21068e-19)
(0.00039932 20 -2.78657e-19)
(0.00039915 20 -2.34784e-19)
(0.000398979 20 -2.63993e-19)
(0.000398808 20 -2.10419e-19)
(0.000398637 20 -2.35903e-19)
(0.000398466 20 -2.05918e-19)
(0.000398295 20 -2.20075e-19)
(0.000398124 20 -2.1999e-19)
(0.000397953 20 -2.78856e-19)
(0.000397782 20 -2.33629e-19)
(0.00039761 20 -2.62709e-19)
(0.000397439 20 -2.09011e-19)
(0.000397267 20 -2.3513e-19)
(0.000397096 20 -2.05538e-19)
(0.000396924 20 -2.20292e-19)
(0.000396753 20 -2.20801e-19)
(0.000396581 20 -2.7869e-19)
(0.000396409 20 -2.35182e-19)
(0.000396238 20 -2.64722e-19)
(0.000396066 20 -2.1129e-19)
(0.000395894 20 -2.37746e-19)
(0.000395722 20 -2.07602e-19)
(0.000395549 20 -2.2152e-19)
(0.000395377 20 -2.21998e-19)
(0.000395205 20 -2.80623e-19)
(0.000395033 20 -2.35709e-19)
(0.00039486 20 -2.65262e-19)
(0.000394688 20 -2.10455e-19)
(0.000394515 20 -2.36358e-19)
(0.000394342 20 -2.06195e-19)
(0.00039417 20 -2.20753e-19)
(0.000393997 20 -2.21483e-19)
(0.000393824 20 -2.79835e-19)
(0.000393651 20 -2.3469e-19)
(0.000393478 20 -2.64144e-19)
(0.000393304 20 -2.09803e-19)
(0.000393131 20 -2.36215e-19)
(0.000392958 20 -2.0603e-19)
(0.000392784 20 -2.20894e-19)
(0.00039261 20 -2.22178e-19)
(0.000392437 20 -2.80786e-19)
(0.000392263 20 -2.36555e-19)
(0.000392089 20 -2.65483e-19)
(0.000391914 20 -2.10731e-19)
(0.00039174 20 -2.37175e-19)
(0.000391566 20 -2.05576e-19)
(0.000391391 20 -2.20486e-19)
(0.000391216 20 -2.22233e-19)
(0.000391041 20 -2.8139e-19)
(0.000390866 20 -2.36132e-19)
(0.000390691 20 -2.64802e-19)
(0.000390515 20 -2.11521e-19)
(0.000390339 20 -2.38231e-19)
(0.000390164 20 -2.07751e-19)
(0.000389987 20 -2.22228e-19)
(0.000389811 20 -2.23893e-19)
(0.000389634 20 -2.81101e-19)
(0.000389457 20 -2.37739e-19)
(0.00038928 20 -2.55978e-19)
(0.000389102 20 -2.23551e-19)
(0.000388924 20 -1.99661e-19)
(0.000388746 20 -2.4655e-19)
(0.000388567 20 -2.01853e-19)
(0.000388388 20 -2.39276e-19)
(0.000388209 20 -1.94676e-19)
(0.000388029 20 -2.28428e-19)
(0.000387849 20 -2.03038e-19)
(0.000387668 20 -2.20843e-19)
(0.000387486 20 -2.24779e-19)
(0.000387304 20 -2.84068e-19)
(0.000387122 20 -2.38404e-19)
(0.000386939 20 -2.66834e-19)
(0.000386755 20 -2.12057e-19)
(0.00038657 20 -2.38614e-19)
(0.000386385 20 -2.07365e-19)
(0.000386199 20 -2.21386e-19)
(0.000386012 20 -2.23109e-19)
(0.000385825 20 -2.81027e-19)
(0.000385636 20 -2.34498e-19)
(0.000385447 20 -2.62225e-19)
(0.000385256 20 -2.07398e-19)
(0.000385065 20 -2.35796e-19)
(0.000384872 20 -2.04848e-19)
(0.000384679 20 -2.19084e-19)
(0.000384484 20 -2.21905e-19)
(0.000384288 20 -2.80024e-19)
(0.000384091 20 -2.34192e-19)
(0.000383892 20 -2.6262e-19)
(0.000383693 20 -2.08761e-19)
(0.000383492 20 -2.34977e-19)
(0.000383289 20 -2.04821e-19)
(0.000383085 20 -2.18681e-19)
(0.00038288 20 -2.21345e-19)
(0.000382674 20 -2.80134e-19)
(0.000382466 20 -2.34304e-19)
(0.000382256 20 -2.61802e-19)
(0.000382046 20 -2.07477e-19)
(0.000381834 20 -2.34848e-19)
(0.000381621 20 -2.04179e-19)
(0.000381406 20 -2.1863e-19)
(0.000381191 20 -2.21786e-19)
(0.000380975 20 -2.80096e-19)
(0.000380759 20 -2.34981e-19)
(0.000380542 20 -2.63764e-19)
(0.000380325 20 -2.08122e-19)
(0.000380109 20 -2.34921e-19)
(0.000379893 20 -2.04501e-19)
(0.000379678 20 -2.19115e-19)
(0.000379466 20 -2.22405e-19)
(0.000379255 20 -2.80859e-19)
(0.000379048 20 -2.34433e-19)
(0.000378845 20 -2.61902e-19)
(0.000378647 20 -2.06684e-19)
(0.000378455 20 -2.33572e-19)
(0.000378271 20 -2.03799e-19)
(0.000378097 20 -2.18278e-19)
(0.000377932 20 -2.21665e-19)
(0.000377785 20 -2.7983e-19)
(0.000377643 20 -2.33641e-19)
(0.000377538 20 -2.60847e-19)
(0.000377431 20 -2.08396e-19)
(0.000377368 20 -2.27901e-19)
(0.000377331 20 -2.09217e-19)
(0.00041354 20 -3.45423e-19)
(0.000413362 20 -3.53005e-19)
(0.000413171 20 -3.57919e-19)
(0.000412978 20 -3.89013e-19)
(0.000412785 20 -3.81927e-19)
(0.000412591 20 -3.87524e-19)
(0.0004124 20 -3.64498e-19)
(0.000412208 20 -3.6479e-19)
(0.000412017 20 -3.54317e-19)
(0.000411826 20 -3.56575e-19)
(0.000411634 20 -3.58841e-19)
(0.000411443 20 -3.88234e-19)
(0.000411252 20 -3.79733e-19)
(0.000411061 20 -3.84258e-19)
(0.00041087 20 -3.6094e-19)
(0.000410679 20 -3.60973e-19)
(0.000410488 20 -3.50967e-19)
(0.000410297 20 -3.53767e-19)
(0.000410106 20 -3.55885e-19)
(0.000409915 20 -3.85095e-19)
(0.000409724 20 -3.77155e-19)
(0.000409533 20 -3.81842e-19)
(0.000409342 20 -3.58621e-19)
(0.000409151 20 -3.58834e-19)
(0.000408961 20 -3.48791e-19)
(0.000408771 20 -3.51936e-19)
(0.000408581 20 -3.5462e-19)
(0.000408391 20 -3.85087e-19)
(0.000408202 20 -3.77357e-19)
(0.000408013 20 -3.82053e-19)
(0.000407825 20 -3.58778e-19)
(0.000407637 20 -3.58842e-19)
(0.00040745 20 -3.49396e-19)
(0.000407263 20 -3.5289e-19)
(0.000407077 20 -3.5557e-19)
(0.000406892 20 -3.85319e-19)
(0.000406707 20 -3.77541e-19)
(0.000406522 20 -3.82422e-19)
(0.000406338 20 -3.59283e-19)
(0.000406154 20 -3.59638e-19)
(0.000405971 20 -3.49872e-19)
(0.000405788 20 -3.53124e-19)
(0.000405605 20 -3.5617e-19)
(0.000405422 20 -3.86785e-19)
(0.000405239 20 -3.78656e-19)
(0.000405056 20 -3.83474e-19)
(0.000404873 20 -3.59724e-19)
(0.000404691 20 -3.59467e-19)
(0.000404508 20 -3.49575e-19)
(0.000404326 20 -3.5288e-19)
(0.000404143 20 -3.55715e-19)
(0.00040396 20 -3.85516e-19)
(0.000403778 20 -3.76919e-19)
(0.000403595 20 -3.81411e-19)
(0.000403412 20 -3.58515e-19)
(0.000403229 20 -3.59402e-19)
(0.000403047 20 -3.49372e-19)
(0.000402864 20 -3.52121e-19)
(0.000402681 20 -3.55176e-19)
(0.000402498 20 -3.85347e-19)
(0.000402315 20 -3.76541e-19)
(0.000402132 20 -3.80512e-19)
(0.000401949 20 -3.56831e-19)
(0.000401765 20 -3.56858e-19)
(0.000401582 20 -3.4667e-19)
(0.000401399 20 -3.50039e-19)
(0.000401215 20 -3.53902e-19)
(0.000401032 20 -3.84587e-19)
(0.000400848 20 -3.75802e-19)
(0.000400665 20 -3.7985e-19)
(0.000400481 20 -3.56855e-19)
(0.000400297 20 -3.5732e-19)
(0.000400114 20 -3.47493e-19)
(0.00039993 20 -3.50553e-19)
(0.000399746 20 -3.54037e-19)
(0.000399562 20 -3.84879e-19)
(0.000399378 20 -3.76548e-19)
(0.000399193 20 -3.81048e-19)
(0.000399009 20 -3.58134e-19)
(0.000398825 20 -3.59149e-19)
(0.00039864 20 -3.49501e-19)
(0.000398456 20 -3.53021e-19)
(0.000398271 20 -3.57174e-19)
(0.000398087 20 -3.87471e-19)
(0.000397902 20 -3.78656e-19)
(0.000397717 20 -3.82541e-19)
(0.000397532 20 -3.5908e-19)
(0.000397347 20 -3.59259e-19)
(0.000397162 20 -3.4893e-19)
(0.000396977 20 -3.51725e-19)
(0.000396791 20 -3.55682e-19)
(0.000396606 20 -3.86028e-19)
(0.00039642 20 -3.76993e-19)
(0.000396235 20 -3.80808e-19)
(0.000396049 20 -3.57151e-19)
(0.000395863 20 -3.57975e-19)
(0.000395677 20 -3.48617e-19)
(0.000395491 20 -3.52718e-19)
(0.000395304 20 -3.57149e-19)
(0.000395118 20 -3.87665e-19)
(0.000394931 20 -3.78872e-19)
(0.000394744 20 -3.82947e-19)
(0.000394557 20 -3.59173e-19)
(0.00039437 20 -3.59272e-19)
(0.000394183 20 -3.49047e-19)
(0.000393995 20 -3.52024e-19)
(0.000393807 20 -3.56838e-19)
(0.000393619 20 -3.876e-19)
(0.000393431 20 -3.79027e-19)
(0.000393243 20 -3.83121e-19)
(0.000393054 20 -3.59583e-19)
(0.000392865 20 -3.60685e-19)
(0.000392675 20 -3.51313e-19)
(0.000392485 20 -3.54245e-19)
(0.000392295 20 -3.58502e-19)
(0.000392105 20 -3.87945e-19)
(0.000391914 20 -3.78522e-19)
(0.000391723 20 -3.76371e-19)
(0.000391531 20 -3.60337e-19)
(0.000391339 20 -3.38609e-19)
(0.000391146 20 -3.52275e-19)
(0.000390953 20 -3.40513e-19)
(0.000390759 20 -3.51495e-19)
(0.000390565 20 -3.38141e-19)
(0.00039037 20 -3.48257e-19)
(0.000390174 20 -3.45138e-19)
(0.000389978 20 -3.52642e-19)
(0.000389781 20 -3.59869e-19)
(0.000389583 20 -3.91755e-19)
(0.000389384 20 -3.82144e-19)
(0.000389184 20 -3.85364e-19)
(0.000388983 20 -3.60798e-19)
(0.000388782 20 -3.60974e-19)
(0.000388579 20 -3.5026e-19)
(0.000388375 20 -3.52986e-19)
(0.00038817 20 -3.57404e-19)
(0.000387963 20 -3.86866e-19)
(0.000387755 20 -3.76387e-19)
(0.000387546 20 -3.79448e-19)
(0.000387335 20 -3.5542e-19)
(0.000387123 20 -3.56548e-19)
(0.000386909 20 -3.47056e-19)
(0.000386694 20 -3.5066e-19)
(0.000386476 20 -3.55767e-19)
(0.000386257 20 -3.86142e-19)
(0.000386036 20 -3.76265e-19)
(0.000385813 20 -3.79431e-19)
(0.000385587 20 -3.54944e-19)
(0.00038536 20 -3.55289e-19)
(0.00038513 20 -3.45677e-19)
(0.000384898 20 -3.48998e-19)
(0.000384664 20 -3.54727e-19)
(0.000384427 20 -3.85691e-19)
(0.000384188 20 -3.75678e-19)
(0.000383947 20 -3.78699e-19)
(0.000383703 20 -3.55019e-19)
(0.000383457 20 -3.55938e-19)
(0.000383208 20 -3.45433e-19)
(0.000382958 20 -3.49106e-19)
(0.000382705 20 -3.54736e-19)
(0.00038245 20 -3.85724e-19)
(0.000382193 20 -3.76228e-19)
(0.000381935 20 -3.79252e-19)
(0.000381676 20 -3.55331e-19)
(0.000381416 20 -3.57135e-19)
(0.000381155 20 -3.47322e-19)
(0.000380895 20 -3.50485e-19)
(0.000380636 20 -3.56263e-19)
(0.000380378 20 -3.8662e-19)
(0.000380123 20 -3.75997e-19)
(0.000379871 20 -3.78112e-19)
(0.000379624 20 -3.53597e-19)
(0.000379383 20 -3.54936e-19)
(0.00037915 20 -3.45109e-19)
(0.000378927 20 -3.48796e-19)
(0.000378714 20 -3.54451e-19)
(0.00037852 20 -3.85374e-19)
(0.000378335 20 -3.75331e-19)
(0.000378187 20 -3.77366e-19)
(0.000378039 20 -3.54151e-19)
(0.000377953 20 -3.51409e-19)
(0.000377877 20 -3.44936e-19)
(0.000407215 20 -4.82409e-19)
(0.000407031 20 -4.90824e-19)
(0.000406836 20 -4.99619e-19)
(0.000406641 20 -5.21789e-19)
(0.000406448 20 -5.07024e-19)
(0.000406256 20 -5.08987e-19)
(0.000406064 20 -4.88535e-19)
(0.000405872 20 -4.95024e-19)
(0.000405679 20 -4.86554e-19)
(0.000405487 20 -4.91128e-19)
(0.000405294 20 -4.98648e-19)
(0.000405102 20 -5.18653e-19)
(0.00040491 20 -5.01743e-19)
(0.000404718 20 -5.04494e-19)
(0.000404525 20 -4.83087e-19)
(0.000404333 20 -4.91276e-19)
(0.00040414 20 -4.83541e-19)
(0.000403948 20 -4.87679e-19)
(0.000403755 20 -4.94435e-19)
(0.000403563 20 -5.15829e-19)
(0.00040337 20 -4.9907e-19)
(0.000403178 20 -5.01546e-19)
(0.000402986 20 -4.80399e-19)
(0.000402793 20 -4.87271e-19)
(0.000402602 20 -4.80802e-19)
(0.00040241 20 -4.85842e-19)
(0.000402219 20 -4.94486e-19)
(0.000402028 20 -5.1687e-19)
(0.000401838 20 -4.99847e-19)
(0.000401648 20 -5.01007e-19)
(0.00040146 20 -4.79873e-19)
(0.000401271 20 -4.89357e-19)
(0.000401084 20 -4.82331e-19)
(0.000400897 20 -4.87178e-19)
(0.00040071 20 -4.94551e-19)
(0.000400525 20 -5.16094e-19)
(0.000400339 20 -5.0014e-19)
(0.000400155 20 -5.02348e-19)
(0.00039997 20 -4.8155e-19)
(0.000399786 20 -4.8934e-19)
(0.000399602 20 -4.82459e-19)
(0.000399419 20 -4.87431e-19)
(0.000399235 20 -4.96506e-19)
(0.000399052 20 -5.17835e-19)
(0.000398869 20 -5.01292e-19)
(0.000398686 20 -5.03703e-19)
(0.000398503 20 -4.81003e-19)
(0.00039832 20 -4.88426e-19)
(0.000398136 20 -4.82319e-19)
(0.000397953 20 -4.87221e-19)
(0.00039777 20 -4.94573e-19)
(0.000397587 20 -5.15886e-19)
(0.000397404 20 -4.98566e-19)
(0.000397221 20 -5.01641e-19)
(0.000397037 20 -4.81815e-19)
(0.000396854 20 -4.89367e-19)
(0.000396671 20 -4.81429e-19)
(0.000396487 20 -4.8623e-19)
(0.000396304 20 -4.94762e-19)
(0.00039612 20 -5.15089e-19)
(0.000395937 20 -4.97678e-19)
(0.000395753 20 -4.98811e-19)
(0.00039557 20 -4.77482e-19)
(0.000395386 20 -4.84236e-19)
(0.000395202 20 -4.78111e-19)
(0.000395018 20 -4.84793e-19)
(0.000394834 20 -4.93054e-19)
(0.00039465 20 -5.14709e-19)
(0.000394466 20 -4.97557e-19)
(0.000394282 20 -5.00288e-19)
(0.000394097 20 -4.79193e-19)
(0.000393913 20 -4.86333e-19)
(0.000393729 20 -4.78935e-19)
(0.000393544 20 -4.84207e-19)
(0.00039336 20 -4.93761e-19)
(0.000393175 20 -5.14661e-19)
(0.00039299 20 -4.97995e-19)
(0.000392805 20 -5.00527e-19)
(0.00039262 20 -4.80244e-19)
(0.000392435 20 -4.88247e-19)
(0.00039225 20 -4.82615e-19)
(0.000392065 20 -4.89417e-19)
(0.00039188 20 -4.97009e-19)
(0.000391694 20 -5.18339e-19)
(0.000391509 20 -5.00418e-19)
(0.000391323 20 -5.03276e-19)
(0.000391138 20 -4.8187e-19)
(0.000390952 20 -4.88532e-19)
(0.000390766 20 -4.80758e-19)
(0.00039058 20 -4.86916e-19)
(0.000390394 20 -4.94925e-19)
(0.000390207 20 -5.16054e-19)
(0.000390021 20 -4.98095e-19)
(0.000389834 20 -5.00019e-19)
(0.000389648 20 -4.79408e-19)
(0.000389461 20 -4.88008e-19)
(0.000389274 20 -4.82664e-19)
(0.000389086 20 -4.89163e-19)
(0.000388899 20 -4.97247e-19)
(0.000388711 20 -5.17879e-19)
(0.000388524 20 -5.01038e-19)
(0.000388336 20 -5.0317e-19)
(0.000388147 20 -4.81057e-19)
(0.000387959 20 -4.89379e-19)
(0.00038777 20 -4.81579e-19)
(0.000387581 20 -4.88533e-19)
(0.000387392 20 -4.96481e-19)
(0.000387202 20 -5.18648e-19)
(0.000387012 20 -5.02069e-19)
(0.000386822 20 -5.0316e-19)
(0.000386631 20 -4.82839e-19)
(0.00038644 20 -4.91826e-19)
(0.000386249 20 -4.84353e-19)
(0.000386057 20 -4.9023e-19)
(0.000385864 20 -4.97486e-19)
(0.000385671 20 -5.16339e-19)
(0.000385478 20 -4.96617e-19)
(0.000385284 20 -4.94887e-19)
(0.000385089 20 -4.72989e-19)
(0.000384894 20 -4.59273e-19)
(0.000384698 20 -4.75198e-19)
(0.000384501 20 -4.64296e-19)
(0.000384304 20 -4.77427e-19)
(0.000384105 20 -4.68209e-19)
(0.000383906 20 -4.84434e-19)
(0.000383706 20 -4.82717e-19)
(0.000383505 20 -4.92171e-19)
(0.000383303 20 -5.02331e-19)
(0.000383099 20 -5.22634e-19)
(0.000382895 20 -5.04555e-19)
(0.000382689 20 -5.05054e-19)
(0.000382481 20 -4.83037e-19)
(0.000382273 20 -4.8997e-19)
(0.000382062 20 -4.82616e-19)
(0.000381851 20 -4.88809e-19)
(0.000381637 20 -4.95381e-19)
(0.000381422 20 -5.14903e-19)
(0.000381205 20 -4.97231e-19)
(0.000380985 20 -4.98942e-19)
(0.000380764 20 -4.77022e-19)
(0.00038054 20 -4.86114e-19)
(0.000380315 20 -4.80304e-19)
(0.000380086 20 -4.86717e-19)
(0.000379855 20 -4.94973e-19)
(0.000379622 20 -5.15012e-19)
(0.000379386 20 -4.96871e-19)
(0.000379147 20 -4.96651e-19)
(0.000378904 20 -4.75252e-19)
(0.000378659 20 -4.83384e-19)
(0.000378411 20 -4.7731e-19)
(0.000378159 20 -4.85204e-19)
(0.000377904 20 -4.94027e-19)
(0.000377646 20 -5.13745e-19)
(0.000377384 20 -4.96179e-19)
(0.000377118 20 -4.98132e-19)
(0.00037685 20 -4.76812e-19)
(0.000376577 20 -4.83436e-19)
(0.000376301 20 -4.77631e-19)
(0.000376022 20 -4.84734e-19)
(0.00037574 20 -4.94064e-19)
(0.000375455 20 -5.14202e-19)
(0.000375167 20 -4.95316e-19)
(0.000374877 20 -4.97933e-19)
(0.000374584 20 -4.79162e-19)
(0.00037429 20 -4.86996e-19)
(0.000373996 20 -4.79867e-19)
(0.000373701 20 -4.87237e-19)
(0.000373407 20 -4.95118e-19)
(0.000373114 20 -5.14222e-19)
(0.000372825 20 -4.94835e-19)
(0.00037254 20 -4.95917e-19)
(0.000372261 20 -4.76052e-19)
(0.000371989 20 -4.83208e-19)
(0.000371728 20 -4.77351e-19)
(0.000371479 20 -4.84167e-19)
(0.000371249 20 -4.93655e-19)
(0.000371031 20 -5.13677e-19)
(0.000370849 20 -4.94369e-19)
(0.000370677 20 -4.95644e-19)
(0.000370568 20 -4.73962e-19)
(0.000370477 20 -4.7822e-19)
(0.000398604 20 -5.81917e-19)
(0.000398414 20 -6.16999e-19)
(0.000398222 20 -6.09343e-19)
(0.000398032 20 -6.1528e-19)
(0.000397844 20 -5.88497e-19)
(0.000397654 20 -5.88884e-19)
(0.000397465 20 -5.76627e-19)
(0.000397276 20 -5.77964e-19)
(0.000397086 20 -5.82148e-19)
(0.000396896 20 -6.15291e-19)
(0.000396707 20 -6.05322e-19)
(0.000396517 20 -6.08929e-19)
(0.000396327 20 -5.82838e-19)
(0.000396137 20 -5.82156e-19)
(0.000395947 20 -5.71447e-19)
(0.000395757 20 -5.74245e-19)
(0.000395566 20 -5.77889e-19)
(0.000395376 20 -6.10022e-19)
(0.000395186 20 -6.01696e-19)
(0.000394995 20 -6.05367e-19)
(0.000394805 20 -5.79178e-19)
(0.000394615 20 -5.78893e-19)
(0.000394425 20 -5.67098e-19)
(0.000394235 20 -5.71151e-19)
(0.000394046 20 -5.75549e-19)
(0.000393857 20 -6.10482e-19)
(0.000393668 20 -6.0253e-19)
(0.00039348 20 -6.05943e-19)
(0.000393293 20 -5.78933e-19)
(0.000393107 20 -5.78289e-19)
(0.000392921 20 -5.68976e-19)
(0.000392736 20 -5.72818e-19)
(0.000392552 20 -5.77435e-19)
(0.000392368 20 -6.10319e-19)
(0.000392185 20 -6.02077e-19)
(0.000392003 20 -6.06591e-19)
(0.000391821 20 -5.80164e-19)
(0.00039164 20 -5.80334e-19)
(0.000391459 20 -5.69351e-19)
(0.000391278 20 -5.73078e-19)
(0.000391098 20 -5.776e-19)
(0.000390917 20 -6.12998e-19)
(0.000390737 20 -6.03916e-19)
(0.000390557 20 -6.08196e-19)
(0.000390377 20 -5.81469e-19)
(0.000390197 20 -5.79417e-19)
(0.000390017 20 -5.68463e-19)
(0.000389837 20 -5.72675e-19)
(0.000389657 20 -5.77239e-19)
(0.000389477 20 -6.10671e-19)
(0.000389297 20 -6.0154e-19)
(0.000389117 20 -6.04586e-19)
(0.000388937 20 -5.793e-19)
(0.000388757 20 -5.80685e-19)
(0.000388577 20 -5.69299e-19)
(0.000388396 20 -5.71579e-19)
(0.000388216 20 -5.76193e-19)
(0.000388036 20 -6.1093e-19)
(0.000387855 20 -6.00796e-19)
(0.000387675 20 -6.0357e-19)
(0.000387494 20 -5.76324e-19)
(0.000387313 20 -5.75439e-19)
(0.000387133 20 -5.63436e-19)