/*--------------------------------*- C++ -*----------------------------------*\
| =========                 |                                                 |
| \\      /  F ield         | OpenFOAM: The Open Source CFD Toolbox           |
|  \\    /   O peration     | Version:  2512                                  |
|   \\  /    A nd           | Website:  www.openfoam.com                      |
|    \\/     M anipulation  |                                                 |
\*---------------------------------------------------------------------------*/
FoamFile
{
    version     2.0;
    format      ascii;
    arch        "LSB;label=32;scalar=64";
    class       volScalarField;
    location    "0.1";
    object      p;
}
// * * * * * * * * * * * * * * * * * * * * * * * * * * * * * * * * * * * * * //

dimensions      [1 -1 -2 0 0 0 0];

internalField   nonuniform List<scalar> 
8334
(
-429.432
-430.211
-430.991
-431.771
-432.55
-433.328
-434.106
-434.884
-435.661
-436.437
-437.213
-437.989
-438.764
-439.538
-440.312
-441.085
-441.858
-442.631
-443.402
-444.174
-444.944
-445.714
-446.484
-447.253
-448.022
-448.789
-449.557
-450.324
-451.09
-451.855
-452.62
-453.385
-454.149
-454.912
-455.675
-456.437
-457.198
-457.959
-458.72
-459.479
-460.238
-460.997
-461.755
-462.512
-463.269
-464.024
-464.78
-465.535
-466.289
-467.042
-467.795
-468.547
-469.298
-470.049
-470.799
-471.549
-472.297
-473.046
-473.793
-474.54
-475.286
-476.031
-476.776
-477.52
-478.263
-479.006
-479.748
-480.489
-481.229
-481.969
-482.708
-483.446
-484.184
-484.921
-485.657
-486.392
-487.127
-487.86
-488.593
-489.326
-490.057
-490.788
-491.518
-492.247
-492.976
-493.704
-494.431
-495.157
-495.882
-496.607
-497.33
-498.053
-498.776
-499.497
-500.218
-500.937
-501.656
-502.374
-503.092
-503.808
-504.524
-505.239
-505.953
-506.666
-507.378
-508.089
-508.8
-509.51
-510.219
-510.927
-511.634
-512.34
-513.046
-513.75
-514.454
-515.157
-515.859
-516.56
-517.26
-517.959
-518.658
-519.355
-520.052
-520.748
-521.443
-522.137
-522.83
-523.522
-524.213
-524.903
-525.592
-526.281
-526.968
-527.655
-528.341
-529.025
-529.709
-530.392
-531.074
-531.755
-532.435
-533.114
-533.792
-534.47
-535.146
-535.821
-536.495
-537.169
-537.841
-538.513
-539.183
-539.853
-540.521
-541.189
-541.856
-542.521
-543.186
-543.85
-544.513
-545.174
-545.835
-546.495
-547.154
-547.812
-548.469
-549.125
-549.78
-550.434
-551.088
-551.74
-552.391
-553.042
-553.691
-554.339
-554.987
-555.634
-556.28
-556.925
-557.569
-558.212
-558.854
-559.496
-560.137
-560.777
-434.453
-435.233
-436.013
-436.792
-437.57
-438.348
-439.126
-439.903
-440.679
-441.455
-442.231
-443.005
-443.78
-444.554
-445.327
-446.1
-446.872
-447.644
-448.415
-449.186
-449.956
-450.726
-451.495
-452.263
-453.031
-453.799
-454.565
-455.332
-456.097
-456.862
-457.627
-458.391
-459.154
-459.917
-460.679
-461.44
-462.201
-462.961
-463.721
-464.48
-465.239
-465.997
-466.754
-467.51
-468.266
-469.022
-469.776
-470.53
-471.284
-472.037
-472.789
-473.54
-474.291
-475.041
-475.791
-476.539
-477.287
-478.035
-478.782
-479.528
-480.273
-481.018
-481.762
-482.505
-483.248
-483.989
-484.731
-485.471
-486.211
-486.95
-487.688
-488.426
-489.162
-489.899
-490.634
-491.368
-492.102
-492.835
-493.568
-494.299
-495.03
-495.76
-496.489
-497.218
-497.946
-498.672
-499.399
-500.124
-500.849
-501.572
-502.295
-503.018
-503.739
-504.459
-505.179
-505.898
-506.616
-507.334
-508.05
-508.766
-509.48
-510.194
-510.908
-511.62
-512.331
-513.042
-513.752
-514.461
-515.169
-515.876
-516.582
-517.288
-517.992
-518.696
-519.399
-520.101
-520.802
-521.502
-522.201
-522.9
-523.597
-524.294
-524.99
-525.685
-526.378
-527.071
-527.764
-528.455
-529.145
-529.834
-530.523
-531.21
-531.897
-532.583
-533.267
-533.951
-534.634
-535.316
-535.997
-536.677
-537.356
-538.034
-538.712
-539.388
-540.063
-540.737
-541.411
-542.083
-542.755
-543.425
-544.095
-544.763
-545.431
-546.098
-546.763
-547.428
-548.092
-548.755
-549.416
-550.077
-550.737
-551.396
-552.054
-552.711
-553.367
-554.022
-554.676
-555.33
-555.982
-556.633
-557.283
-557.933
-558.581
-559.229
-559.876
-560.522
-561.166
-561.811
-562.454
-563.096
-563.738
-564.379
-565.019
-438.691
-439.471
-440.25
-441.029
-441.808
-442.586
-443.363
-444.14
-444.917
-445.693
-446.468
-447.243
-448.018
-448.792
-449.565
-450.338
-451.11
-451.882
-452.653
-453.424
-454.194
-454.964
-455.733
-456.501
-457.269
-458.036
-458.803
-459.569
-460.335
-461.1
-461.864
-462.628
-463.392
-464.154
-464.916
-465.678
-466.439
-467.199
-467.959
-468.718
-469.476
-470.234
-470.991
-471.748
-472.504
-473.259
-474.014
-474.768
-475.522
-476.274
-477.026
-477.778
-478.529
-479.279
-480.028
-480.777
-481.525
-482.273
-483.019
-483.765
-484.511
-485.255
-485.999
-486.743
-487.485
-488.227
-488.968
-489.709
-490.448
-491.187
-491.926
-492.663
-493.4
-494.136
-494.872
-495.606
-496.34
-497.073
-497.805
-498.537
-499.268
-499.998
-500.727
-501.455
-502.183
-502.91
-503.636
-504.362
-505.086
-505.81
-506.533
-507.255
-507.977
-508.697
-509.417
-510.136
-510.854
-511.571
-512.288
-513.003
-513.718
-514.432
-515.145
-515.858
-516.569
-517.28
-517.989
-518.698
-519.406
-520.114
-520.82
-521.525
-522.23
-522.934
-523.636
-524.338
-525.039
-525.74
-526.439
-527.137
-527.835
-528.532
-529.227
-529.922
-530.616
-531.309
-532.001
-532.692
-533.383
-534.072
-534.761
-535.448
-536.135
-536.82
-537.505
-538.189
-538.872
-539.554
-540.235
-540.915
-541.594
-542.272
-542.949
-543.625
-544.301
-544.975
-545.648
-546.321
-546.992
-547.663
-548.332
-549.001
-549.669
-550.335
-551.001
-551.666
-552.329
-552.992
-553.654
-554.315
-554.975
-555.634
-556.292
-556.949
-557.605
-558.26
-558.914
-559.567
-560.219
-560.871
-561.521
-562.171
-562.819
-563.467
-564.113
-564.759
-565.404
-566.048
-566.692
-567.334
-567.976
-568.617
-569.257
-443.709
-444.488
-445.267
-446.046
-446.824
-447.601
-448.378
-449.155
-449.931
-450.706
-451.481
-452.256
-453.03
-453.803
-454.576
-455.348
-456.12
-456.891
-457.662
-458.432
-459.202
-459.971
-460.739
-461.507
-462.274
-463.041
-463.807
-464.573
-465.338
-466.102
-466.866
-467.63
-468.392
-469.154
-469.916
-470.677
-471.437
-472.197
-472.956
-473.714
-474.472
-475.229
-475.986
-476.742
-477.497
-478.252
-479.006
-479.759
-480.512
-481.264
-482.016
-482.767
-483.517
-484.266
-485.015
-485.763
-486.51
-487.257
-488.003
-488.749
-489.493
-490.237
-490.981
-491.723
-492.465
-493.206
-493.947
-494.686
-495.425
-496.164
-496.901
-497.638
-498.374
-499.109
-499.844
-500.578
-501.311
-502.043
-502.775
-503.506
-504.236
-504.965
-505.693
-506.421
-507.148
-507.874
-508.6
-509.324
-510.048
-510.771
-511.493
-512.214
-512.935
-513.655
-514.374
-515.092
-515.809
-516.526
-517.241
-517.956
-518.67
-519.383
-520.095
-520.807
-521.518
-522.227
-522.936
-523.644
-524.351
-525.058
-525.763
-526.468
-527.172
-527.874
-528.576
-529.277
-529.978
-530.677
-531.375
-532.073
-532.77
-533.465
-534.16
-534.854
-535.547
-536.239
-536.93
-537.621
-538.31
-538.998
-539.686
-540.373
-541.058
-541.743
-542.427
-543.11
-543.792
-544.473
-545.153
-545.832
-546.51
-547.187
-547.863
-548.539
-549.213
-549.886
-550.559
-551.23
-551.901
-552.57
-553.239
-553.907
-554.573
-555.239
-555.904
-556.567
-557.23
-557.892
-558.553
-559.213
-559.872
-560.53
-561.187
-561.843
-562.498
-563.152
-563.805
-564.457
-565.109
-565.759
-566.408
-567.057
-567.705
-568.351
-568.997
-569.642
-570.286
-570.929
-571.572
-572.213
-572.854
-573.495
-448.727
-449.505
-450.284
-451.062
-451.839
-452.616
-453.393
-454.169
-454.944
-455.719
-456.494
-457.267
-458.041
-458.814
-459.586
-460.358
-461.129
-461.9
-462.67
-463.439
-464.208
-464.977
-465.745
-466.512
-467.279
-468.045
-468.811
-469.576
-470.34
-471.104
-471.868
-472.63
-473.392
-474.154
-474.915
-475.675
-476.435
-477.194
-477.952
-478.71
-479.467
-480.224
-480.98
-481.735
-482.49
-483.244
-483.997
-484.75
-485.502
-486.254
-487.004
-487.755
-488.504
-489.253
-490.001
-490.748
-491.495
-492.241
-492.987
-493.731
-494.475
-495.219
-495.961
-496.703
-497.444
-498.185
-498.924
-499.663
-500.402
-501.139
-501.876
-502.612
-503.347
-504.082
-504.816
-505.549
-506.281
-507.013
-507.744
-508.474
-509.203
-509.931
-510.659
-511.386
-512.112
-512.837
-513.562
-514.286
-515.009
-515.731
-516.452
-517.173
-517.893
-518.612
-519.33
-520.047
-520.764
-521.479
-522.194
-522.908
-523.621
-524.333
-525.045
-525.755
-526.465
-527.174
-527.882
-528.589
-529.296
-530.001
-530.706
-531.409
-532.112
-532.814
-533.515
-534.216
-534.915
-535.613
-536.311
-537.007
-537.703
-538.398
-539.092
-539.785
-540.477
-541.168
-541.859
-542.548
-543.236
-543.924
-544.61
-545.296
-545.981
-546.665
-547.348
-548.029
-548.71
-549.391
-550.07
-550.748
-551.425
-552.101
-552.777
-553.451
-554.124
-554.797
-555.468
-556.139
-556.808
-557.477
-558.144
-558.811
-559.477
-560.142
-560.805
-561.468
-562.13
-562.791
-563.451
-564.11
-564.768
-565.425
-566.081
-566.736
-567.39
-568.043
-568.695
-569.347
-569.997
-570.646
-571.295
-571.942
-572.589
-573.235
-573.88
-574.524
-575.167
-575.81
-576.451
-577.092
-577.732
-453.743
-454.522
-455.3
-456.077
-456.854
-457.631
-458.407
-459.182
-459.957
-460.731
-461.505
-462.279
-463.052
-463.824
-464.596
-465.367
-466.138
-466.908
-467.677
-468.446
-469.215
-469.983
-470.75
-471.517
-472.283
-473.049
-473.814
-474.578
-475.342
-476.105
-476.868
-477.63
-478.392
-479.153
-479.913
-480.673
-481.432
-482.19
-482.948
-483.705
-484.462
-485.218
-485.973
-486.728
-487.482
-488.235
-488.988
-489.74
-490.492
-491.242
-491.993
-492.742
-493.491
-494.239
-494.986
-495.733
-496.479
-497.225
-497.969
-498.713
-499.456
-500.199
-500.941
-501.682
-502.423
-503.162
-503.901
-504.64
-505.377
-506.114
-506.85
-507.585
-508.32
-509.054
-509.787
-510.519
-511.251
-511.981
-512.711
-513.441
-514.169
-514.897
-515.624
-516.35
-517.075
-517.8
-518.524
-519.247
-519.969
-520.69
-521.411
-522.131
-522.85
-523.568
-524.285
-525.001
-525.717
-526.432
-527.146
-527.859
-528.571
-529.283
-529.993
-530.703
-531.412
-532.12
-532.827
-533.534
-534.239
-534.944
-535.647
-536.35
-537.052
-537.753
-538.453
-539.153
-539.851
-540.549
-541.245
-541.941
-542.636
-543.33
-544.023
-544.715
-545.406
-546.096
-546.786
-547.474
-548.162
-548.848
-549.534
-550.219
-550.903
-551.585
-552.267
-552.948
-553.628
-554.308
-554.986
-555.663
-556.339
-557.014
-557.689
-558.362
-559.035
-559.706
-560.377
-561.046
-561.715
-562.382
-563.049
-563.715
-564.379
-565.043
-565.706
-566.368
-567.029
-567.689
-568.347
-569.005
-569.662
-570.318
-570.974
-571.628
-572.281
-572.933
-573.584
-574.235
-574.884
-575.533
-576.18
-576.827
-577.473
-578.118
-578.762
-579.405
-580.047
-580.689
-581.33
-581.97
-457.982
-458.76
-459.538
-460.315
-461.092
-461.869
-462.645
-463.42
-464.195
-464.969
-465.743
-466.517
-467.29
-468.062
-468.834
-469.605
-470.376
-471.146
-471.915
-472.684
-473.453
-474.221
-474.988
-475.755
-476.521
-477.287
-478.052
-478.816
-479.58
-480.343
-481.106
-481.868
-482.63
-483.391
-484.151
-484.911
-485.67
-486.428
-487.186
-487.943
-488.7
-489.456
-490.211
-490.966
-491.72
-492.473
-493.226
-493.978
-494.73
-495.48
-496.23
-496.98
-497.729
-498.477
-499.224
-499.971
-500.717
-501.462
-502.207
-502.951
-503.694
-504.437
-505.179
-505.92
-506.66
-507.4
-508.139
-508.877
-509.615
-510.352
-511.088
-511.823
-512.558
-513.292
-514.025
-514.757
-515.489
-516.219
-516.949
-517.679
-518.407
-519.135
-519.862
-520.588
-521.313
-522.038
-522.762
-523.485
-524.207
-524.928
-525.649
-526.369
-527.087
-527.806
-528.523
-529.239
-529.955
-530.67
-531.384
-532.097
-532.809
-533.521
-534.231
-534.941
-535.65
-536.358
-537.065
-537.772
-538.477
-539.182
-539.885
-540.588
-541.29
-541.991
-542.691
-543.391
-544.089
-544.787
-545.483
-546.179
-546.874
-547.568
-548.261
-548.953
-549.644
-550.334
-551.024
-551.712
-552.4
-553.086
-553.772
-554.457
-555.141
-555.823
-556.505
-557.186
-557.866
-558.545
-559.224
-559.901
-560.577
-561.252
-561.927
-562.6
-563.273
-563.944
-564.615
-565.284
-565.953
-566.62
-567.287
-567.953
-568.617
-569.281
-569.944
-570.606
-571.267
-571.926
-572.585
-573.243
-573.9
-574.556
-575.211
-575.866
-576.519
-577.171
-577.822
-578.473
-579.122
-579.771
-580.418
-581.065
-581.711
-582.356
-583
-583.643
-584.285
-584.927
-585.568
-586.208
-462.998
-463.775
-464.553
-465.33
-466.107
-466.882
-467.658
-468.433
-469.207
-469.981
-470.755
-471.528
-472.3
-473.072
-473.843
-474.614
-475.384
-476.153
-476.922
-477.691
-478.459
-479.226
-479.993
-480.759
-481.525
-482.29
-483.054
-483.818
-484.581
-485.344
-486.106
-486.868
-487.628
-488.389
-489.148
-489.908
-490.666
-491.424
-492.181
-492.938
-493.694
-494.449
-495.204
-495.958
-496.711
-497.464
-498.216
-498.967
-499.718
-500.468
-501.218
-501.967
-502.715
-503.462
-504.209
-504.955
-505.7
-506.445
-507.189
-507.932
-508.675
-509.417
-510.158
-510.898
-511.638
-512.377
-513.115
-513.853
-514.59
-515.326
-516.061
-516.796
-517.53
-518.263
-518.995
-519.727
-520.457
-521.187
-521.917
-522.645
-523.373
-524.1
-524.826
-525.551
-526.276
-527
-527.723
-528.445
-529.166
-529.887
-530.606
-531.325
-532.044
-532.761
-533.477
-534.193
-534.908
-535.622
-536.335
-537.047
-537.759
-538.469
-539.179
-539.888
-540.596
-541.303
-542.009
-542.715
-543.42
-544.123
-544.826
-545.528
-546.229
-546.929
-547.629
-548.327
-549.025
-549.721
-550.417
-551.112
-551.806
-552.499
-553.191
-553.882
-554.572
-555.262
-555.95
-556.638
-557.324
-558.01
-558.695
-559.378
-560.061
-560.743
-561.424
-562.104
-562.783
-563.462
-564.139
-564.815
-565.49
-566.165
-566.838
-567.51
-568.182
-568.852
-569.522
-570.191
-570.858
-571.525
-572.191
-572.855
-573.519
-574.182
-574.844
-575.504
-576.164
-576.823
-577.481
-578.138
-578.794
-579.449
-580.103
-580.757
-581.409
-582.06
-582.711
-583.36
-584.008
-584.656
-585.303
-585.948
-586.593
-587.237
-587.881
-588.523
-589.164
-589.805
-590.445
-468.014
-468.791
-469.568
-470.344
-471.12
-471.896
-472.671
-473.445
-474.219
-474.993
-475.765
-476.538
-477.31
-478.081
-478.851
-479.622
-480.391
-481.16
-481.929
-482.697
-483.464
-484.231
-484.997
-485.763
-486.528
-487.292
-488.056
-488.819
-489.582
-490.344
-491.106
-491.866
-492.627
-493.386
-494.145
-494.904
-495.662
-496.419
-497.176
-497.932
-498.687
-499.442
-500.196
-500.949
-501.702
-502.454
-503.205
-503.956
-504.706
-505.456
-506.205
-506.953
-507.7
-508.447
-509.193
-509.938
-510.683
-511.427
-512.17
-512.913
-513.655
-514.396
-515.136
-515.876
-516.615
-517.353
-518.091
-518.828
-519.564
-520.299
-521.034
-521.767
-522.501
-523.233
-523.964
-524.695
-525.425
-526.155
-526.883
-527.611
-528.338
-529.064
-529.789
-530.514
-531.238
-531.961
-532.683
-533.404
-534.125
-534.844
-535.563
-536.281
-536.999
-537.715
-538.431
-539.146
-539.86
-540.573
-541.285
-541.997
-542.707
-543.417
-544.126
-544.834
-545.541
-546.247
-546.953
-547.657
-548.361
-549.064
-549.766
-550.467
-551.167
-551.867
-552.565
-553.263
-553.959
-554.655
-555.35
-556.044
-556.737
-557.429
-558.12
-558.81
-559.5
-560.188
-560.876
-561.562
-562.248
-562.933
-563.616
-564.299
-564.981
-565.662
-566.342
-567.021
-567.699
-568.377
-569.053
-569.728
-570.403
-571.076
-571.748
-572.42
-573.09
-573.76
-574.428
-575.096
-575.763
-576.428
-577.093
-577.757
-578.42
-579.082
-579.742
-580.402
-581.061
-581.719
-582.376
-583.032
-583.687
-584.341
-584.995
-585.647
-586.298
-586.948
-587.598
-588.246
-588.894
-589.541
-590.186
-590.831
-591.475
-592.118
-592.761
-593.402
-594.043
-594.683
-473.029
-473.806
-474.582
-475.358
-476.134
-476.909
-477.683
-478.457
-479.231
-480.003
-480.776
-481.548
-482.319
-483.089
-483.86
-484.629
-485.398
-486.167
-486.935
-487.702
-488.469
-489.235
-490.001
-490.766
-491.53
-492.294
-493.057
-493.82
-494.582
-495.343
-496.104
-496.865
-497.624
-498.383
-499.142
-499.9
-500.657
-501.414
-502.169
-502.925
-503.68
-504.434
-505.187
-505.94
-506.692
-507.443
-508.194
-508.944
-509.694
-510.442
-511.191
-511.938
-512.685
-513.431
-514.176
-514.921
-515.665
-516.408
-517.151
-517.893
-518.634
-519.374
-520.114
-520.853
-521.591
-522.329
-523.066
-523.802
-524.537
-525.272
-526.005
-526.738
-527.471
-528.202
-528.933
-529.663
-530.392
-531.121
-531.849
-532.576
-533.302
-534.027
-534.752
-535.475
-536.198
-536.921
-537.642
-538.363
-539.082
-539.801
-540.519
-541.237
-541.953
-542.669
-543.384
-544.098
-544.811
-545.523
-546.234
-546.945
-547.655
-548.364
-549.072
-549.779
-550.485
-551.191
-551.895
-552.599
-553.302
-554.004
-554.705
-555.405
-556.104
-556.803
-557.5
-558.197
-558.893
-559.588
-560.282
-560.975
-561.667
-562.358
-563.048
-563.738
-564.426
-565.114
-565.8
-566.486
-567.171
-567.854
-568.537
-569.219
-569.9
-570.58
-571.259
-571.937
-572.615
-573.291
-573.966
-574.64
-575.314
-575.986
-576.658
-577.328
-577.998
-578.666
-579.334
-580.001
-580.666
-581.331
-581.995
-582.658
-583.319
-583.98
-584.64
-585.299
-585.957
-586.614
-587.27
-587.925
-588.579
-589.232
-589.885
-590.536
-591.186
-591.836
-592.484
-593.132
-593.778
-594.424
-595.069
-595.713
-596.356
-596.998
-597.64
-598.28
-598.92
-477.267
-478.044
-478.82
-479.596
-480.372
-481.147
-481.921
-482.695
-483.469
-484.241
-485.014
-485.785
-486.557
-487.327
-488.098
-488.867
-489.636
-490.405
-491.173
-491.94
-492.707
-493.473
-494.238
-495.003
-495.768
-496.532
-497.295
-498.058
-498.82
-499.581
-500.342
-501.103
-501.862
-502.621
-503.38
-504.138
-504.895
-505.651
-506.407
-507.163
-507.917
-508.672
-509.425
-510.178
-510.93
-511.681
-512.432
-513.182
-513.932
-514.68
-515.429
-516.176
-516.923
-517.669
-518.414
-519.159
-519.903
-520.646
-521.389
-522.131
-522.872
-523.612
-524.352
-525.091
-525.829
-526.567
-527.304
-528.04
-528.775
-529.509
-530.243
-530.976
-531.709
-532.44
-533.171
-533.901
-534.63
-535.359
-536.087
-536.814
-537.54
-538.265
-538.99
-539.713
-540.436
-541.159
-541.88
-542.6
-543.32
-544.039
-544.757
-545.475
-546.191
-546.907
-547.622
-548.336
-549.049
-549.761
-550.472
-551.183
-551.893
-552.602
-553.31
-554.017
-554.723
-555.429
-556.133
-556.837
-557.54
-558.242
-558.943
-559.643
-560.342
-561.041
-561.738
-562.435
-563.131
-563.826
-564.52
-565.213
-565.905
-566.596
-567.286
-567.975
-568.664
-569.351
-570.038
-570.724
-571.408
-572.092
-572.775
-573.457
-574.138
-574.818
-575.497
-576.175
-576.853
-577.529
-578.204
-578.878
-579.552
-580.224
-580.896
-581.566
-582.236
-582.904
-583.572
-584.239
-584.904
-585.569
-586.233
-586.896
-587.557
-588.218
-588.878
-589.537
-590.195
-590.852
-591.508
-592.163
-592.817
-593.47
-594.122
-594.774
-595.424
-596.073
-596.722
-597.369
-598.016
-598.662
-599.307
-599.951
-600.594
-601.236
-601.877
-602.518
-603.158
-482.282
-483.058
-483.834
-484.61
-485.385
-486.159
-486.933
-487.706
-488.479
-489.252
-490.023
-490.795
-491.565
-492.335
-493.105
-493.874
-494.643
-495.41
-496.178
-496.945
-497.711
-498.476
-499.241
-500.006
-500.77
-501.533
-502.296
-503.058
-503.819
-504.58
-505.341
-506.1
-506.859
-507.618
-508.376
-509.133
-509.889
-510.645
-511.401
-512.155
-512.909
-513.663
-514.416
-515.168
-515.919
-516.67
-517.42
-518.17
-518.918
-519.666
-520.414
-521.161
-521.907
-522.652
-523.397
-524.141
-524.884
-525.627
-526.369
-527.11
-527.85
-528.59
-529.329
-530.067
-530.805
-531.541
-532.278
-533.013
-533.747
-534.481
-535.214
-535.947
-536.678
-537.409
-538.139
-538.868
-539.597
-540.325
-541.051
-541.778
-542.503
-543.228
-543.951
-544.674
-545.397
-546.118
-546.838
-547.558
-548.277
-548.995
-549.713
-550.429
-551.145
-551.859
-552.573
-553.287
-553.999
-554.71
-555.421
-556.131
-556.84
-557.548
-558.255
-558.961
-559.667
-560.371
-561.075
-561.778
-562.48
-563.181
-563.881
-564.58
-565.279
-565.976
-566.673
-567.369
-568.064
-568.757
-569.45
-570.143
-570.834
-571.524
-572.213
-572.902
-573.589
-574.276
-574.962
-575.646
-576.33
-577.013
-577.695
-578.376
-579.056
-579.735
-580.413
-581.09
-581.767
-582.442
-583.116
-583.79
-584.462
-585.134
-585.804
-586.474
-587.142
-587.81
-588.477
-589.142
-589.807
-590.471
-591.133
-591.795
-592.456
-593.116
-593.775
-594.433
-595.09
-595.746
-596.401
-597.055
-597.708
-598.36
-599.012
-599.662
-600.311
-600.96
-601.607
-602.254
-602.9
-603.544
-604.188
-604.831
-605.474
-606.115
-606.756
-607.396
-487.296
-488.072
-488.848
-489.623
-490.397
-491.171
-491.944
-492.717
-493.49
-494.261
-495.033
-495.803
-496.573
-497.343
-498.112
-498.881
-499.648
-500.416
-501.183
-501.949
-502.714
-503.479
-504.244
-505.008
-505.771
-506.534
-507.296
-508.057
-508.818
-509.578
-510.338
-511.097
-511.856
-512.614
-513.371
-514.127
-514.883
-515.639
-516.393
-517.147
-517.901
-518.654
-519.406
-520.157
-520.908
-521.658
-522.407
-523.156
-523.904
-524.652
-525.399
-526.145
-526.89
-527.635
-528.379
-529.122
-529.865
-530.606
-531.348
-532.088
-532.828
-533.567
-534.305
-535.043
-535.779
-536.515
-537.251
-537.985
-538.719
-539.452
-540.185
-540.916
-541.647
-542.377
-543.106
-543.835
-544.562
-545.289
-546.016
-546.741
-547.466
-548.189
-548.912
-549.634
-550.356
-551.076
-551.796
-552.515
-553.233
-553.95
-554.667
-555.383
-556.097
-556.811
-557.525
-558.237
-558.948
-559.659
-560.369
-561.078
-561.786
-562.493
-563.199
-563.905
-564.609
-565.313
-566.016
-566.718
-567.419
-568.119
-568.818
-569.517
-570.214
-570.911
-571.607
-572.301
-572.995
-573.688
-574.381
-575.072
-575.762
-576.451
-577.14
-577.827
-578.514
-579.2
-579.884
-580.568
-581.251
-581.933
-582.614
-583.294
-583.973
-584.651
-585.328
-586.005
-586.68
-587.354
-588.028
-588.7
-589.372
-590.042
-590.712
-591.38
-592.048
-592.714
-593.38
-594.045
-594.709
-595.371
-596.033
-596.694
-597.354
-598.013
-598.671
-599.328
-599.984
-600.639
-601.293
-601.946
-602.598
-603.249
-603.9
-604.549
-605.198
-605.845
-606.492
-607.137
-607.782
-608.426
-609.069
-609.711
-610.353
-610.993
-611.633
-491.535
-492.31
-493.086
-493.861
-494.635
-495.409
-496.182
-496.955
-497.728
-498.499
-499.271
-500.041
-500.811
-501.581
-502.35
-503.118
-503.886
-504.654
-505.421
-506.187
-506.952
-507.717
-508.482
-509.246
-510.009
-510.772
-511.534
-512.295
-513.056
-513.816
-514.576
-515.335
-516.094
-516.851
-517.609
-518.365
-519.121
-519.877
-520.631
-521.385
-522.139
-522.891
-523.644
-524.395
-525.146
-525.896
-526.645
-527.394
-528.142
-528.89
-529.637
-530.383
-531.128
-531.873
-532.617
-533.36
-534.103
-534.844
-535.586
-536.326
-537.066
-537.805
-538.543
-539.281
-540.017
-540.753
-541.489
-542.223
-542.957
-543.69
-544.423
-545.154
-545.885
-546.615
-547.344
-548.073
-548.8
-549.527
-550.254
-550.979
-551.703
-552.427
-553.15
-553.872
-554.594
-555.314
-556.034
-556.753
-557.471
-558.188
-558.905
-559.621
-560.335
-561.049
-561.762
-562.475
-563.186
-563.897
-564.607
-565.316
-566.024
-566.731
-567.437
-568.143
-568.847
-569.551
-570.254
-570.956
-571.657
-572.357
-573.056
-573.755
-574.452
-575.149
-575.845
-576.539
-577.233
-577.926
-578.618
-579.31
-580
-580.689
-581.378
-582.065
-582.752
-583.438
-584.122
-584.806
-585.489
-586.171
-586.852
-587.532
-588.211
-588.889
-589.566
-590.243
-590.918
-591.592
-592.266
-592.938
-593.61
-594.28
-594.95
-595.618
-596.286
-596.952
-597.618
-598.283
-598.946
-599.609
-600.271
-600.932
-601.592
-602.251
-602.909
-603.566
-604.222
-604.877
-605.531
-606.184
-606.836
-607.487
-608.138
-608.787
-609.435
-610.083
-610.729
-611.375
-612.02
-612.664
-613.307
-613.949
-614.59
-615.231
-615.87
-496.549
-497.324
-498.099
-498.873
-499.647
-500.42
-501.193
-501.966
-502.737
-503.509
-504.279
-505.049
-505.819
-506.588
-507.356
-508.124
-508.892
-509.658
-510.425
-511.19
-511.955
-512.72
-513.484
-514.247
-515.01
-515.772
-516.533
-517.294
-518.054
-518.814
-519.573
-520.332
-521.089
-521.847
-522.603
-523.359
-524.115
-524.869
-525.623
-526.377
-527.129
-527.882
-528.633
-529.384
-530.134
-530.883
-531.632
-532.38
-533.128
-533.874
-534.621
-535.366
-536.111
-536.855
-537.598
-538.34
-539.082
-539.823
-540.564
-541.304
-542.043
-542.781
-543.518
-544.255
-544.991
-545.727
-546.461
-547.195
-547.928
-548.661
-549.392
-550.123
-550.853
-551.582
-552.311
-553.038
-553.765
-554.491
-555.217
-555.941
-556.665
-557.388
-558.11
-558.832
-559.552
-560.272
-560.991
-561.709
-562.426
-563.143
-563.859
-564.573
-565.287
-566
-566.713
-567.424
-568.135
-568.845
-569.553
-570.262
-570.969
-571.675
-572.38
-573.085
-573.789
-574.492
-575.194
-575.895
-576.595
-577.294
-577.993
-578.69
-579.387
-580.083
-580.777
-581.471
-582.164
-582.856
-583.548
-584.238
-584.927
-585.616
-586.303
-586.99
-587.675
-588.36
-589.044
-589.727
-590.409
-591.09
-591.77
-592.449
-593.127
-593.804
-594.481
-595.156
-595.83
-596.504
-597.176
-597.847
-598.518
-599.187
-599.856
-600.524
-601.19
-601.856
-602.521
-603.184
-603.847
-604.509
-605.17
-605.83
-606.489
-607.146
-607.803
-608.459
-609.114
-609.769
-610.422
-611.074
-611.725
-612.375
-613.025
-613.673
-614.321
-614.967
-615.613
-616.258
-616.901
-617.544
-618.187
-618.828
-619.468
-620.108
-501.562
-502.337
-503.111
-503.885
-504.658
-505.431
-506.204
-506.975
-507.747
-508.517
-509.287
-510.057
-510.826
-511.594
-512.362
-513.13
-513.896
-514.663
-515.428
-516.193
-516.958
-517.722
-518.485
-519.248
-520.01
-520.771
-521.532
-522.292
-523.052
-523.811
-524.57
-525.327
-526.085
-526.841
-527.597
-528.352
-529.107
-529.861
-530.615
-531.367
-532.119
-532.871
-533.622
-534.372
-535.121
-535.87
-536.618
-537.366
-538.112
-538.858
-539.604
-540.349
-541.093
-541.836
-542.578
-543.32
-544.061
-544.802
-545.542
-546.281
-547.019
-547.756
-548.493
-549.229
-549.965
-550.699
-551.433
-552.166
-552.898
-553.63
-554.361
-555.091
-555.82
-556.549
-557.276
-558.003
-558.729
-559.455
-560.179
-560.903
-561.626
-562.348
-563.07
-563.79
-564.51
-565.229
-565.947
-566.664
-567.381
-568.096
-568.811
-569.525
-570.238
-570.951
-571.662
-572.373
-573.083
-573.791
-574.499
-575.207
-575.913
-576.618
-577.323
-578.027
-578.73
-579.432
-580.133
-580.833
-581.532
-582.231
-582.928
-583.625
-584.32
-585.015
-585.709
-586.402
-587.094
-587.786
-588.476
-589.165
-589.854
-590.541
-591.228
-591.913
-592.598
-593.282
-593.965
-594.647
-595.328
-596.008
-596.687
-597.365
-598.042
-598.718
-599.394
-600.068
-600.741
-601.414
-602.085
-602.756
-603.425
-604.094
-604.762
-605.428
-606.094
-606.759
-607.422
-608.085
-608.747
-609.408
-610.068
-610.726
-611.384
-612.041
-612.697
-613.352
-614.006
-614.66
-615.312
-615.963
-616.613
-617.262
-617.911
-618.558
-619.205
-619.85
-620.495
-621.139
-621.782
-622.424
-623.065
-623.706
-624.345
-506.575
-507.349
-508.123
-508.896
-509.669
-510.442
-511.213
-511.985
-512.755
-513.525
-514.295
-515.064
-515.832
-516.6
-517.368
-518.134
-518.901
-519.666
-520.431
-521.196
-521.96
-522.723
-523.486
-524.248
-525.009
-525.77
-526.53
-527.29
-528.049
-528.807
-529.565
-530.323
-531.079
-531.835
-532.59
-533.345
-534.099
-534.853
-535.605
-536.357
-537.109
-537.86
-538.61
-539.359
-540.108
-540.856
-541.604
-542.35
-543.096
-543.842
-544.586
-545.33
-546.074
-546.816
-547.558
-548.299
-549.04
-549.78
-550.519
-551.257
-551.994
-552.731
-553.467
-554.203
-554.937
-555.671
-556.404
-557.136
-557.868
-558.599
-559.329
-560.058
-560.787
-561.514
-562.241
-562.967
-563.693
-564.417
-565.141
-565.864
-566.586
-567.308
-568.028
-568.748
-569.467
-570.185
-570.902
-571.619
-572.334
-573.049
-573.763
-574.476
-575.189
-575.9
-576.611
-577.32
-578.029
-578.737
-579.445
-580.151
-580.856
-581.561
-582.265
-582.968
-583.67
-584.371
-585.071
-585.77
-586.469
-587.166
-587.863
-588.558
-589.253
-589.947
-590.64
-591.332
-592.024
-592.714
-593.403
-594.092
-594.779
-595.466
-596.151
-596.836
-597.52
-598.203
-598.885
-599.566
-600.246
-600.925
-601.603
-602.28
-602.956
-603.632
-604.306
-604.979
-605.652
-606.323
-606.994
-607.663
-608.332
-609
-609.666
-610.332
-610.997
-611.66
-612.323
-612.985
-613.646
-614.305
-614.964
-615.622
-616.279
-616.935
-617.59
-618.244
-618.897
-619.549
-620.201
-620.851
-621.5
-622.149
-622.796
-623.443
-624.088
-624.733
-625.377
-626.02
-626.662
-627.303
-627.943
-628.583
-510.813
-511.587
-512.361
-513.134
-513.907
-514.68
-515.451
-516.223
-516.993
-517.763
-518.533
-519.302
-520.07
-520.838
-521.606
-522.372
-523.139
-523.904
-524.669
-525.434
-526.198
-526.961
-527.723
-528.486
-529.247
-530.008
-530.768
-531.528
-532.287
-533.045
-533.803
-534.56
-535.317
-536.073
-536.828
-537.583
-538.337
-539.091
-539.843
-540.595
-541.347
-542.098
-542.848
-543.597
-544.346
-545.094
-545.842
-546.588
-547.334
-548.08
-548.824
-549.568
-550.312
-551.054
-551.796
-552.537
-553.278
-554.018
-554.757
-555.495
-556.232
-556.969
-557.705
-558.441
-559.175
-559.909
-560.642
-561.374
-562.106
-562.837
-563.567
-564.296
-565.025
-565.752
-566.479
-567.205
-567.931
-568.655
-569.379
-570.102
-570.824
-571.546
-572.266
-572.986
-573.705
-574.423
-575.14
-575.857
-576.572
-577.287
-578.001
-578.714
-579.427
-580.138
-580.849
-581.558
-582.267
-582.975
-583.683
-584.389
-585.094
-585.799
-586.503
-587.206
-587.907
-588.609
-589.309
-590.008
-590.707
-591.404
-592.101
-592.796
-593.491
-594.185
-594.878
-595.57
-596.261
-596.952
-597.641
-598.33
-599.017
-599.704
-600.389
-601.074
-601.758
-602.441
-603.123
-603.804
-604.484
-605.163
-605.841
-606.518
-607.194
-607.87
-608.544
-609.217
-609.89
-610.561
-611.232
-611.901
-612.57
-613.237
-613.904
-614.57
-615.234
-615.898
-616.561
-617.223
-617.884
-618.543
-619.202
-619.86
-620.517
-621.173
-621.828
-622.482
-623.135
-623.787
-624.438
-625.089
-625.738
-626.386
-627.034
-627.68
-628.326
-628.971
-629.614
-630.257
-630.899
-631.54
-632.181
-632.82
-515.826
-516.599
-517.372
-518.145
-518.918
-519.689
-520.461
-521.231
-522.001
-522.771
-523.54
-524.308
-525.076
-525.844
-526.61
-527.377
-528.142
-528.907
-529.672
-530.436
-531.199
-531.961
-532.724
-533.485
-534.246
-535.006
-535.766
-536.525
-537.283
-538.041
-538.798
-539.555
-540.311
-541.066
-541.821
-542.575
-543.328
-544.081
-544.833
-545.585
-546.336
-547.086
-547.835
-548.584
-549.332
-550.08
-550.826
-551.572
-552.318
-553.062
-553.806
-554.55
-555.292
-556.034
-556.775
-557.516
-558.255
-558.994
-559.733
-560.47
-561.207
-561.943
-562.678
-563.413
-564.147
-564.88
-565.612
-566.344
-567.075
-567.805
-568.534
-569.262
-569.99