/*--------------------------------*- C++ -*----------------------------------*\
| =========                 |                                                 |
| \\      /  F ield         | OpenFOAM: The Open Source CFD Toolbox           |
|  \\    /   O peration     | Version:  2512                                  |
|   \\  /    A nd           | Website:  www.openfoam.com                      |
|    \\/     M anipulation  |                                                 |
\*---------------------------------------------------------------------------*/
FoamFile
{
    version     2.0;
    format      ascii;
    arch        "LSB;label=32;scalar=64";
    class       volScalarField;
    location    "0.1";
    object      pB;
}
// * * * * * * * * * * * * * * * * * * * * * * * * * * * * * * * * * * * * * //

dimensions      [1 1 -3 0 0 -1 0];

internalField   nonuniform List<scalar> 
8334
(
-14.6293
-14.6838
-14.7363
-14.7866
-14.8348
-14.8809
-14.9249
-14.9668
-15.0066
-15.0441
-15.0796
-15.113
-15.1443
-15.1736
-15.2008
-15.2261
-15.2494
-15.2709
-15.2906
-15.3085
-15.3248
-15.3394
-15.3525
-15.3641
-15.3744
-15.3833
-15.3911
-15.3977
-15.4033
-15.408
-15.4119
-15.4151
-15.4178
-15.4199
-15.4217
-15.4233
-15.4247
-15.426
-15.4274
-15.4289
-15.4306
-15.4326
-15.4349
-15.4375
-15.4405
-15.4439
-15.4478
-15.4521
-15.4569
-15.4621
-15.4678
-15.4739
-15.4804
-15.4874
-15.4947
-15.5025
-15.5106
-15.519
-15.5278
-15.5368
-15.5462
-15.5558
-15.5656
-15.5757
-15.5859
-15.5963
-15.6069
-15.6176
-15.6284
-15.6394
-15.6504
-15.6615
-15.6726
-15.6838
-15.695
-15.7062
-15.7174
-15.7286
-15.7398
-15.751
-15.7621
-15.7731
-15.7841
-15.7951
-15.8059
-15.8167
-15.8274
-15.838
-15.8484
-15.8588
-15.8691
-15.8792
-15.8893
-15.8992
-15.909
-15.9186
-15.9282
-15.9376
-15.9468
-15.9559
-15.9649
-15.9738
-15.9825
-15.991
-15.9995
-16.0077
-16.0159
-16.0239
-16.0317
-16.0394
-16.0469
-16.0543
-16.0615
-16.0685
-16.0754
-16.0821
-16.0887
-16.095
-16.1012
-16.1072
-16.1129
-16.1185
-16.1238
-16.1288
-16.1335
-16.138
-16.1421
-16.1459
-16.1492
-16.1521
-16.1545
-16.1564
-16.1577
-16.1582
-16.158
-16.157
-16.155
-16.1519
-16.1476
-16.142
-16.1348
-16.1259
-16.115
-16.102
-16.0865
-16.0683
-16.047
-16.0222
-15.9936
-15.9606
-15.9227
-15.8794
-15.83
-15.7737
-15.7098
-15.6374
-15.5555
-15.463
-15.3586
-15.2411
-15.1089
-14.9605
-14.794
-14.6074
-14.3985
-14.1648
-13.9037
-13.6122
-13.2871
-12.9248
-12.5214
-12.0724
-11.5731
-11.0184
-10.4023
-9.7186
-8.96024
-8.11943
-7.1877
-6.1554
-5.0119
-3.74557
-2.3421
-0.826151
-14.6528
-14.7052
-14.7555
-14.8037
-14.8498
-14.8937
-14.9356
-14.9753
-15.0129
-15.0483
-15.0817
-15.1129
-15.1422
-15.1694
-15.1946
-15.2179
-15.2394
-15.259
-15.2769
-15.2932
-15.3078
-15.3208
-15.3325
-15.3427
-15.3516
-15.3593
-15.366
-15.3716
-15.3763
-15.3801
-15.3833
-15.386
-15.3881
-15.3899
-15.3914
-15.3928
-15.3942
-15.3956
-15.397
-15.3987
-15.4007
-15.4029
-15.4055
-15.4085
-15.4119
-15.4158
-15.4201
-15.4248
-15.43
-15.4357
-15.4418
-15.4483
-15.4552
-15.4626
-15.4703
-15.4783
-15.4868
-15.4955
-15.5045
-15.5138
-15.5234
-15.5332
-15.5432
-15.5535
-15.5639
-15.5744
-15.5851
-15.5959
-15.6068
-15.6178
-15.6288
-15.64
-15.6511
-15.6623
-15.6735
-15.6847
-15.6958
-15.707
-15.7181
-15.7292
-15.7402
-15.7512
-15.7621
-15.7729
-15.7837
-15.7943
-15.8049
-15.8153
-15.8257
-15.8359
-15.846
-15.8561
-15.8659
-15.8757
-15.8853
-15.8948
-15.9042
-15.9134
-15.9225
-15.9315
-15.9403
-15.949
-15.9576
-15.966
-15.9742
-15.9823
-15.9903
-15.9981
-16.0057
-16.0133
-16.0206
-16.0278
-16.0348
-16.0417
-16.0484
-16.0549
-16.0613
-16.0674
-16.0734
-16.0791
-16.0847
-16.0899
-16.095
-16.0997
-16.1041
-16.1083
-16.112
-16.1153
-16.1183
-16.1207
-16.1225
-16.1238
-16.1244
-16.1242
-16.1232
-16.1212
-16.1181
-16.1138
-16.1082
-16.101
-16.0922
-16.0814
-16.0684
-16.053
-16.0348
-16.0136
-15.9889
-15.9603
-15.9275
-15.8897
-15.8465
-15.7972
-15.7411
-15.6773
-15.6051
-15.5234
-15.4311
-15.3269
-15.2097
-15.0779
-14.9297
-14.7636
-14.5773
-14.3688
-14.1356
-13.8751
-13.5841
-13.2596
-12.898
-12.4952
-12.047
-11.5486
-10.9948
-10.3797
-9.69708
-8.93988
-8.10035
-7.16999
-6.13919
-4.99735
-3.73267
-2.33055
-0.818242
-14.601
-14.6533
-14.7036
-14.7517
-14.7977
-14.8416
-14.8834
-14.9231
-14.9606
-14.996
-15.0293
-15.0605
-15.0897
-15.1168
-15.142
-15.1653
-15.1867
-15.2063
-15.2242
-15.2404
-15.2549
-15.268
-15.2795
-15.2897
-15.2986
-15.3063
-15.3129
-15.3185
-15.3231
-15.327
-15.3302
-15.3328
-15.3349
-15.3367
-15.3382
-15.3396
-15.3409
-15.3422
-15.3437
-15.3454
-15.3473
-15.3495
-15.3521
-15.355
-15.3584
-15.3622
-15.3665
-15.3712
-15.3764
-15.382
-15.3881
-15.3945
-15.4014
-15.4087
-15.4164
-15.4244
-15.4328
-15.4415
-15.4505
-15.4597
-15.4693
-15.479
-15.489
-15.4992
-15.5095
-15.52
-15.5307
-15.5414
-15.5523
-15.5632
-15.5742
-15.5853
-15.5964
-15.6075
-15.6187
-15.6298
-15.6409
-15.652
-15.6631
-15.6742
-15.6851
-15.6961
-15.7069
-15.7177
-15.7284
-15.739
-15.7495
-15.7599
-15.7702
-15.7804
-15.7905
-15.8005
-15.8103
-15.82
-15.8296
-15.8391
-15.8484
-15.8576
-15.8667
-15.8756
-15.8844
-15.893
-15.9015
-15.9099
-15.9181
-15.9262
-15.9341
-15.9419
-15.9495
-15.957
-15.9643
-15.9715
-15.9785
-15.9853
-15.992
-15.9985
-16.0048
-16.0109
-16.0169
-16.0226
-16.0281
-16.0333
-16.0383
-16.0431
-16.0475
-16.0516
-16.0554
-16.0587
-16.0616
-16.064
-16.0659
-16.0672
-16.0678
-16.0676
-16.0666
-16.0646
-16.0616
-16.0574
-16.0518
-16.0447
-16.0359
-16.0252
-16.0123
-15.997
-15.9789
-15.9578
-15.9333
-15.9049
-15.8722
-15.8346
-15.7916
-15.7426
-15.6868
-15.6233
-15.5514
-15.4701
-15.3782
-15.2745
-15.1578
-15.0265
-14.879
-14.7135
-14.528
-14.3203
-14.088
-13.8284
-13.5385
-13.2152
-12.8548
-12.4534
-12.0067
-11.5099
-10.9578
-10.3447
-9.66413
-8.90919
-8.07213
-7.14443
-6.11656
-4.97794
-3.71671
-2.31852
-0.812197
-14.5764
-14.6265
-14.6746
-14.7206
-14.7644
-14.8061
-14.8457
-14.8831
-14.9184
-14.9517
-14.9828
-15.0119
-15.039
-15.0641
-15.0873
-15.1086
-15.1282
-15.146
-15.1621
-15.1766
-15.1896
-15.2011
-15.2112
-15.2201
-15.2277
-15.2343
-15.2398
-15.2444
-15.2482
-15.2514
-15.2539
-15.256
-15.2578
-15.2592
-15.2606
-15.2618
-15.2632
-15.2646
-15.2662
-15.2681
-15.2703
-15.2728
-15.2757
-15.2791
-15.2828
-15.2871
-15.2917
-15.2968
-15.3024
-15.3084
-15.3148
-15.3217
-15.3289
-15.3365
-15.3445
-15.3528
-15.3614
-15.3703
-15.3795
-15.389
-15.3987
-15.4086
-15.4187
-15.429
-15.4394
-15.45
-15.4607
-15.4714
-15.4823
-15.4933
-15.5043
-15.5153
-15.5264
-15.5374
-15.5485
-15.5596
-15.5706
-15.5816
-15.5926
-15.6035
-15.6143
-15.6251
-15.6358
-15.6464
-15.657
-15.6674
-15.6778
-15.688
-15.6981
-15.7082
-15.7181
-15.7278
-15.7375
-15.747
-15.7564
-15.7657
-15.7748
-15.7838
-15.7927
-15.8014
-15.81
-15.8185
-15.8268
-15.8349
-15.843
-15.8508
-15.8586
-15.8661
-15.8736
-15.8808
-15.8879
-15.8949
-15.9017
-15.9083
-15.9148
-15.9211
-15.9272
-15.9331
-15.9388
-15.9442
-15.9495
-15.9545
-15.9592
-15.9636
-15.9677
-15.9714
-15.9747
-15.9776
-15.9801
-15.9819
-15.9832
-15.9839
-15.9837
-15.9828
-15.9808
-15.9779
-15.9737
-15.9682
-15.9612
-15.9525
-15.9419
-15.9292
-15.914
-15.8962
-15.8753
-15.8509
-15.8228
-15.7904
-15.7531
-15.7105
-15.6619
-15.6065
-15.5435
-15.4722
-15.3914
-15.3001
-15.1972
-15.0813
-14.9508
-14.8043
-14.6398
-14.4555
-14.249
-14.0181
-13.76
-13.4717
-13.1502
-12.7917
-12.3924
-11.948
-11.4538
-10.9044
-10.2943
-9.61695
-8.86553
-8.03229
-7.10875
-6.08542
-4.9518
-3.69602
-2.3042
-0.806156
-14.525
-14.573
-14.6189
-14.6627
-14.7043
-14.7437
-14.781
-14.8162
-14.8494
-14.8804
-14.9094
-14.9364
-14.9614
-14.9845
-15.0057
-15.0252
-15.0429
-15.0589
-15.0734
-15.0863
-15.0977
-15.1078
-15.1166
-15.1241
-15.1306
-15.1361
-15.1407
-15.1444
-15.1475
-15.15
-15.152
-15.1537
-15.1552
-15.1564
-15.1577
-15.1589
-15.1603
-15.1619
-15.1637
-15.1658
-15.1683
-15.1712
-15.1744
-15.1782
-15.1823
-15.1869
-15.192
-15.1974
-15.2034
-15.2097
-15.2165
-15.2236
-15.2312
-15.2391
-15.2473
-15.2558
-15.2647
-15.2738
-15.2832
-15.2928
-15.3026
-15.3126
-15.3228
-15.3331
-15.3436
-15.3542
-15.3649
-15.3757
-15.3865
-15.3974
-15.4084
-15.4193
-15.4303
-15.4413
-15.4523
-15.4632
-15.4741
-15.485
-15.4958
-15.5066
-15.5173
-15.5279
-15.5384
-15.5489
-15.5592
-15.5695
-15.5797
-15.5897
-15.5996
-15.6095
-15.6191
-15.6287
-15.6382
-15.6475
-15.6567
-15.6657
-15.6747
-15.6834
-15.6921
-15.7006
-15.709
-15.7172
-15.7253
-15.7333
-15.7411
-15.7487
-15.7562
-15.7636
-15.7708
-15.7779
-15.7848
-15.7915
-15.7981
-15.8045
-15.8107
-15.8168
-15.8226
-15.8283
-15.8337
-15.8389
-15.8439
-15.8486
-15.8529
-15.857
-15.8607
-15.8641
-15.867
-15.8694
-15.8713
-15.8726
-15.8733
-15.8732
-15.8723
-15.8704
-15.8676
-15.8635
-15.8581
-15.8512
-15.8427
-15.8322
-15.8197
-15.8048
-15.7871
-15.7665
-15.7425
-15.7147
-15.6827
-15.6459
-15.6037
-15.5556
-15.5008
-15.4385
-15.3679
-15.2879
-15.1975
-15.0955
-14.9807
-14.8514
-14.7061
-14.5431
-14.3603
-14.1555
-13.9264
-13.6703
-13.3843
-13.0651
-12.7093
-12.3129
-11.8716
-11.3808
-10.8351
-10.229
-9.556
-8.80932
-7.98123
-7.06329
-6.04608
-4.91917
-3.6708
-2.28753
-0.79975
-14.4475
-14.4933
-14.5369
-14.5783
-14.6177
-14.6548
-14.6899
-14.7229
-14.7538
-14.7826
-14.8095
-14.8344
-14.8574
-14.8785
-14.8979
-14.9155
-14.9314
-14.9457
-14.9585
-14.9699
-14.9799
-14.9886
-14.9961
-15.0025
-15.0079
-15.0124
-15.0161
-15.0191
-15.0215
-15.0235
-15.0251
-15.0265
-15.0277
-15.0288
-15.03
-15.0314
-15.0329
-15.0346
-15.0367
-15.0391
-15.0419
-15.0451
-15.0487
-15.0528
-15.0573
-15.0623
-15.0677
-15.0735
-15.0798
-15.0865
-15.0935
-15.101
-15.1088
-15.1169
-15.1253
-15.1341
-15.1431
-15.1523
-15.1618
-15.1716
-15.1815
-15.1915
-15.2018
-15.2121
-15.2226
-15.2332
-15.2439
-15.2546
-15.2654
-15.2762
-15.2871
-15.2979
-15.3088
-15.3196
-15.3305
-15.3413
-15.352
-15.3627
-15.3734
-15.384
-15.3945
-15.4049
-15.4153
-15.4255
-15.4357
-15.4457
-15.4556
-15.4655
-15.4752
-15.4848
-15.4942
-15.5036
-15.5128
-15.5219
-15.5309
-15.5397
-15.5484
-15.5569
-15.5654
-15.5736
-15.5818
-15.5898
-15.5976
-15.6054
-15.6129
-15.6204
-15.6277
-15.6348
-15.6418
-15.6486
-15.6553
-15.6618
-15.6681
-15.6743
-15.6803
-15.6861
-15.6917
-15.6971
-15.7023
-15.7072
-15.7118
-15.7162
-15.7202
-15.724
-15.7273
-15.7302
-15.7326
-15.7346
-15.7359
-15.7366
-15.7366
-15.7358
-15.734
-15.7312
-15.7273
-15.722
-15.7153
-15.707
-15.6967
-15.6844
-15.6698
-15.6525
-15.6322
-15.6086
-15.5812
-15.5497
-15.5134
-15.4719
-15.4244
-15.3703
-15.3089
-15.2391
-15.1602
-15.0709
-14.9701
-14.8566
-14.7288
-14.5851
-14.4238
-14.243
-14.0403
-13.8136
-13.56
-13.2768
-12.9606
-12.6081
-12.2153
-11.7779
-11.2913
-10.7503
-10.1492
-9.48167
-8.74092
-7.91928
-7.00836
-5.9988
-4.88028
-3.64117
-2.26845
-0.792766
-14.2985
-14.3441
-14.3876
-14.4289
-14.468
-14.5051
-14.54
-14.5728
-14.6035
-14.6322
-14.6589
-14.6837
-14.7065
-14.7275
-14.7467
-14.7642
-14.78
-14.7942
-14.8069
-14.8182
-14.8281
-14.8367
-14.8441
-14.8504
-14.8557
-14.8601
-14.8637
-14.8666
-14.869
-14.8709
-14.8724
-14.8737
-14.8748
-14.8759
-14.877
-14.8783
-14.8797
-14.8814
-14.8834
-14.8857
-14.8884
-14.8915
-14.8951
-14.8991
-14.9035
-14.9084
-14.9137
-14.9194
-14.9256
-14.9321
-14.9391
-14.9464
-14.9541
-14.9621
-14.9704
-14.979
-14.9879
-14.9971
-15.0064
-15.016
-15.0258
-15.0357
-15.0458
-15.0561
-15.0664
-15.0769
-15.0874
-15.098
-15.1086
-15.1193
-15.13
-15.1408
-15.1515
-15.1622
-15.1729
-15.1836
-15.1942
-15.2048
-15.2153
-15.2258
-15.2361
-15.2464
-15.2566
-15.2668
-15.2768
-15.2867
-15.2965
-15.3062
-15.3158
-15.3253
-15.3346
-15.3438
-15.353
-15.3619
-15.3708
-15.3795
-15.3881
-15.3965
-15.4048
-15.413
-15.421
-15.4289
-15.4367
-15.4443
-15.4518
-15.4591
-15.4663
-15.4734
-15.4803
-15.487
-15.4936
-15.5
-15.5063
-15.5124
-15.5183
-15.5241
-15.5296
-15.5349
-15.5401
-15.5449
-15.5496
-15.5539
-15.5579
-15.5616
-15.565
-15.5679
-15.5703
-15.5723
-15.5737
-15.5744
-15.5745
-15.5737
-15.5721
-15.5694
-15.5656
-15.5606
-15.5541
-15.5459
-15.536
-15.5239
-15.5096
-15.4927
-15.4728
-15.4497
-15.4229
-15.3919
-15.3563
-15.3155
-15.2688
-15.2157
-15.1552
-15.0865
-15.0088
-14.9208
-14.8215
-14.7096
-14.5835
-14.4418
-14.2827
-14.1041
-13.904
-13.68
-13.4295
-13.1496
-12.8371
-12.4885
-12.1
-11.6674
-11.1859
-10.6504
-10.0553
-9.39433
-8.66069
-7.84677
-6.94424
-5.94383
-4.83532
-3.60725
-2.24694
-0.785089
-14.172
-14.2152
-14.2564
-14.2953
-14.3322
-14.3669
-14.3995
-14.4301
-14.4586
-14.4852
-14.5097
-14.5324
-14.5533
-14.5723
-14.5897
-14.6053
-14.6194
-14.632
-14.6431
-14.6529
-14.6614
-14.6686
-14.6748
-14.68
-14.6844
-14.6879
-14.6907
-14.693
-14.6948
-14.6962
-14.6974
-14.6985
-14.6994
-14.7005
-14.7016
-14.703
-14.7046
-14.7064
-14.7087
-14.7113
-14.7143
-14.7178
-14.7216
-14.7259
-14.7307
-14.7359
-14.7415
-14.7476
-14.754
-14.7608
-14.768
-14.7755
-14.7834
-14.7916
-14.8001
-14.8088
-14.8178
-14.8271
-14.8365
-14.8461
-14.8559
-14.8659
-14.8759
-14.8861
-14.8964
-14.9068
-14.9173
-14.9278
-14.9383
-14.9488
-14.9594
-14.97
-14.9806
-14.9911
-15.0016
-15.0121
-15.0225
-15.0329
-15.0432
-15.0534
-15.0635
-15.0736
-15.0836
-15.0934
-15.1032
-15.1129
-15.1224
-15.1319
-15.1412
-15.1504
-15.1595
-15.1685
-15.1773
-15.186
-15.1946
-15.2031
-15.2114
-15.2196
-15.2276
-15.2355
-15.2433
-15.251
-15.2585
-15.2658
-15.273
-15.2801
-15.2871
-15.2939
-15.3005
-15.307
-15.3134
-15.3196
-15.3256
-15.3314
-15.3371
-15.3426
-15.3478
-15.3529
-15.3577
-15.3623
-15.3666
-15.3706
-15.3743
-15.3777
-15.3806
-15.3831
-15.3851
-15.3865
-15.3873
-15.3875
-15.3868
-15.3853
-15.3828
-15.3792
-15.3743
-15.368
-15.3602
-15.3505
-15.3388
-15.3249
-15.3084
-15.2891
-15.2665
-15.2403
-15.21
-15.1751
-15.1352
-15.0895
-15.0373
-14.978
-14.9106
-14.8343
-14.7479
-14.6503
-14.5402
-14.4162
-14.2768
-14.1201
-13.9442
-13.7471
-13.5264
-13.2794
-13.0034
-12.6951
-12.3511
-11.9676
-11.5404
-11.0649
-10.5358
-9.94772
-9.29437
-8.56897
-7.76401
-6.87121
-5.8814
-4.78447
-3.56913
-2.22301
-0.776663
-14.0204
-14.0613
-14.1001
-14.1368
-14.1713
-14.2037
-14.2341
-14.2624
-14.2887
-14.3131
-14.3356
-14.3563
-14.3752
-14.3923
-14.4079
-14.4218
-14.4342
-14.4452
-14.4548
-14.4632
-14.4703
-14.4764
-14.4815
-14.4857
-14.4891
-14.4918
-14.494
-14.4957
-14.497
-14.4981
-14.499
-14.4999
-14.5009
-14.5019
-14.5032
-14.5046
-14.5064
-14.5085
-14.5111
-14.514
-14.5173
-14.521
-14.5252
-14.5299
-14.5349
-14.5404
-14.5463
-14.5526
-14.5593
-14.5664
-14.5737
-14.5815
-14.5895
-14.5978
-14.6064
-14.6152
-14.6243
-14.6336
-14.643
-14.6527
-14.6624
-14.6723
-14.6824
-14.6925
-14.7027
-14.713
-14.7233
-14.7336
-14.744
-14.7544
-14.7648
-14.7752
-14.7856
-14.7959
-14.8062
-14.8164
-14.8266
-14.8368
-14.8468
-14.8568
-14.8667
-14.8765
-14.8862
-14.8958
-14.9053
-14.9147
-14.924
-14.9332
-14.9422
-14.9511
-14.96
-14.9686
-14.9772
-14.9856
-14.9939
-15.0021
-15.0102
-15.0181
-15.0258
-15.0335
-15.041
-15.0484
-15.0556
-15.0627
-15.0697
-15.0765
-15.0832
-15.0897
-15.0961
-15.1024
-15.1085
-15.1144
-15.1202
-15.1257
-15.1311
-15.1364
-15.1414
-15.1461
-15.1507
-15.155
-15.1589
-15.1626
-15.166
-15.1689
-15.1714
-15.1734
-15.1749
-15.1759
-15.1761
-15.1756
-15.1742
-15.1718
-15.1684
-15.1638
-15.1578
-15.1502
-15.1409
-15.1297
-15.1162
-15.1002
-15.0814
-15.0595
-15.034
-15.0045
-14.9705
-14.9315
-14.8869
-14.8359
-14.7779
-14.712
-14.6372
-14.5526
-14.4569
-14.349
-14.2274
-14.0905
-13.9366
-13.7639
-13.5701
-13.3531
-13.1102
-12.8385
-12.5351
-12.1963
-11.8186
-11.3975
-10.9287
-10.407
-9.82685
-9.18214
-8.4661
-7.67131
-6.78954
-5.81174
-4.72789
-3.52691
-2.19668
-0.76746
-13.8443
-13.8829
-13.9193
-13.9536
-13.9858
-14.0159
-14.044
-14.0701
-14.0943
-14.1166
-14.1371
-14.1558
-14.1728
-14.1881
-14.2019
-14.2141
-14.2249
-14.2344
-14.2426
-14.2497
-14.2556
-14.2605
-14.2646
-14.2679
-14.2705
-14.2725
-14.2741
-14.2753
-14.2763
-14.2771
-14.2779
-14.2787
-14.2797
-14.2808
-14.2822
-14.2838
-14.2858
-14.2882
-14.291
-14.2942
-14.2978
-14.3019
-14.3064
-14.3113
-14.3167
-14.3224
-14.3286
-14.3351
-14.342
-14.3492
-14.3567
-14.3646
-14.3727
-14.3812
-14.3898
-14.3987
-14.4078
-14.417
-14.4265
-14.4361
-14.4458
-14.4556
-14.4655
-14.4755
-14.4856
-14.4958
-14.5059
-14.5161
-14.5263
-14.5365
-14.5467
-14.5569
-14.567
-14.5771
-14.5872
-14.5972
-14.6071
-14.617
-14.6268
-14.6365
-14.6461
-14.6556
-14.665
-14.6744
-14.6836
-14.6927
-14.7017
-14.7105
-14.7193
-14.7279
-14.7365
-14.7449
-14.7531
-14.7613
-14.7693
-14.7772
-14.7849
-14.7925
-14.8
-14.8074
-14.8146
-14.8217
-14.8287
-14.8355
-14.8422
-14.8488
-14.8552
-14.8615
-14.8676
-14.8736
-14.8794
-14.8851
-14.8906
-14.8959
-14.9011
-14.906
-14.9107
-14.9152
-14.9195
-14.9234
-14.9271
-14.9304
-14.9334
-14.9359
-14.938
-14.9396
-14.9406
-14.9409
-14.9406
-14.9393
-14.9372
-14.934
-14.9297
-14.924
-14.9168
-14.9078
-14.897
-14.884
-14.8686
-14.8505
-14.8292
-14.8045
-14.7759
-14.7429
-14.705
-14.6616
-14.612
-14.5555
-14.4912
-14.4182
-14.3356
-14.2421
-14.1365
-14.0175
-13.8835
-13.7328
-13.5636
-13.3736
-13.1607
-12.9223
-12.6556
-12.3575
-12.0246
-11.6532
-11.2391
-10.7778
-10.2643
-9.69306
-9.05798
-8.3524
-7.56894
-6.69948
-5.73505
-4.66576
-3.4807
-2.16796
-0.757476
-13.6059
-13.6442
-13.6803
-13.7144
-13.7463
-13.7762
-13.804
-13.8299
-13.8538
-13.8759
-13.8962
-13.9147
-13.9314
-13.9466
-13.9602
-13.9722
-13.9829
-13.9922
-14.0003
-14.0071
-14.0129
-14.0177
-14.0217
-14.0248
-14.0273
-14.0292
-14.0306
-14.0317
-14.0326
-14.0333
-14.0339
-14.0346
-14.0355
-14.0364
-14.0377
-14.0392
-14.0411
-14.0434
-14.046
-14.0491
-14.0526
-14.0565
-14.0608
-14.0656
-14.0708
-14.0764
-14.0823
-14.0887
-14.0954
-14.1024
-14.1098
-14.1175
-14.1254
-14.1336
-14.1421
-14.1508
-14.1597
-14.1687
-14.1779
-14.1873
-14.1968
-14.2065
-14.2162
-14.226
-14.2358
-14.2457
-14.2557
-14.2657
-14.2757
-14.2856
-14.2956
-14.3056
-14.3155
-14.3254
-14.3352
-14.345
-14.3548
-14.3644
-14.374
-14.3835
-14.3929
-14.4022
-14.4115
-14.4206
-14.4296
-14.4385
-14.4473
-14.456
-14.4646
-14.473
-14.4813
-14.4895
-14.4976
-14.5056
-14.5134
-14.5211
-14.5287
-14.5362
-14.5435
-14.5507
-14.5578
-14.5647
-14.5716
-14.5782
-14.5848
-14.5912
-14.5975
-14.6037
-14.6097
-14.6155
-14.6213
-14.6268
-14.6322
-14.6375
-14.6425
-14.6474
-14.6521
-14.6565
-14.6607
-14.6647
-14.6683
-14.6717
-14.6746
-14.6772
-14.6794
-14.681
-14.6821
-14.6826
-14.6824
-14.6813
-14.6794
-14.6765
-14.6724
-14.6671
-14.6603
-14.6518
-14.6415
-14.6291
-14.6143
-14.5968
-14.5764
-14.5526
-14.5249
-14.493
-14.4564
-14.4143
-14.3661
-14.3112
-14.2488
-14.1778
-14.0973
-14.0062
-13.9034
-13.7873
-13.6564
-13.5092
-13.3438
-13.158
-12.9497
-12.7163
-12.455
-12.1629
-11.8365
-11.4721
-11.0657
-10.6127
-10.1082
-9.54671
-8.92225
-8.22818
-7.4572
-6.60128
-5.65153
-4.59823
-3.43059
-2.13692
-0.746714
-13.3845
-13.4204
-13.4541
-13.4858
-13.5153
-13.5429
-13.5685
-13.5922
-13.6141
-13.6341
-13.6524
-13.6689
-13.6839
-13.6972
-13.7091
-13.7196
-13.7287
-13.7366
-13.7433
-13.749
-13.7536
-13.7574
-13.7604
-13.7627
-13.7645
-13.7658
-13.7667
-13.7674
-13.768
-13.7685
-13.7691
-13.7698
-13.7706
-13.7717
-13.7731
-13.7749
-13.777
-13.7795
-13.7824
-13.7857
-13.7895
-13.7937
-13.7983
-13.8033
-13.8087
-13.8145
-13.8206
-13.8271
-13.834
-13.8412
-13.8486
-13.8564
-13.8644
-13.8726
-13.8811
-13.8898
-13.8986
-13.9076
-13.9168
-13.926
-13.9354
-13.9449
-13.9545
-13.9641
-13.9738
-13.9835
-13.9933
-14.003
-14.0128
-14.0225
-14.0322
-14.0419
-14.0516
-14.0612
-14.0708
-14.0803
-14.0897
-14.0991
-14.1083
-14.1175
-14.1266
-14.1356
-14.1445
-14.1533
-14.162
-14.1706
-14.1791
-14.1874
-14.1957
-14.2038
-14.2118
-14.2197
-14.2275
-14.2351
-14.2427
-14.2501
-14.2573
-14.2645
-14.2715
-14.2784
-14.2852
-14.2919
-14.2984
-14.3048
-14.3111
-14.3172
-14.3232
-14.3291
-14.3349
-14.3405
-14.3459
-14.3512
-14.3564
-14.3613
-14.3661
-14.3707
-14.3751
-14.3793
-14.3832
-14.3869
-14.3902
-14.3932
-14.3959
-14.3981
-14.3998
-14.401
-14.4016
-14.4016
-14.4008
-14.3991
-14.3965
-14.3927
-14.3877
-14.3814
-14.3734
-14.3636
-14.3518
-14.3377
-14.3211
-14.3015
-14.2786
-14.2521
-14.2214
-14.186
-14.1454
-14.0989
-14.0458
-13.9853
-13.9165
-13.8384
-13.75
-13.65
-13.5371
-13.4097
-13.2664
-13.1051
-12.9239
-12.7206
-12.4926
-12.2373
-11.9516
-11.6323
-11.2756
-10.8775
-10.4336
-9.93894
-9.38814
-8.77526
-8.09374
-7.33635
-6.49516
-5.56139
-4.52543
-3.37667
-2.10359
-0.735185
-13.1399
-13.1734
-13.2047
-13.234
-13.2613
-13.2866
-13.31
-13.3316
-13.3514
-13.3694
-13.3857
-13.4004
-13.4136
-13.4253
-13.4356
-13.4445
-13.4522
-13.4587
-13.4642
-13.4687
-13.4723
-13.4751
-13.4773
-13.4789
-13.48
-13.4809
-13.4814
-13.4818
-13.4822
-13.4826
-13.4832
-13.4839
-13.4848
-13.4861
-13.4877
-13.4896
-13.492
-13.4947
-13.4979
-13.5015
-13.5055
-13.5099
-13.5147
-13.5199
-13.5255
-13.5315
-13.5378
-13.5444
-13.5514
-13.5586
-13.5662
-13.5739
-13.582
-13.5902
-13.5986
-13.6072
-13.616
-13.6249
-13.6339
-13.6431
-13.6523
-13.6616
-13.671
-13.6804
-13.6899
-13.6994
-13.7089
-13.7184
-13.7279
-13.7374
-13.7468
-13.7563
-13.7656
-13.7749
-13.7842
-13.7934
-13.8025
-13.8115
-13.8205
-13.8293
-13.8381
-13.8468
-13.8553
-13.8638
-13.8722
-13.8804
-13.8886
-13.8966
-13.9045
-13.9123
-13.92
-13.9275
-13.935
-13.9423
-13.9495
-13.9566
-13.9635
-13.9704
-13.9771
-13.9837
-13.9902
-13.9965
-14.0028
-14.0089
-14.0149
-14.0207
-14.0265
-14.0321
-14.0376
-14.0429
-14.0481
-14.0532
-14.0581
-14.0628
-14.0673
-14.0717
-14.0758
-14.0797
-14.0833
-14.0867
-14.0897
-14.0924
-14.0947
-14.0965
-14.0979
-14.0986
-14.0988
-14.0982
-14.0968
-14.0945
-14.0911
-14.0865
-14.0806
-14.0732
-14.064
-14.0529
-14.0395
-14.0237
-14.0051
-13.9833
-13.9579
-13.9285
-13.8946
-13.8556
-13.8108
-13.7597
-13.7013
-13.6349
-13.5594
-13.4738
-13.377
-13.2675
-13.144
-13.0047
-12.848
-12.6717
-12.4738
-12.2518
-12.0029
-11.7242
-11.4125
-11.0641
-10.6751
-10.241
-9.75697
-9.21772
-8.61735
-7.94937
-7.20666
-6.38136
-5.46481
-4.44753
-3.31905
-2.06802
-0.722903
-12.8395
-12.8726
-12.9036
-12.9326
-12.9596
-12.9846
-13.0077
-13.029
-13.0486
-13.0663
-13.0824
-13.0969
-13.1098
-13.1212
-13.1313
-13.14
-13.1475
-13.1539
-13.1592
-13.1635
-13.1669
-13.1696
-13.1716
-13.173
-13.174
-13.1746
-13.175
-13.1753
-13.1755
-13.1758
-13.1762
-13.1767
-13.1775
-13.1786
-13.1801
-13.1818
-13.184
-13.1866
-13.1896
-13.193
-13.1968
-13.201
-13.2057
-13.2107
-13.2161
-13.2218
-13.2279
-13.2343
-13.241
-13.248
-13.2553
-13.2629
-13.2706
-13.2786
-13.2868
-13.2951
-13.3036
-13.3123
-13.3211
-13.3299
-13.3389
-13.348
-13.3571
-13.3663
-13.3755
-13.3847
-13.3939
-13.4032
-13.4124
-13.4216
-13.4308
-13.4399
-13.449
-13.4581
-13.4671
-13.476
-13.4848
-13.4936
-13.5023
-13.5109
-13.5194
-13.5279
-13.5362
-13.5444
-13.5525
-13.5605
-13.5684
-13.5762
-13.5839
-13.5915
-13.5989
-13.6062
-13.6135
-13.6206
-13.6276
-13.6344
-13.6412
-13.6478
-13.6544
-13.6608
-13.6671
-13.6732
-13.6793
-13.6853
-13.6911
-13.6968
-13.7024
-13.7079
-13.7132
-13.7184
-13.7235
-13.7285
-13.7332
-13.7379
-13.7424
-13.7466
-13.7507
-13.7546
-13.7582
-13.7616
-13.7647
-13.7674
-13.7698
-13.7717
-13.7732
-13.7742
-13.7745
-13.7742
-13.7731
-13.7711
-13.7681
-13.764
-13.7586
-13.7517
-13.7432
-13.7328
-13.7203
-13.7054
-13.6878
-13.6671
-13.643
-13.615
-13.5826
-13.5453
-13.5025
-13.4534
-13.3974
-13.3335
-13.2608
-13.1783
-13.0848
-12.9791
-12.8596
-12.7248
-12.5729
-12.402
-12.2099
-11.9942
-11.7523
-11.4811
-11.1776
-10.8382
-10.4588
-10.0352
-9.56265
-9.03578
-8.44882
-7.79537
-7.06838
-6.2601
-5.36198
-4.36466
-3.25782
-2.03027
-0.709884
-12.5523
-12.583
-12.6116
-12.6383
-12.6631
-12.6859
-12.7069
-12.7261
-12.7436
-12.7594
-12.7736
-12.7863
-12.7975
-12.8073
-12.8159
-12.8232
-12.8293
-12.8344
-12.8385
-12.8418
-12.8442
-12.8461
-12.8473
-12.8481
-12.8486
-12.8488
-12.8489
-12.849
-12.8491
-12.8493
-12.8497
-12.8503
-12.8513
-12.8525
-12.8541
-12.8562
-12.8585
-12.8614
-12.8646
-12.8682
-12.8722
-12.8766
-12.8814
-12.8866
-12.8921
-12.8979
-12.9041
-12.9106
-12.9174
-12.9244
-12.9317
-12.9392
-12.9469
-12.9548
-12.9629
-12.9711
-12.9795
-12.988
-12.9966
-13.0053
-13.0141
-13.0229
-13.0318
-13.0407
-13.0496
-13.0586
-13.0675
-13.0765
-13.0854
-13.0943
-13.1032
-13.112
-13.1208
-13.1295
-13.1381
-13.1467
-13.1552
-13.1636
-13.172
-13.1802
-13.1884
-13.1964
-13.2044
-13.2122
-13.22
-13.2276
-13.2352
-13.2426
-13.2499
-13.2571
-13.2642
-13.2712
-13.2781
-13.2849
-13.2915
-13.2981
-13.3045
-13.3108
-13.317
-13.3231
-13.3291
-13.335
-13.3407
-13.3464
-13.3519
-13.3574
-13.3627
-13.3679
-13.373
-13.378
-13.3828
-13.3875
-13.392
-13.3964
-13.4007
-13.4047
-13.4086
-13.4122
-13.4156
-13.4187
-13.4215
-13.424
-13.426
-13.4277
-13.4288
-13.4294
-13.4293
-13.4285
-13.4269
-13.4243
-13.4207
-13.4158
-13.4096
-13.4018
-13.3921
-13.3805
-13.3666
-13.3501
-13.3306
-13.3079
-13.2814
-13.2507
-13.2152
-13.1744
-13.1276
-13.074
-13.0129
-12.9432
-12.864
-12.7741
-12.6723
-12.5572
-12.4272
-12.2805
-12.1153
-11.9294
-11.7204
-11.4859
-11.2228
-10.9281
-10.5981
-10.2291
-9.81674
-9.35633
-8.84265
-8.26998
-7.63201
-6.92176
-6.13159
-5.25307
-4.27695
-3.19307
-1.99039
-0.696146
-12.2434
-12.2717
-12.2981
-12.3225
-12.345
-12.3657
-12.3846
-12.4018
-12.4173
-12.4312
-12.4437
-12.4546
-12.4642
-12.4725
-12.4796
-12.4855
-12.4904
-12.4943
-12.4974
-12.4997
-12.5013
-12.5024
-12.503
-12.5033
-12.5034
-12.5033
-12.5032
-12.5031
-12.5031
-12.5033
-12.5038
-12.5046
-12.5056
-12.5071
-12.5089
-12.5111
-12.5137
-12.5167
-12.5201
-12.5239
-12.5281
-12.5327
-12.5376
-12.5429
-12.5485
-12.5544
-12.5606
-12.5672
-12.5739
-12.5809
-12.5882
-12.5956
-12.6032
-12.611
-12.619
-12.627
-12.6352
-12.6436
-12.652
-12.6604
-12.669
-12.6775
-12.6862
-12.6948
-12.7034
-12.7121
-12.7207
-12.7294
-12.738
-12.7465
-12.7551
-12.7635
-12.7719
-12.7803
-12.7886
-12.7968
-12.8049
-12.813
-12.8209
-12.8288
-12.8366
-12.8443
-12.8519
-12.8593
-12.8667
-12.874
-12.8812
-12.8882
-12.8952
-12.902
-12.9088
-12.9154
-12.9219
-12.9284
-12.9347
-12.9409
-12.947
-12.953
-12.9589
-12.9646
-12.9703
-12.9759
-12.9814
-12.9867
-12.992
-12.9972
-13.0022
-13.0072
-13.012
-13.0168
-13.0213
-13.0258
-13.0301
-13.0343
-13.0383
-13.0421
-13.0458
-13.0492
-13.0523
-13.0552
-13.0578
-13.06
-13.0618
-13.0631
-13.064
-13.0642
-13.0637
-13.0625
-13.0604
-13.0572
-13.053
-13.0474
-13.0403
-13.0315
-13.0208
-13.008
-12.9926
-12.9745
-12.9532
-12.9283
-12.8993
-12.8658
-12.8272
-12.7828
-12.7318
-12.6736
-12.6071
-12.5314
-12.4454
-12.3478
-12.2373
-12.1123
-11.9711
-11.812
-11.6326
-11.4309
-11.2042
-10.9496
-10.6642
-10.3443
-9.9863
-9.58585
-9.13834
-8.63866
-8.08114
-7.45956
-6.76705
-5.99605
-5.13826
-4.18455
-3.12491
-1.94844
-0.681707
-11.9133
-11.9393
-11.9634
-11.9855
-12.0059
-12.0245
-12.0413
-12.0566
-12.0703
-12.0824
-12.0931
-12.1025
-12.1105
-12.1174
-12.1231
-12.1277
-12.1315
-12.1343
-12.1364
-12.1378
-12.1387
-12.1392
-12.1393
-12.1391
-12.1389
-12.1385
-12.1383
-12.1381
-12.1382
-12.1385
-12.139
-12.1399
-12.1412
-12.1428
-12.1448
-12.1472
-12.15
-12.1532
-12.1568
-12.1607
-12.1651
-12.1697
-12.1748
-12.1801
-12.1858
-12.1917
-12.198
-12.2044
-12.2112
-12.2181
-12.2252
-12.2326
-12.2401
-12.2477
-12.2555
-12.2634
-12.2714
-12.2795
-12.2876
-12.2958
-12.3041
-12.3124
-12.3207
-12.3291
-12.3374
-12.3457
-12.354
-12.3623
-12.3706
-12.3788
-12.3869
-12.395
-12.4031
-12.4111
-12.419
-12.4268
-12.4346
-12.4422
-12.4498
-12.4573
-12.4647
-12.472
-12.4792
-12.4863
-12.4933
-12.5002
-12.5069
-12.5136
-12.5202
-12.5267
-12.5331
-12.5394
-12.5455
-12.5516
-12.5576
-12.5634
-12.5692
-12.5749
-12.5804
-12.5859
-12.5913
-12.5966
-12.6018
-12.6069
-12.6119
-12.6168
-12.6216
-12.6263
-12.6309
-12.6354
-12.6398
-12.644
-12.6481
-12.6521
-12.6559
-12.6595
-12.663
-12.6662
-12.6691
-12.6718
-12.6742
-12.6761
-12.6777
-12.6788
-12.6793
-12.6792
-12.6784
-12.6768
-12.6742
-12.6705
-12.6656
-12.6594
-12.6515
-12.6418
-12.63
-12.6159
-12.5992
-12.5794
-12.5562
-12.5291
-12.4977
-12.4614
-12.4195
-12.3713
-12.3161
-12.253
-12.181
-12.0991
-12.0059
-11.9003
-11.7807
-11.6454
-11.4926
-11.3202
-11.1261
-10.9076
-10.6621
-10.3865
-10.0773
-9.73081
-9.34293
-8.90905
-8.42412
-7.88258
-7.27829
-6.60447
-5.85367
-5.01771
-4.08758
-3.05342
-1.90447
-0.666585
-11.537
-11.5626
-11.5863
-11.6081
-11.6281
-11.6463
-11.6629
-11.6778
-11.6912
-11.7031
-11.7135
-11.7226
-11.7304
-11.737
-11.7425
-11.7469
-11.7504
-11.7531
-11.7549
-11.7562
-11.7569
-11.7571
-11.757
-11.7567
-11.7562
-11.7557
-11.7552
-11.7549
-11.7548
-11.7548
-11.7552
-11.7559
-11.757
-11.7584
-11.7602
-11.7624
-11.765
-11.7679
-11.7713
-11.775
-11.779
-11.7835
-11.7882
-11.7933
-11.7987
-11.8044
-11.8103
-11.8165
-11.8229
-11.8296
-11.8364
-11.8434
-11.8506
-11.8579
-11.8654
-11.8729
-11.8806
-11.8884
-11.8962
-11.9041
-11.912
-11.92
-11.928
-11.936
-11.944
-11.952
-11.96
-11.9679
-11.9758
-11.9837
-11.9916
-11.9993
-12.0071
-12.0147
-12.0223
-12.0298
-12.0372
-12.0446
-12.0519
-12.059
-12.0661
-12.0731
-12.08
-12.0868
-12.0935
-12.1001
-12.1066
-12.113
-12.1193
-12.1256
-12.1317
-12.1377
-12.1436
-12.1494
-12.1551
-12.1608
-12.1663
-12.1717
-12.1771
-12.1824
-12.1875
-12.1926
-12.1976
-12.2025
-12.2074
-12.2121
-12.2168
-12.2213
-12.2258
-12.2302
-12.2345
-12.2387
-12.2427
-12.2466
-12.2504
-12.2541
-12.2575
-12.2608
-12.2638
-12.2666
-12.2691
-12.2713
-12.2731
-12.2745
-12.2753
-12.2756
-12.2752
-12.2741
-12.2721
-12.2691
-12.265
-12.2595
-12.2526
-12.2439
-12.2334
-12.2206
-12.2053
-12.1871
-12.1657
-12.1406
-12.1114
-12.0775
-12.0382
-11.993
-11.9411
-11.8815
-11.8134
-11.7357
-11.6473
-11.5468
-11.4328
-11.3036
-11.1576
-10.9925
-10.8064
-10.5967
-10.3606
-10.0953
-9.79731
-9.46302
-9.08834
-8.66878
-8.19936
-7.6746
-7.08846
-6.43426
-5.70466
-4.89159
-3.98618
-2.97869
-1.85854
-0.650797
-11.1684
-11.1917
-11.2131
-11.2328
-11.2507
-11.2669
-11.2815
-11.2946
-11.3061
-11.3163
-11.3251
-11.3327
-11.339
-11.3443
-11.3485
-11.3518
-11.3542
-11.3558
-11.3568
-11.3573
-11.3573
-11.357
-11.3565
-11.3558
-11.3551
-11.3545
-11.3539
-11.3536
-11.3535
-11.3537
-11.3542
-11.355
-11.3562
-11.3578
-11.3598
-11.3621
-11.3648
-11.3679
-11.3714
-11.3752
-11.3794
-11.3839
-11.3887
-11.3937
-11.3991
-11.4048
-11.4106
-11.4168
-11.4231
-11.4296
-11.4363
-11.4431
-11.4501
-11.4573
-11.4645
-11.4718
-11.4792
-11.4867
-11.4943
-11.5018
-11.5095
-11.5171
-11.5248
-11.5324
-11.5401
-11.5477
-11.5553
-11.5629