/*--------------------------------*- C++ -*----------------------------------*\
| =========                 |                                                 |
| \\      /  F ield         | OpenFOAM: The Open Source CFD Toolbox           |
|  \\    /   O peration     | Version:  2512                                  |
|   \\  /    A nd           | Website:  www.openfoam.com                      |
|    \\/     M anipulation  |                                                 |
\*---------------------------------------------------------------------------*/
FoamFile
{
    version     2.0;
    format      ascii;
    arch        "LSB;label=32;scalar=64";
    class       surfaceScalarField;
    location    "0.1";
    object      phi;
}
// * * * * * * * * * * * * * * * * * * * * * * * * * * * * * * * * * * * * * //

dimensions      [1 0 -1 0 0 0 0];

oriented        oriented;

internalField   nonuniform List<scalar> 
16433
(
0.00114403
0.00114389
-4.5507e-07
0.00114364
-4.68478e-07
0.00114346
-5.37232e-07
0.0011433
-5.497e-07
0.00114312
-5.42166e-07
0.00114293
-5.26811e-07
0.00114274
-5.25063e-07
0.00114256
-5.2821e-07
0.00114237
-5.25544e-07
0.00114217
-5.23448e-07
0.00114198
-5.22167e-07
0.00114178
-5.20687e-07
0.00114158
-5.20237e-07
0.00114139
-5.19887e-07
0.00114119
-5.19085e-07
0.00114099
-5.18245e-07
0.00114079
-5.17487e-07
0.00114059
-5.16822e-07
0.00114038
-5.16229e-07
0.00114018
-5.15634e-07
0.00113998
-5.15029e-07
0.00113977
-5.1444e-07
0.00113957
-5.13881e-07
0.00113936
-5.13353e-07
0.00113915
-5.12856e-07
0.00113894
-5.12381e-07
0.00113874
-5.11925e-07
0.00113853
-5.11492e-07
0.00113832
-5.11077e-07
0.00113811
-5.10675e-07
0.0011379
-5.10283e-07
0.00113769
-5.09892e-07
0.00113747
-5.09491e-07
0.00113726
-5.09078e-07
0.00113705
-5.08647e-07
0.00113683
-5.08188e-07
0.00113662
-5.07699e-07
0.0011364
-5.07179e-07
0.00113619
-5.06631e-07
0.00113597
-5.06056e-07
0.00113575
-5.05455e-07
0.00113553
-5.04833e-07
0.00113532
-5.04192e-07
0.0011351
-5.03538e-07
0.00113487
-5.02874e-07
0.00113465
-5.02202e-07
0.00113443
-5.01526e-07
0.00113421
-5.00847e-07
0.00113398
-5.00167e-07
0.00113376
-4.99487e-07
0.00113353
-4.98807e-07
0.0011333
-4.9813e-07
0.00113308
-4.97454e-07
0.00113285
-4.96782e-07
0.00113262
-4.96112e-07
0.00113239
-4.95447e-07
0.00113216
-4.94787e-07
0.00113192
-4.9413e-07
0.00113169
-4.93476e-07
0.00113146
-4.92824e-07
0.00113122
-4.9218e-07
0.00113099
-4.91542e-07
0.00113075
-4.90906e-07
0.00113052
-4.90274e-07
0.00113028
-4.89648e-07
0.00113004
-4.89026e-07
0.0011298
-4.8841e-07
0.00112956
-4.87798e-07
0.00112932
-4.87191e-07
0.00112908
-4.86589e-07
0.00112884
-4.85992e-07
0.00112859
-4.854e-07
0.00112835
-4.84813e-07
0.00112811
-4.84232e-07
0.00112786
-4.83655e-07
0.00112762
-4.83084e-07
0.00112737
-4.82518e-07
0.00112712
-4.81957e-07
0.00112687
-4.81402e-07
0.00112663
-4.80852e-07
0.00112638
-4.80308e-07
0.00112613
-4.79769e-07
0.00112588
-4.79236e-07
0.00112562
-4.78709e-07
0.00112537
-4.78187e-07
0.00112512
-4.77671e-07
0.00112487
-4.7716e-07
0.00112461
-4.76656e-07
0.00112436
-4.76157e-07
0.0011241
-4.75665e-07
0.00112385
-4.75178e-07
0.00112359
-4.74698e-07
0.00112333
-4.74224e-07
0.00112308
-4.73757e-07
0.00112282
-4.73296e-07
0.00112256
-4.72842e-07
0.0011223
-4.72394e-07
0.00112204
-4.71954e-07
0.00112178
-4.71521e-07
0.00112152
-4.71095e-07
0.00112126
-4.70677e-07
0.001121
-4.70266e-07
0.00112073
-4.69863e-07
0.00112047
-4.69469e-07
0.00112021
-4.69083e-07
0.00111994
-4.68706e-07
0.00111968
-4.68338e-07
0.00111941
-4.6798e-07
0.00111915
-4.67632e-07
0.00111888
-4.67294e-07
0.00111862
-4.66968e-07
0.00111835
-4.66652e-07
0.00111808
-4.66349e-07
0.00111782
-4.66059e-07
0.00111755
-4.65781e-07
0.00111728
-4.65519e-07
0.00111701
-4.65271e-07
0.00111674
-4.65039e-07
0.00111647
-4.64824e-07
0.0011162
-4.64627e-07
0.00111594
-4.64449e-07
0.00111567
-4.64292e-07
0.0011154
-4.64157e-07
0.00111513
-4.64046e-07
0.00111485
-4.6396e-07
0.00111458
-4.63902e-07
0.00111431
-4.63873e-07
0.00111404
-4.63875e-07
0.00111377
-4.63911e-07
0.0011135
-4.63985e-07
0.00111323
-4.64097e-07
0.00111296
-4.64253e-07
0.00111269
-4.64455e-07
0.00111242
-4.64708e-07
0.00111215
-4.65015e-07
0.00111188
-4.65382e-07
0.00111161
-4.65813e-07
0.00111134
-4.66313e-07
0.00111107
-4.66888e-07
0.00111081
-4.67547e-07
0.00111054
-4.68295e-07
0.00111027
-4.6914e-07
0.00111001
-4.70092e-07
0.00110974
-4.7116e-07
0.00110948
-4.72354e-07
0.00110922
-4.73685e-07
0.00110896
-4.75167e-07
0.0011087
-4.76812e-07
0.00110844
-4.78637e-07
0.00110818
-4.80657e-07
0.00110793
-4.82891e-07
0.00110768
-4.85356e-07
0.00110743
-4.88078e-07
0.00110719
-4.91079e-07
0.00110695
-4.94386e-07
0.00110671
-4.98026e-07
0.00110647
-5.02033e-07
0.00110624
-5.06441e-07
0.00110602
-5.11287e-07
0.0011058
-5.16614e-07
0.00110559
-5.22468e-07
0.00110538
-5.28901e-07
0.00110518
-5.3597e-07
0.00110499
-5.43736e-07
0.0011048
-5.52271e-07
0.00110463
-5.61649e-07
0.00110446
-5.7196e-07
0.00110431
-5.83305e-07
0.00110417
-5.95785e-07
0.00110404
-6.09554e-07
0.00110393
-6.24682e-07
0.00110384
-6.41596e-07
0.00110376
-6.59731e-07
0.0011037
-6.81487e-07
0.00110367
-7.01619e-07
0.00110367
-7.33528e-07
0.00110368
-7.50853e-07
0.00110375
-8.00419e-07
0.00110384
-8.28436e-07
0.00110395
-8.44967e-07
0.00110423
-1.02283e-06
0.00110438
-8.8406e-07
-1.13113e-06
0.00208902
-1.23702e-06
0.00208856
-1.14046e-06
0.00208817
-1.28455e-06
0.00208785
-1.37107e-06
0.00208753
-1.3583e-06
0.00208719
-1.33139e-06
0.00208686
-1.33459e-06
0.00208652
-1.34239e-06
0.00208619
-1.33821e-06
0.00208585
-1.33678e-06
0.00208552
-1.33621e-06
0.00208518
-1.33457e-06
0.00208484
-1.33537e-06
0.0020845
-1.33653e-06
0.00208416
-1.33676e-06
0.00208381
-1.33688e-06
0.00208347
-1.33709e-06
0.00208313
-1.33746e-06
0.00208278
-1.338e-06
0.00208244
-1.33854e-06
0.00208209
-1.33906e-06
0.00208175
-1.33959e-06
0.0020814
-1.34019e-06
0.00208105
-1.34084e-06
0.00208071
-1.34156e-06
0.00208036
-1.34233e-06
0.00208001
-1.34314e-06
0.00207966
-1.34399e-06
0.00207931
-1.34488e-06
0.00207896
-1.34581e-06
0.00207861
-1.34675e-06
0.00207826
-1.3477e-06
0.00207791
-1.34862e-06
0.00207756
-1.3495e-06
0.00207721
-1.35035e-06
0.00207686
-1.35111e-06
0.00207651
-1.3518e-06
0.00207615
-1.3524e-06
0.0020758
-1.35291e-06
0.00207545
-1.35334e-06
0.00207509
-1.35368e-06
0.00207474
-1.35395e-06
0.00207438
-1.35415e-06
0.00207403
-1.3543e-06
0.00207367
-1.35439e-06
0.00207331
-1.35445e-06
0.00207295
-1.35448e-06
0.00207259
-1.35448e-06
0.00207223
-1.35446e-06
0.00207187
-1.35442e-06
0.00207151
-1.35437e-06
0.00207115
-1.35431e-06
0.00207079
-1.35424e-06
0.00207042
-1.35417e-06
0.00207006
-1.35408e-06
0.00206969
-1.354e-06
0.00206932
-1.35391e-06
0.00206896
-1.35382e-06
0.00206859
-1.35373e-06
0.00206822
-1.35363e-06
0.00206785
-1.35353e-06
0.00206748
-1.35344e-06
0.00206711
-1.35334e-06
0.00206673
-1.35324e-06
0.00206636
-1.35314e-06
0.00206599
-1.35304e-06
0.00206561
-1.35294e-06
0.00206524
-1.35284e-06
0.00206486
-1.35274e-06
0.00206448
-1.35264e-06
0.00206411
-1.35254e-06
0.00206373
-1.35245e-06
0.00206335
-1.35235e-06
0.00206297
-1.35225e-06
0.00206259
-1.35216e-06
0.00206221
-1.35207e-06
0.00206183
-1.35197e-06
0.00206144
-1.35188e-06
0.00206106
-1.35179e-06
0.00206068
-1.35171e-06
0.00206029
-1.35162e-06
0.00205991
-1.35153e-06
0.00205952
-1.35145e-06
0.00205913
-1.35137e-06
0.00205875
-1.35129e-06
0.00205836
-1.35122e-06
0.00205797
-1.35115e-06
0.00205758
-1.35107e-06
0.00205719
-1.35101e-06
0.0020568
-1.35094e-06
0.00205641
-1.35088e-06
0.00205602
-1.35082e-06
0.00205563
-1.35077e-06
0.00205523
-1.35072e-06
0.00205484
-1.35068e-06
0.00205445
-1.35064e-06
0.00205405
-1.35061e-06
0.00205366
-1.35058e-06
0.00205326
-1.35056e-06
0.00205287
-1.35054e-06
0.00205247
-1.35053e-06
0.00205207
-1.35054e-06
0.00205168
-1.35055e-06
0.00205128
-1.35056e-06
0.00205088
-1.35059e-06
0.00205048
-1.35063e-06
0.00205008
-1.35069e-06
0.00204968
-1.35075e-06
0.00204928
-1.35084e-06
0.00204888
-1.35093e-06
0.00204848
-1.35105e-06
0.00204808
-1.35118e-06
0.00204768
-1.35133e-06
0.00204728
-1.35151e-06
0.00204688
-1.35171e-06
0.00204647
-1.35194e-06
0.00204607
-1.3522e-06
0.00204567
-1.35248e-06
0.00204527
-1.35281e-06
0.00204486
-1.35317e-06
0.00204446
-1.35357e-06
0.00204406
-1.35402e-06
0.00204365
-1.35452e-06
0.00204325
-1.35508e-06
0.00204285
-1.35569e-06
0.00204244
-1.35637e-06
0.00204204
-1.35712e-06
0.00204164
-1.35794e-06
0.00204124
-1.35885e-06
0.00204083
-1.35986e-06
0.00204043
-1.36096e-06
0.00204003
-1.36218e-06
0.00203963
-1.36352e-06
0.00203923
-1.36499e-06
0.00203883
-1.3666e-06
0.00203843
-1.36838e-06
0.00203804
-1.37032e-06
0.00203764
-1.37246e-06
0.00203725
-1.3748e-06
0.00203685
-1.37737e-06
0.00203646
-1.38019e-06
0.00203607
-1.38327e-06
0.00203568
-1.38665e-06
0.0020353
-1.39036e-06
0.00203492
-1.39442e-06
0.00203454
-1.39887e-06
0.00203416
-1.40374e-06
0.00203378
-1.40908e-06
0.00203341
-1.41492e-06
0.00203305
-1.42132e-06
0.00203268
-1.42833e-06
0.00203233
-1.436e-06
0.00203198
-1.4444e-06
0.00203163
-1.4536e-06
0.00203129
-1.46368e-06
0.00203096
-1.47471e-06
0.00203063
-1.4868e-06
0.00203032
-1.50003e-06
0.00203001
-1.51452e-06
0.00202971
-1.5304e-06
0.00202943
-1.5478e-06
0.00202916
-1.56686e-06
0.0020289
-1.58775e-06
0.00202865
-1.61065e-06
0.00202843
-1.63576e-06
0.00202822
-1.66329e-06
0.00202803
-1.69351e-06
0.00202786
-1.7267e-06
0.00202771
-1.76315e-06
0.0020276
-1.80328e-06
0.00202751
-1.84737e-06
0.00202745
-1.89626e-06
0.00202743
-1.94949e-06
0.00202744
-2.01064e-06
0.0020275
-2.07288e-06
0.00202761
-2.15582e-06
0.00202777
-2.2203e-06
0.002028
-2.34433e-06
0.00202828
-2.41781e-06
0.00202866
-2.53456e-06
0.00202913
-2.81286e-06
0.00202961
-2.67313e-06
-3.37277e-06
0.00242246
0.002422
-1.24016e-06
0.0024213
-1.2209e-06
0.00242071
-1.40918e-06
0.00242016
-1.44256e-06
0.00241959
-1.39967e-06
0.00241902
-1.40474e-06
0.00241846
-1.41923e-06
0.0024179
-1.41486e-06
0.00241734
-1.41475e-06
0.00241678
-1.41492e-06
0.00241621
-1.41298e-06
0.00241565
-1.4147e-06
0.00241508
-1.41686e-06
0.00241452
-1.41775e-06
0.00241395
-1.41852e-06
0.00241339
-1.4193e-06
0.00241282
-1.42027e-06
0.00241226
-1.42149e-06
0.00241169
-1.42273e-06
0.00241112
-1.42394e-06
0.00241056
-1.42517e-06
0.00240999
-1.42648e-06
0.00240942
-1.4279e-06
0.00240885
-1.42943e-06
0.00240829
-1.43103e-06
0.00240772
-1.43271e-06
0.00240715
-1.43448e-06
0.00240658
-1.43633e-06
0.00240601
-1.43824e-06
0.00240545
-1.44019e-06
0.00240488
-1.44217e-06
0.00240431
-1.44412e-06
0.00240374
-1.44603e-06
0.00240317
-1.44786e-06
0.00240261
-1.44959e-06
0.00240204
-1.45117e-06
0.00240147
-1.45261e-06
0.0024009
-1.45388e-06
0.00240033
-1.455e-06
0.00239977
-1.45595e-06
0.0023992
-1.45676e-06
0.00239863
-1.45743e-06
0.00239806
-1.45797e-06
0.00239749
-1.45841e-06
0.00239692
-1.45876e-06
0.00239634
-1.45904e-06
0.00239577
-1.45925e-06
0.0023952
-1.45941e-06
0.00239462
-1.45952e-06
0.00239405
-1.4596e-06
0.00239347
-1.45964e-06
0.0023929
-1.45966e-06
0.00239232
-1.45966e-06
0.00239174
-1.45964e-06
0.00239117
-1.45961e-06
0.00239059
-1.45957e-06
0.00239001
-1.45952e-06
0.00238943
-1.45946e-06
0.00238884
-1.45939e-06
0.00238826
-1.45931e-06
0.00238768
-1.45924e-06
0.0023871
-1.45915e-06
0.00238651
-1.45906e-06
0.00238593
-1.45897e-06
0.00238534
-1.45888e-06
0.00238475
-1.45879e-06
0.00238417
-1.45869e-06
0.00238358
-1.45859e-06
0.00238299
-1.45849e-06
0.0023824
-1.4584e-06
0.00238181
-1.4583e-06
0.00238122
-1.4582e-06
0.00238063
-1.4581e-06
0.00238003
-1.458e-06
0.00237944
-1.4579e-06
0.00237885
-1.45781e-06
0.00237825
-1.45771e-06
0.00237766
-1.45762e-06
0.00237706
-1.45753e-06
0.00237646
-1.45744e-06
0.00237587
-1.45735e-06
0.00237527
-1.45727e-06
0.00237467
-1.45719e-06
0.00237407
-1.45711e-06
0.00237347
-1.45704e-06
0.00237287
-1.45696e-06
0.00237227
-1.4569e-06
0.00237167
-1.45684e-06
0.00237107
-1.45678e-06
0.00237046
-1.45673e-06
0.00236986
-1.45668e-06
0.00236926
-1.45664e-06
0.00236865
-1.45661e-06
0.00236805
-1.45658e-06
0.00236744
-1.45657e-06
0.00236683
-1.45656e-06
0.00236623
-1.45656e-06
0.00236562
-1.45657e-06
0.00236501
-1.4566e-06
0.0023644
-1.45663e-06
0.00236379
-1.45668e-06
0.00236319
-1.45675e-06
0.00236258
-1.45683e-06
0.00236197
-1.45693e-06
0.00236135
-1.45704e-06
0.00236074
-1.45718e-06
0.00236013
-1.45734e-06
0.00235952
-1.45753e-06
0.00235891
-1.45775e-06
0.0023583
-1.45799e-06
0.00235768
-1.45827e-06
0.00235707
-1.45858e-06
0.00235646
-1.45893e-06
0.00235584
-1.45932e-06
0.00235523
-1.45976e-06
0.00235462
-1.46025e-06
0.002354
-1.4608e-06
0.00235339
-1.46141e-06
0.00235277
-1.46208e-06
0.00235216
-1.46283e-06
0.00235154
-1.46365e-06
0.00235093
-1.46457e-06
0.00235031
-1.46557e-06
0.0023497
-1.46668e-06
0.00234909
-1.46791e-06
0.00234847
-1.46926e-06
0.00234786
-1.47074e-06
0.00234725
-1.47237e-06
0.00234663
-1.47417e-06
0.00234602
-1.47614e-06
0.00234541
-1.4783e-06
0.0023448
-1.48068e-06
0.00234419
-1.48329e-06
0.00234358
-1.48615e-06
0.00234297
-1.48928e-06
0.00234236
-1.49272e-06
0.00234176
-1.4965e-06
0.00234115
-1.50063e-06
0.00234055
-1.50515e-06
0.00233995
-1.51012e-06
0.00233935
-1.51555e-06
0.00233876
-1.5215e-06
0.00233816
-1.52802e-06
0.00233757
-1.53515e-06
0.00233698
-1.54296e-06
0.0023364
-1.55152e-06
0.00233582
-1.56088e-06
0.00233524
-1.57113e-06
0.00233467
-1.58236e-06
0.00233411
-1.59464e-06
0.00233355
-1.60809e-06
0.00233299
-1.62281e-06
0.00233244
-1.63893e-06
0.0023319
-1.65657e-06
0.00233137
-1.67588e-06
0.00233085
-1.69704e-06
0.00233033
-1.72019e-06
0.00232983
-1.74555e-06
0.00232934
-1.77332e-06
0.00232886
-1.80374e-06
0.0023284
-1.83706e-06
0.00232795
-1.87356e-06
0.00232751
-1.91357e-06
0.0023271
-1.95743e-06
0.00232671
-2.00551e-06
0.00232634
-2.05826e-06
0.00232599
-2.11616e-06
0.00232567
-2.17975e-06
0.00232538
-2.24968e-06
0.00232513
-2.32656e-06
0.00232491
-2.41153e-06
0.00232473
-2.5046e-06
0.00232459
-2.60961e-06
0.0023245
-2.72074e-06
0.00232447
-2.85757e-06
0.0023245
-2.98191e-06
0.00232459
-3.17676e-06
0.00232476
-3.31731e-06
0.00232502
-3.53821e-06
0.00232539
-3.91884e-06
0.00232581
-3.82795e-06
-4.81449e-06
0.00251598
0.00251541
-1.20978e-06
0.00251468
-1.30893e-06
0.00251397
-1.36506e-06
0.00251329
-1.35473e-06
0.00251262
-1.36647e-06
0.00251195
-1.37843e-06
0.00251127
-1.37457e-06
0.0025106
-1.37888e-06
0.00250993
-1.38009e-06
0.00250926
-1.37793e-06
0.00250858
-1.38111e-06
0.00250791
-1.38454e-06
0.00250724
-1.38628e-06
0.00250656
-1.38794e-06
0.00250589
-1.38946e-06
0.00250522
-1.39119e-06
0.00250454
-1.39326e-06
0.00250387
-1.39533e-06
0.0025032
-1.39735e-06
0.00250252
-1.39942e-06
0.00250185
-1.4016e-06
0.00250117
-1.40392e-06
0.0025005
-1.40638e-06
0.00249982
-1.40897e-06
0.00249915
-1.41167e-06
0.00249847
-1.41451e-06
0.0024978
-1.41746e-06
0.00249712
-1.42052e-06
0.00249645
-1.42366e-06
0.00249578
-1.42684e-06
0.0024951
-1.43e-06
0.00249443
-1.43311e-06
0.00249376
-1.43613e-06
0.00249308
-1.439e-06
0.00249241
-1.44167e-06
0.00249174
-1.44412e-06
0.00249106
-1.44634e-06
0.00249039
-1.44831e-06
0.00248972
-1.45003e-06
0.00248905
-1.45152e-06
0.00248837
-1.45279e-06
0.0024877
-1.45386e-06
0.00248702
-1.45475e-06
0.00248635
-1.45549e-06
0.00248567
-1.4561e-06
0.002485
-1.45659e-06
0.00248432
-1.457e-06
0.00248364
-1.45732e-06
0.00248297
-1.45757e-06
0.00248229
-1.45778e-06
0.00248161
-1.45792e-06
0.00248093
-1.45804e-06
0.00248025
-1.45812e-06
0.00247957
-1.45817e-06
0.00247888
-1.4582e-06
0.0024782
-1.45821e-06
0.00247752
-1.4582e-06
0.00247683
-1.45817e-06
0.00247615
-1.45814e-06
0.00247546
-1.45809e-06
0.00247478
-1.45804e-06
0.00247409
-1.45797e-06
0.0024734
-1.4579e-06
0.00247271
-1.45783e-06
0.00247202
-1.45775e-06
0.00247133
-1.45766e-06
0.00247064
-1.45757e-06
0.00246995
-1.45748e-06
0.00246926
-1.45739e-06
0.00246856
-1.4573e-06
0.00246787
-1.4572e-06
0.00246717
-1.4571e-06
0.00246648
-1.45701e-06
0.00246578
-1.45691e-06
0.00246509
-1.45681e-06
0.00246439
-1.45672e-06
0.00246369
-1.45663e-06
0.00246299
-1.45654e-06
0.00246229
-1.45645e-06
0.00246159
-1.45636e-06
0.00246089
-1.45628e-06
0.00246019
-1.4562e-06
0.00245949
-1.45612e-06
0.00245879
-1.45605e-06
0.00245808
-1.45599e-06
0.00245738
-1.45592e-06
0.00245667
-1.45587e-06
0.00245597
-1.45582e-06
0.00245526
-1.45578e-06
0.00245456
-1.45575e-06
0.00245385
-1.45572e-06
0.00245314
-1.45571e-06
0.00245243
-1.4557e-06
0.00245173
-1.45571e-06
0.00245102
-1.45573e-06
0.00245031
-1.45576e-06
0.0024496
-1.45581e-06
0.00244889
-1.45588e-06
0.00244818
-1.45596e-06
0.00244746
-1.45606e-06
0.00244675
-1.45618e-06
0.00244604
-1.45633e-06
0.00244533
-1.4565e-06
0.00244461
-1.4567e-06
0.0024439
-1.45692e-06
0.00244319
-1.45718e-06
0.00244247
-1.45748e-06
0.00244176
-1.45781e-06
0.00244104
-1.45819e-06
0.00244033
-1.45862e-06
0.00243961
-1.45909e-06
0.00243889
-1.45962e-06
0.00243818
-1.46021e-06
0.00243746
-1.46087e-06
0.00243674
-1.4616e-06
0.00243603
-1.46241e-06
0.00243531
-1.46331e-06
0.00243459
-1.4643e-06
0.00243388
-1.4654e-06
0.00243316
-1.46661e-06
0.00243244
-1.46795e-06
0.00243172
-1.46942e-06
0.00243101
-1.47104e-06
0.00243029
-1.47282e-06
0.00242957
-1.47478e-06
0.00242886
-1.47694e-06
0.00242814
-1.47931e-06
0.00242743
-1.48191e-06
0.00242671
-1.48476e-06
0.002426
-1.48789e-06
0.00242528
-1.49133e-06
0.00242457
-1.4951e-06
0.00242386
-1.49923e-06
0.00242315
-1.50377e-06
0.00242244
-1.50873e-06
0.00242173
-1.51417e-06
0.00242103
-1.52013e-06
0.00242032
-1.52666e-06
0.00241962
-1.53381e-06
0.00241892
-1.54164e-06
0.00241822
-1.55021e-06
0.00241752
-1.5596e-06
0.00241683
-1.56987e-06
0.00241614
-1.58111e-06
0.00241546
-1.59343e-06
0.00241477
-1.6069e-06
0.0024141
-1.62165e-06
0.00241342
-1.6378e-06
0.00241275
-1.65547e-06
0.00241209
-1.67481e-06
0.00241144
-1.69598e-06
0.00241079
-1.71915e-06
0.00241015
-1.74452e-06
0.00240951
-1.77228e-06
0.00240889
-1.80268e-06
0.00240827
-1.83596e-06
0.00240767
-1.8724e-06
0.00240708
-1.9123e-06
0.0024065
-1.956e-06
0.00240594
-2.00386e-06
0.00240539
-2.05629e-06
0.00240486
-2.11374e-06
0.00240435
-2.17671e-06
0.00240386
-2.24575e-06
0.00240339
-2.32147e-06
0.00240295
-2.40456e-06
0.00240253
-2.49579e-06
0.00240214
-2.59607e-06
0.00240179
-2.70633e-06
0.00240148
-2.82798e-06
0.0024012
-2.96158e-06
0.00240097
-3.11101e-06
0.00240079
-3.2721e-06
0.00240067
-3.46245e-06
0.0024006
-3.65036e-06
0.0024006
-3.90883e-06
0.00240069
-4.1332e-06
0.00240085
-4.42956e-06
0.00240113
-4.9335e-06
0.00240147
-4.89903e-06
-6.12695e-06
0.00253725
0.00253665
-1.27603e-06
0.00253589
-1.24147e-06
0.00253516
-1.25125e-06
0.00253445
-1.29417e-06
0.00253375
-1.306e-06
0.00253304
-1.29985e-06
0.00253233
-1.30774e-06
0.00253162
-1.30973e-06
0.00253092
-1.30772e-06
0.00253021
-1.3127e-06
0.0025295
-1.31724e-06
0.00252879
-1.31982e-06
0.00252809
-1.32247e-06
0.00252738
-1.32477e-06
0.00252667
-1.3273e-06
0.00252596
-1.33028e-06
0.00252525
-1.33324e-06
0.00252454
-1.33614e-06
0.00252383
-1.33908e-06
0.00252313
-1.34215e-06
0.00252242
-1.34541e-06
0.00252171
-1.34887e-06
0.002521
-1.35248e-06
0.00252029
-1.35624e-06
0.00251958
-1.3602e-06
0.00251887
-1.36431e-06
0.00251816
-1.36857e-06
0.00251746
-1.37294e-06
0.00251675
-1.37738e-06
0.00251604
-1.38181e-06
0.00251533
-1.38619e-06
0.00251463
-1.39046e-06
0.00251392
-1.39453e-06
0.00251321
-1.39835e-06
0.00251251
-1.40188e-06
0.0025118
-1.40509e-06
0.00251109
-1.40797e-06
0.00251039
-1.41051e-06
0.00250968
-1.41273e-06
0.00250897
-1.41464e-06
0.00250827
-1.41627e-06
0.00250756
-1.41765e-06
0.00250685
-1.41882e-06
0.00250614
-1.41979e-06
0.00250543
-1.4206e-06
0.00250472
-1.42127e-06
0.00250401
-1.42182e-06
0.0025033
-1.42228e-06
0.00250259
-1.42265e-06
0.00250188
-1.42294e-06
0.00250117
-1.42318e-06
0.00250045
-1.42337e-06
0.00249974
-1.42352e-06
0.00249902
-1.42363e-06
0.00249831
-1.42371e-06
0.00249759
-1.42376e-06
0.00249687
-1.42379e-06
0.00249615
-1.4238e-06
0.00249544
-1.42379e-06
0.00249472
-1.42377e-06
0.002494
-1.42373e-06
0.00249327
-1.42369e-06
0.00249255
-1.42363e-06
0.00249183
-1.42357e-06
0.00249111
-1.4235e-06
0.00249038
-1.42343e-06
0.00248966
-1.42335e-06
0.00248893
-1.42326e-06
0.00248821
-1.42317e-06
0.00248748
-1.42308e-06
0.00248675
-1.42299e-06
0.00248602
-1.4229e-06
0.00248529
-1.4228e-06
0.00248456
-1.42271e-06
0.00248383
-1.42262e-06
0.0024831
-1.42253e-06
0.00248237
-1.42244e-06
0.00248164
-1.42235e-06
0.00248091
-1.42227e-06
0.00248017
-1.42219e-06
0.00247944
-1.42211e-06
0.0024787
-1.42204e-06
0.00247797
-1.42197e-06
0.00247723
-1.42191e-06
0.00247649
-1.42186e-06
0.00247576
-1.42181e-06
0.00247502
-1.42177e-06
0.00247428
-1.42174e-06
0.00247354
-1.42172e-06
0.0024728
-1.42171e-06
0.00247206
-1.42172e-06
0.00247132
-1.42173e-06
0.00247058
-1.42177e-06
0.00246984
-1.42181e-06
0.00246909
-1.42188e-06
0.00246835
-1.42196e-06
0.00246761
-1.42207e-06
0.00246686
-1.4222e-06
0.00246612
-1.42235e-06
0.00246537
-1.42253e-06
0.00246463
-1.42274e-06
0.00246388
-1.42298e-06
0.00246314
-1.42326e-06
0.00246239
-1.42358e-06
0.00246164
-1.42394e-06
0.00246089
-1.42434e-06
0.00246015
-1.4248e-06
0.0024594
-1.42531e-06
0.00245865
-1.42588e-06
0.0024579
-1.42652e-06
0.00245715
-1.42723e-06
0.0024564
-1.42802e-06
0.00245565
-1.4289e-06
0.0024549
-1.42987e-06
0.00245415
-1.43094e-06
0.0024534
-1.43213e-06
0.00245265
-1.43344e-06
0.0024519
-1.43489e-06
0.00245115
-1.43649e-06
0.0024504
-1.43825e-06
0.00244965
-1.44018e-06
0.0024489
-1.44231e-06
0.00244815
-1.44465e-06
0.0024474
-1.44722e-06
0.00244666
-1.45005e-06
0.00244591
-1.45315e-06
0.00244516
-1.45656e-06
0.00244441
-1.4603e-06
0.00244366
-1.4644e-06
0.00244292
-1.46889e-06
0.00244217
-1.47383e-06
0.00244143
-1.47923e-06
0.00244068
-1.48516e-06
0.00243994
-1.49165e-06
0.0024392
-1.49875e-06
0.00243846
-1.50654e-06
0.00243772
-1.51506e-06
0.00243699
-1.5244e-06
0.00243625
-1.53462e-06
0.00243552
-1.54581e-06
0.00243479
-1.55806e-06
0.00243407
-1.57147e-06
0.00243335
-1.58615e-06
0.00243263
-1.60221e-06
0.00243191
-1.6198e-06
0.0024312
-1.63904e-06
0.0024305
-1.6601e-06
0.00242979
-1.68315e-06
0.0024291
-1.70838e-06
0.00242841
-1.73599e-06
0.00242773
-1.7662e-06
0.00242705
-1.79928e-06
0.00242639
-1.83548e-06
0.00242573
-1.87512e-06
0.00242508
-1.9185e-06
0.00242445
-1.966e-06
0.00242382
-2.01801e-06
0.00242321
-2.07497e-06
0.00242261
-2.13735e-06
0.00242203
-2.20567e-06
0.00242147
-2.28054e-06
0.00242092
-2.36259e-06
0.0024204
-2.45252e-06
0.0024199
-2.55115e-06
0.00241942
-2.65936e-06
0.00241897
-2.77816e-06
0.00241855
-2.9087e-06
0.00241817
-3.05222e-06
0.00241782
-3.21041e-06
0.00241751
-3.38438e-06
0.00241725
-3.57802e-06
0.00241703
-3.78882e-06
0.00241687
-4.03213e-06
0.00241677
-4.28366e-06
0.00241673
-4.60323e-06
0.00241678
-4.9149e-06
0.0024169
-5.2767e-06
0.00241715
-5.9116e-06
0.00241744
-5.92183e-06
-7.37518e-06
0.00254102
-1.31581e-06
0.00254023
-1.08402e-06
0.0025395
-1.14951e-06
0.00253879
-1.21902e-06
0.00253807
-1.21902e-06
0.00253735
-1.21596e-06
0.00253664
-1.22987e-06
0.00253592
-1.23039e-06
0.0025352
-1.22803e-06
0.00253449
-1.23567e-06
0.00253377
-1.2414e-06
0.00253305
-1.24483e-06
0.00253234
-1.24851e-06
0.00253162
-1.25151e-06
0.0025309
-1.25489e-06
0.00253019
-1.25882e-06
0.00252947
-1.26265e-06
0.00252875
-1.26642e-06
0.00252804
-1.27024e-06
0.00252732
-1.27423e-06
0.0025266
-1.27844e-06
0.00252588
-1.28289e-06
0.00252517
-1.28754e-06
0.00252445
-1.29238e-06
0.00252373
-1.29746e-06
0.00252301
-1.30275e-06
0.0025223
-1.30822e-06
0.00252158
-1.31385e-06
0.00252087
-1.31957e-06
0.00252015
-1.32528e-06
0.00251943
-1.33095e-06
0.00251872
-1.33647e-06
0.002518
-1.34177e-06
0.00251729
-1.34675e-06
0.00251657
-1.35138e-06
0.00251586
-1.3556e-06
0.00251515
-1.3594e-06
0.00251443
-1.36278e-06
0.00251372
-1.36573e-06
0.002513
-1.3683e-06
0.00251229
-1.3705e-06
0.00251157
-1.37237e-06
0.00251085
-1.37396e-06
0.00251014
-1.3753e-06
0.00250942
-1.37643e-06
0.0025087
-1.37738e-06
0.00250798
-1.37817e-06
0.00250726
-1.37882e-06
0.00250654
-1.37937e-06
0.00250582
-1.37981e-06
0.0025051
-1.38018e-06
0.00250438
-1.38048e-06
0.00250366
-1.38073e-06
0.00250294
-1.38092e-06
0.00250221
-1.38108e-06
0.00250149
-1.38119e-06
0.00250076
-1.38127e-06
0.00250003
-1.38133e-06
0.00249931
-1.38136e-06
0.00249858
-1.38138e-06
0.00249785
-1.38137e-06
0.00249712
-1.38135e-06
0.00249639
-1.38132e-06
0.00249566
-1.38128e-06
0.00249493
-1.38123e-06
0.0024942
-1.38116e-06
0.00249347
-1.3811e-06
0.00249273
-1.38102e-06
0.002492
-1.38094e-06
0.00249126
-1.38086e-06
0.00249053
-1.38077e-06
0.00248979
-1.38068e-06
0.00248905
-1.38059e-06
0.00248832
-1.3805e-06
0.00248758
-1.38041e-06
0.00248684
-1.38032e-06
0.0024861
-1.38023e-06
0.00248536
-1.38015e-06
0.00248462
-1.38007e-06
0.00248387
-1.37999e-06
0.00248313
-1.37992e-06
0.00248239
-1.37985e-06
0.00248164
-1.37979e-06
0.0024809
-1.37973e-06
0.00248016
-1.37968e-06
0.00247941
-1.37965e-06
0.00247866
-1.37962e-06
0.00247792
-1.3796e-06
0.00247717
-1.37959e-06
0.00247642
-1.3796e-06
0.00247567
-1.37963e-06
0.00247492
-1.37966e-06
0.00247417
-1.37972e-06
0.00247342
-1.3798e-06
0.00247267
-1.3799e-06
0.00247192
-1.38002e-06
0.00247117
-1.38016e-06
0.00247042
-1.38034e-06
0.00246967
-1.38054e-06
0.00246891
-1.38078e-06
0.00246816
-1.38105e-06
0.00246741
-1.38137e-06
0.00246665
-1.38173e-06
0.0024659
-1.38213e-06
0.00246514
-1.38259e-06
0.00246439
-1.38311e-06
0.00246363
-1.38368e-06
0.00246287
-1.38433e-06
0.00246212
-1.38505e-06
0.00246136
-1.38585e-06
0.0024606
-1.38674e-06
0.00245985
-1.38772e-06
0.00245909
-1.38882e-06
0.00245833
-1.39003e-06
0.00245757
-1.39137e-06
0.00245681
-1.39284e-06
0.00245606
-1.39447e-06
0.0024553
-1.39627e-06
0.00245454
-1.39825e-06
0.00245378
-1.40043e-06
0.00245302
-1.40282e-06
0.00245227
-1.40546e-06
0.00245151
-1.40836e-06
0.00245075
-1.41154e-06
0.00244999
-1.41503e-06
0.00244924
-1.41887e-06
0.00244848
-1.42308e-06
0.00244772
-1.4277e-06
0.00244697
-1.43276e-06
0.00244621
-1.43831e-06
0.00244546
-1.4444e-06
0.00244471
-1.45107e-06
0.00244396
-1.45838e-06
0.00244321
-1.46639e-06
0.00244246
-1.47516e-06
0.00244171
-1.48475e-06
0.00244096
-1.49527e-06
0.00244022
-1.50679e-06
0.00243948
-1.51939e-06
0.00243874
-1.53318e-06
0.002438
-1.54829e-06
0.00243727
-1.56482e-06
0.00243654
-1.5829e-06
0.00243581
-1.60271e-06
0.00243509
-1.62438e-06
0.00243437
-1.64809e-06
0.00243365
-1.67405e-06
0.00243294
-1.70245e-06
0.00243224
-1.73354e-06
0.00243154
-1.76755e-06
0.00243085
-1.80478e-06
0.00243017
-1.84553e-06
0.00242949
-1.89013e-06
0.00242883
-1.93896e-06
0.00242817
-1.9924e-06
0.00242753
-2.05091e-06
0.00242689
-2.11497e-06
0.00242627
-2.18512e-06
0.00242567
-2.26194e-06
0.00242508
-2.34609e-06
0.0024245
-2.43827e-06
0.00242395
-2.5393e-06
0.00242342
-2.65002e-06
0.00242291
-2.77144e-06
0.00242242
-2.90464e-06
0.00242196
-3.05085e-06
0.00242153
-3.21147e-06
0.00242114
-3.38804e-06
0.00242078
-3.58253e-06
0.00242046
-3.79656e-06
0.00242018
-4.03407e-06
0.00241996
-4.29407e-06
0.00241978
-4.59e-06
0.00241967
-4.90411e-06
0.00241962
-5.28444e-06
0.00241966
-5.68126e-06
0.00241976
-6.10746e-06
0.00241998
-6.86807e-06
0.00242025
-6.92374e-06
-8.58762e-06
0.00254161
0.00254105
-1.09524e-06
0.00254024
-9.65301e-07
0.00253952
-1.13154e-06
0.00253881
-1.14342e-06
0.00253809
-1.13293e-06
0.00253737
-1.14977e-06
0.00253666
-1.1492e-06
0.00253594
-1.1474e-06
0.00253522
-1.1575e-06
0.0025345
-1.16377e-06
0.00253379
-1.16808e-06
0.00253307
-1.17286e-06
0.00253235
-1.17652e-06
0.00253163
-1.18072e-06
0.00253091
-1.18565e-06
0.00253019
-1.19038e-06
0.00252947
-1.195e-06
0.00252876
-1.1997e-06
0.00252804
-1.20458e-06
0.00252732
-1.20975e-06
0.0025266
-1.21523e-06
0.00252588
-1.22089e-06
0.00252516
-1.22681e-06
0.00252444
-1.23302e-06
0.00252372
-1.23947e-06
0.002523
-1.24618e-06
0.00252229
-1.25306e-06
0.00252157
-1.26006e-06
0.00252085
-1.26708e-06
0.00252013
-1.27404e-06
0.00251942
-1.28085e-06
0.0025187
-1.28736e-06
0.00251798
-1.29352e-06
0.00251727
-1.29924e-06
0.00251655
-1.30449e-06
0.00251583
-1.30921e-06
0.00251512
-1.31341e-06
0.0025144
-1.3171e-06
0.00251368
-1.32032e-06
0.00251297
-1.32308e-06
0.00251225
-1.32545e-06
0.00251153
-1.32747e-06
0.00251081
-1.32917e-06
0.0025101
-1.33062e-06
0.00250938
-1.33184e-06
0.00250866
-1.33286e-06
0.00250794
-1.33372e-06
0.00250721
-1.33444e-06
0.00250649
-1.33504e-06
0.00250577
-1.33554e-06
0.00250505
-1.33595e-06
0.00250432
-1.33629e-06
0.0025036
-1.33657e-06
0.00250287
-1.3368e-06
0.00250214
-1.33698e-06
0.00250142
-1.33711e-06
0.00250069
-1.33722e-06
0.00249996
-1.3373e-06
0.00249923
-1.33735e-06
0.0024985
-1.33738e-06
0.00249777
-1.33738e-06
0.00249704
-1.33738e-06
0.00249631
-1.33735e-06
0.00249557
-1.33732e-06
0.00249484
-1.33727e-06
0.0024941
-1.33721e-06
0.00249337
-1.33715e-06
0.00249263
-1.33708e-06
0.0024919
-1.337e-06
0.00249116
-1.33692e-06
0.00249042
-1.33683e-06
0.00248968
-1.33675e-06
0.00248894
-1.33666e-06
0.0024882
-1.33657e-06
0.00248746
-1.33649e-06
0.00248672
-1.3364e-06
0.00248598
-1.33632e-06
0.00248524
-1.33624e-06
0.00248449
-1.33616e-06
0.00248375
-1.33609e-06
0.002483
-1.33603e-06
0.00248226
-1.33597e-06
0.00248151
-1.33592e-06
0.00248077
-1.33588e-06
0.00248002
-1.33585e-06
0.00247927
-1.33584e-06
0.00247852
-1.33583e-06
0.00247777
-1.33584e-06
0.00247702
-1.33586e-06
0.00247627
-1.33591e-06
0.00247552
-1.33597e-06
0.00247477
-1.33605e-06
0.00247402
-1.33615e-06
0.00247327
-1.33628e-06
0.00247252
-1.33644e-06
0.00247176
-1.33663e-06
0.00247101
-1.33685e-06
0.00247025
-1.3371e-06
0.0024695
-1.3374e-06
0.00246874
-1.33774e-06
0.00246799
-1.33812e-06
0.00246723
-1.33856e-06
0.00246648
-1.33905e-06
0.00246572
-1.33961e-06
0.00246496
-1.34023e-06
0.0024642
-1.34093e-06
0.00246345
-1.34171e-06
0.00246269
-1.34257e-06
0.00246193
-1.34354e-06
0.00246117
-1.34461e-06
0.00246041
-1.34579e-06
0.00245965
-1.3471e-06
0.00245889
-1.34855e-06
0.00245813
-1.35015e-06
0.00245737
-1.35191e-06
0.00245661
-1.35386e-06
0.00245585
-1.356e-06
0.00245509
-1.35836e-06
0.00245433
-1.36096e-06
0.00245357
-1.36382e-06
0.00245282
-1.36695e-06
0.00245206
-1.3704e-06
0.0024513
-1.37419e-06
0.00245054
-1.37835e-06
0.00244978
-1.38292e-06
0.00244902
-1.38793e-06
0.00244826
-1.39342e-06
0.00244751
-1.39944e-06
0.00244675
-1.40604e-06
0.00244599
-1.41328e-06
0.00244524
-1.42121e-06
0.00244449
-1.4299e-06
0.00244374
-1.43941e-06
0.00244298
-1.44983e-06
0.00244224