/*--------------------------------*- C++ -*----------------------------------*\
| =========                 |                                                 |
| \\      /  F ield         | OpenFOAM: The Open Source CFD Toolbox           |
|  \\    /   O peration     | Version:  2512                                  |
|   \\  /    A nd           | Website:  www.openfoam.com                      |
|    \\/     M anipulation  |                                                 |
\*---------------------------------------------------------------------------*/
FoamFile
{
    version     2.0;
    format      ascii;
    arch        "LSB;label=32;scalar=64";
    class       surfaceScalarField;
    location    "0.1";
    object      phiB;
}
// * * * * * * * * * * * * * * * * * * * * * * * * * * * * * * * * * * * * * //

dimensions      [1 2 -2 0 0 -1 0];

oriented        oriented;

internalField   nonuniform List<scalar> 
16433
(
7.55434e-09
7.54933e-09
0.00192
7.54402e-09
0.00192
7.53895e-09
0.00192
7.53399e-09
0.00192
7.52907e-09
0.00192
7.52406e-09
0.00192
7.51899e-09
0.00192
7.51396e-09
0.00192
7.50898e-09
0.00192
7.50402e-09
0.00192
7.49908e-09
0.00192
7.49417e-09
0.00192
7.48931e-09
0.00192
7.48451e-09
0.00192
7.47979e-09
0.00192
7.47513e-09
0.00192
7.47055e-09
0.00192
7.46605e-09
0.00192
7.46164e-09
0.00192
7.45732e-09
0.00192
7.4531e-09
0.00192
7.44899e-09
0.00192
7.44499e-09
0.00192
7.44111e-09
0.00192
7.43734e-09
0.00192
7.43371e-09
0.00192
7.43022e-09
0.00192
7.42687e-09
0.00192
7.42367e-09
0.00192
7.42062e-09
0.00192
7.41772e-09
0.00192
7.41499e-09
0.00192
7.4124e-09
0.00192
7.40996e-09
0.00192
7.40767e-09
0.00192
7.40551e-09
0.00192
7.40348e-09
0.00192
7.40157e-09
0.00192
7.39975e-09
0.00192
7.39802e-09
0.00192
7.39637e-09
0.00192
7.39478e-09
0.00192
7.39324e-09
0.00192
7.39173e-09
0.00192
7.39025e-09
0.00192
7.38878e-09
0.00192
7.38732e-09
0.00192
7.38586e-09
0.00192
7.38439e-09
0.00192
7.3829e-09
0.00192
7.3814e-09
0.00192
7.37988e-09
0.00192
7.37833e-09
0.00192
7.37675e-09
0.00192
7.37515e-09
0.00192
7.37352e-09
0.00192
7.37186e-09
0.00192
7.37016e-09
0.00192
7.36844e-09
0.00192
7.36668e-09
0.00192
7.36489e-09
0.00192
7.36307e-09
0.00192
7.36122e-09
0.00192
7.35934e-09
0.00192
7.35743e-09
0.00192
7.35549e-09
0.00192
7.35353e-09
0.00192
7.35154e-09
0.00192
7.34953e-09
0.00192
7.34749e-09
0.00192
7.34543e-09
0.00192
7.34334e-09
0.00192
7.34124e-09
0.00192
7.33911e-09
0.00192
7.33697e-09
0.00192
7.3348e-09
0.00192
7.33262e-09
0.00192
7.33043e-09
0.00192
7.32821e-09
0.00192
7.32598e-09
0.00192
7.32374e-09
0.00192
7.32149e-09
0.00192
7.31923e-09
0.00192
7.31695e-09
0.00192
7.31466e-09
0.00192
7.31236e-09
0.00192
7.31005e-09
0.00192
7.30774e-09
0.00192
7.30541e-09
0.00192
7.30307e-09
0.00192
7.30073e-09
0.00192
7.29838e-09
0.00192
7.29603e-09
0.00192
7.29367e-09
0.00192
7.2913e-09
0.00192
7.28893e-09
0.00192
7.28656e-09
0.00192
7.28418e-09
0.00192
7.28179e-09
0.00192
7.27941e-09
0.00192
7.27701e-09
0.00192
7.27462e-09
0.00192
7.27221e-09
0.00192
7.26981e-09
0.00192
7.2674e-09
0.00192
7.26499e-09
0.00192
7.26257e-09
0.00192
7.26015e-09
0.00192
7.25772e-09
0.00192
7.25529e-09
0.00192
7.25286e-09
0.00192
7.25041e-09
0.00192
7.24796e-09
0.00192
7.2455e-09
0.00192
7.24303e-09
0.00192
7.24055e-09
0.00192
7.23805e-09
0.00192
7.23554e-09
0.00192
7.23301e-09
0.00192
7.23045e-09
0.00192
7.22788e-09
0.00192
7.22528e-09
0.00192
7.22264e-09
0.00192
7.21997e-09
0.00192
7.21726e-09
0.00192
7.2145e-09
0.00192
7.21169e-09
0.00192
7.20881e-09
0.00192
7.20587e-09
0.00192
7.20284e-09
0.00192
7.19973e-09
0.00192
7.19651e-09
0.00192
7.19318e-09
0.00192
7.18972e-09
0.00192
7.18611e-09
0.00192
7.18234e-09
0.00192
7.17838e-09
0.00192
7.17421e-09
0.00192
7.1698e-09
0.00192
7.16513e-09
0.00192
7.16016e-09
0.00192
7.15485e-09
0.00192
7.14918e-09
0.00192
7.14309e-09
0.00192
7.13653e-09
0.00192
7.12945e-09
0.00192
7.12179e-09
0.00192
7.11349e-09
0.00192
7.10446e-09
0.00192
7.09464e-09
0.00192
7.08392e-09
0.00192
7.07221e-09
0.00192
7.05939e-09
0.00192
7.04536e-09
0.00192
7.02998e-09
0.00192
7.0131e-09
0.00192
6.99456e-09
0.00192
6.97419e-09
0.00192
6.9518e-09
0.00192
6.92717e-09
0.00192
6.90007e-09
0.00192
6.87024e-09
0.00192
6.8374e-09
0.00192
6.80125e-09
0.00192
6.76145e-09
0.00192
6.71764e-09
0.00192
6.6694e-09
0.00192
6.61629e-09
0.00192
6.55784e-09
0.00192
6.49351e-09
0.00192
6.42271e-09
0.00192
6.3448e-09
0.00192
6.25909e-09
0.00192
6.16474e-09
0.00192
6.06097e-09
0.00192
5.94664e-09
0.00192
5.82089e-09
0.00192
5.68211e-09
0.00192
5.52897e-09
0.00192
5.36035e-09
0.00192
5.17195e-09
0.00192
4.97539e-09
0.00192
0.00192
1.28426e-08
0.00192
1.28335e-08
0.00192
1.28245e-08
0.00192
1.28156e-08
0.00192
1.28067e-08
0.00192
1.27978e-08
0.00192
1.27888e-08
0.00192
1.27798e-08
0.00192
1.2771e-08
0.00192
1.27622e-08
0.00192
1.27534e-08
0.00192
1.27446e-08
0.00192
1.2736e-08
0.00192
1.27274e-08
0.00192
1.2719e-08
0.00192
1.27106e-08
0.00192
1.27024e-08
0.00192
1.26943e-08
0.00192
1.26863e-08
0.00192
1.26784e-08
0.00192
1.26707e-08
0.00192
1.26632e-08
0.00192
1.26558e-08
0.00192
1.26486e-08
0.00192
1.26415e-08
0.00192
1.26347e-08
0.00192
1.2628e-08
0.00192
1.26216e-08
0.00192
1.26154e-08
0.00192
1.26094e-08
0.00192
1.26036e-08
0.00192
1.25981e-08
0.00192
1.25928e-08
0.00192
1.25877e-08
0.00192
1.25829e-08
0.00192
1.25782e-08
0.00192
1.25737e-08
0.00192
1.25694e-08
0.00192
1.25653e-08
0.00192
1.25612e-08
0.00192
1.25573e-08
0.00192
1.25535e-08
0.00192
1.25498e-08
0.00192
1.25461e-08
0.00192
1.25424e-08
0.00192
1.25388e-08
0.00192
1.25352e-08
0.00192
1.25316e-08
0.00192
1.2528e-08
0.00192
1.25243e-08
0.00192
1.25207e-08
0.00192
1.2517e-08
0.00192
1.25132e-08
0.00192
1.25095e-08
0.00192
1.25057e-08
0.00192
1.25018e-08
0.00192
1.2498e-08
0.00192
1.2494e-08
0.00192
1.24901e-08
0.00192
1.2486e-08
0.00192
1.2482e-08
0.00192
1.24779e-08
0.00192
1.24737e-08
0.00192
1.24695e-08
0.00192
1.24653e-08
0.00192
1.2461e-08
0.00192
1.24567e-08
0.00192
1.24524e-08
0.00192
1.2448e-08
0.00192
1.24436e-08
0.00192
1.24392e-08
0.00192
1.24347e-08
0.00192
1.24302e-08
0.00192
1.24256e-08
0.00192
1.24211e-08
0.00192
1.24165e-08
0.00192
1.24119e-08
0.00192
1.24073e-08
0.00192
1.24026e-08
0.00192
1.23979e-08
0.00192
1.23932e-08
0.00192
1.23885e-08
0.00192
1.23838e-08
0.00192
1.23791e-08
0.00192
1.23743e-08
0.00192
1.23695e-08
0.00192
1.23647e-08
0.00192
1.23599e-08
0.00192
1.23551e-08
0.00192
1.23503e-08
0.00192
1.23455e-08
0.00192
1.23406e-08
0.00192
1.23358e-08
0.00192
1.23309e-08
0.00192
1.23261e-08
0.00192
1.23212e-08
0.00192
1.23163e-08
0.00192
1.23114e-08
0.00192
1.23065e-08
0.00192
1.23016e-08
0.00192
1.22967e-08
0.00192
1.22918e-08
0.00192
1.22869e-08
0.00192
1.2282e-08
0.00192
1.22771e-08
0.00192
1.22721e-08
0.00192
1.22672e-08
0.00192
1.22622e-08
0.00192
1.22573e-08
0.00192
1.22523e-08
0.00192
1.22474e-08
0.00192
1.22424e-08
0.00192
1.22374e-08
0.00192
1.22324e-08
0.00192
1.22273e-08
0.00192
1.22223e-08
0.00192
1.22172e-08
0.00192
1.22121e-08
0.00192
1.2207e-08
0.00192
1.22018e-08
0.00192
1.21967e-08
0.00192
1.21914e-08
0.00192
1.21861e-08
0.00192
1.21808e-08
0.00192
1.21754e-08
0.00192
1.21699e-08
0.00192
1.21644e-08
0.00192
1.21587e-08
0.00192
1.21529e-08
0.00192
1.21471e-08
0.00192
1.2141e-08
0.00192
1.21349e-08
0.00192
1.21285e-08
0.00192
1.2122e-08
0.00192
1.21152e-08
0.00192
1.21082e-08
0.00192
1.21009e-08
0.00192
1.20933e-08
0.00192
1.20854e-08
0.00192
1.20771e-08
0.00192
1.20683e-08
0.00192
1.2059e-08
0.00192
1.20492e-08
0.00192
1.20387e-08
0.00192
1.20276e-08
0.00192
1.20157e-08
0.00192
1.2003e-08
0.00192
1.19893e-08
0.00192
1.19746e-08
0.00192
1.19587e-08
0.00192
1.19414e-08
0.00192
1.19228e-08
0.00192
1.19025e-08
0.00192
1.18804e-08
0.00192
1.18564e-08
0.00192
1.18302e-08
0.00192
1.18016e-08
0.00192
1.17703e-08
0.00192
1.17361e-08
0.00192
1.16987e-08
0.00192
1.16577e-08
0.00192
1.16127e-08
0.00192
1.15633e-08
0.00192
1.15092e-08
0.00192
1.14498e-08
0.00192
1.13846e-08
0.00192
1.1313e-08
0.00192
1.12344e-08
0.00192
1.11481e-08
0.00192
1.10533e-08
0.00192
1.09492e-08
0.00192
1.08349e-08
0.00192
1.07093e-08
0.00192
1.05713e-08
0.00192
1.04198e-08
0.00192
1.02531e-08
0.00192
1.00701e-08
0.00192
9.86832e-09
0.00192
9.6461e-09
0.00192
9.40115e-09
0.00192
9.12749e-09
0.00192
8.81811e-09
0.00192
0.00192
1.42623e-08
1.42525e-08
0.00192
1.42421e-08
0.00192
1.42317e-08
0.00192
1.42214e-08
0.00192
1.42109e-08
0.00192
1.42004e-08
0.00192
1.419e-08
0.00192
1.41797e-08
0.00192
1.41694e-08
0.00192
1.41591e-08
0.00192
1.41489e-08
0.00192
1.41388e-08
0.00192
1.41288e-08
0.00192
1.41189e-08
0.00192
1.4109e-08
0.00192
1.40993e-08
0.00192
1.40897e-08
0.00192
1.40803e-08
0.00192
1.4071e-08
0.00192
1.40618e-08
0.00192
1.40528e-08
0.00192
1.4044e-08
0.00192
1.40353e-08
0.00192
1.40268e-08
0.00192
1.40185e-08
0.00192
1.40104e-08
0.00192
1.40025e-08
0.00192
1.39948e-08
0.00192
1.39874e-08
0.00192
1.39802e-08
0.00192
1.39733e-08
0.00192
1.39665e-08
0.00192
1.396e-08
0.00192
1.39537e-08
0.00192
1.39477e-08
0.00192
1.39418e-08
0.00192
1.39361e-08
0.00192
1.39305e-08
0.00192
1.39251e-08
0.00192
1.39198e-08
0.00192
1.39146e-08
0.00192
1.39095e-08
0.00192
1.39044e-08
0.00192
1.38994e-08
0.00192
1.38944e-08
0.00192
1.38894e-08
0.00192
1.38844e-08
0.00192
1.38794e-08
0.00192
1.38744e-08
0.00192
1.38693e-08
0.00192
1.38643e-08
0.00192
1.38592e-08
0.00192
1.3854e-08
0.00192
1.38488e-08
0.00192
1.38436e-08
0.00192
1.38384e-08
0.00192
1.38331e-08
0.00192
1.38277e-08
0.00192
1.38223e-08
0.00192
1.38169e-08
0.00192
1.38114e-08
0.00192
1.38059e-08
0.00192
1.38003e-08
0.00192
1.37947e-08
0.00192
1.37891e-08
0.00192
1.37834e-08
0.00192
1.37777e-08
0.00192
1.3772e-08
0.00192
1.37662e-08
0.00192
1.37604e-08
0.00192
1.37545e-08
0.00192
1.37487e-08
0.00192
1.37427e-08
0.00192
1.37368e-08
0.00192
1.37309e-08
0.00192
1.37249e-08
0.00192
1.37189e-08
0.00192
1.37129e-08
0.00192
1.37068e-08
0.00192
1.37007e-08
0.00192
1.36947e-08
0.00192
1.36886e-08
0.00192
1.36825e-08
0.00192
1.36763e-08
0.00192
1.36702e-08
0.00192
1.3664e-08
0.00192
1.36578e-08
0.00192
1.36517e-08
0.00192
1.36455e-08
0.00192
1.36393e-08
0.00192
1.3633e-08
0.00192
1.36268e-08
0.00192
1.36206e-08
0.00192
1.36143e-08
0.00192
1.36081e-08
0.00192
1.36018e-08
0.00192
1.35956e-08
0.00192
1.35893e-08
0.00192
1.3583e-08
0.00192
1.35767e-08
0.00192
1.35704e-08
0.00192
1.35641e-08
0.00192
1.35578e-08
0.00192
1.35515e-08
0.00192
1.35452e-08
0.00192
1.35389e-08
0.00192
1.35325e-08
0.00192
1.35262e-08
0.00192
1.35198e-08
0.00192
1.35134e-08
0.00192
1.3507e-08
0.00192
1.35006e-08
0.00192
1.34942e-08
0.00192
1.34878e-08
0.00192
1.34813e-08
0.00192
1.34748e-08
0.00192
1.34683e-08
0.00192
1.34618e-08
0.00192
1.34552e-08
0.00192
1.34486e-08
0.00192
1.34419e-08
0.00192
1.34352e-08
0.00192
1.34284e-08
0.00192
1.34215e-08
0.00192
1.34146e-08
0.00192
1.34075e-08
0.00192
1.34004e-08
0.00192
1.33932e-08
0.00192
1.33858e-08
0.00192
1.33783e-08
0.00192
1.33706e-08
0.00192
1.33627e-08
0.00192
1.33547e-08
0.00192
1.33464e-08
0.00192
1.33378e-08
0.00192
1.3329e-08
0.00192
1.33198e-08
0.00192
1.33102e-08
0.00192
1.33003e-08
0.00192
1.32899e-08
0.00192
1.3279e-08
0.00192
1.32675e-08
0.00192
1.32554e-08
0.00192
1.32426e-08
0.00192
1.3229e-08
0.00192
1.32145e-08
0.00192
1.31991e-08
0.00192
1.31825e-08
0.00192
1.31648e-08
0.00192
1.31458e-08
0.00192
1.31253e-08
0.00192
1.31031e-08
0.00192
1.30791e-08
0.00192
1.30532e-08
0.00192
1.3025e-08
0.00192
1.29945e-08
0.00192
1.29612e-08
0.00192
1.2925e-08
0.00192
1.28854e-08
0.00192
1.28423e-08
0.00192
1.27952e-08
0.00192
1.27438e-08
0.00192
1.26875e-08
0.00192
1.26259e-08
0.00192
1.25585e-08
0.00192
1.24847e-08
0.00192
1.24039e-08
0.00192
1.23154e-08
0.00192
1.22184e-08
0.00192
1.21121e-08
0.00192
1.19956e-08
0.00192
1.18678e-08
0.00192
1.17278e-08
0.00192
1.15742e-08
0.00192
1.14056e-08
0.00192
1.12206e-08
0.00192
1.10172e-08
0.00192
1.07935e-08
0.00192
1.05468e-08
0.00192
1.02725e-08
0.00192
9.9658e-09
0.00192
0.00192
1.43883e-08
1.43778e-08
0.00192
1.4367e-08
0.00192
1.43561e-08
0.00192
1.43451e-08
0.00192
1.43342e-08
0.00192
1.43234e-08
0.00192
1.43126e-08
0.00192
1.43018e-08
0.00192
1.42911e-08
0.00192
1.42804e-08
0.00192
1.42698e-08
0.00192
1.42593e-08
0.00192
1.42489e-08
0.00192
1.42387e-08
0.00192
1.42285e-08
0.00192
1.42184e-08
0.00192
1.42085e-08
0.00192
1.41987e-08
0.00192
1.41891e-08
0.00192
1.41796e-08
0.00192
1.41702e-08
0.00192
1.41611e-08
0.00192
1.41521e-08
0.00192
1.41434e-08
0.00192
1.41348e-08
0.00192
1.41264e-08
0.00192
1.41183e-08
0.00192
1.41104e-08
0.00192
1.41027e-08
0.00192
1.40953e-08
0.00192
1.40881e-08
0.00192
1.40812e-08
0.00192
1.40744e-08
0.00192
1.40679e-08
0.00192
1.40616e-08
0.00192
1.40554e-08
0.00192
1.40494e-08
0.00192
1.40436e-08
0.00192
1.40379e-08
0.00192
1.40322e-08
0.00192
1.40267e-08
0.00192
1.40211e-08
0.00192
1.40157e-08
0.00192
1.40102e-08
0.00192
1.40048e-08
0.00192
1.39994e-08
0.00192
1.3994e-08
0.00192
1.39885e-08
0.00192
1.39831e-08
0.00192
1.39776e-08
0.00192
1.3972e-08
0.00192
1.39665e-08
0.00192
1.39609e-08
0.00192
1.39552e-08
0.00192
1.39495e-08
0.00192
1.39438e-08
0.00192
1.3938e-08
0.00192
1.39322e-08
0.00192
1.39264e-08
0.00192
1.39205e-08
0.00192
1.39145e-08
0.00192
1.39085e-08
0.00192
1.39025e-08
0.00192
1.38964e-08
0.00192
1.38903e-08
0.00192
1.38842e-08
0.00192
1.3878e-08
0.00192
1.38718e-08
0.00192
1.38656e-08
0.00192
1.38593e-08
0.00192
1.3853e-08
0.00192
1.38467e-08
0.00192
1.38403e-08
0.00192
1.38339e-08
0.00192
1.38275e-08
0.00192
1.38211e-08
0.00192
1.38147e-08
0.00192
1.38082e-08
0.00192
1.38017e-08
0.00192
1.37952e-08
0.00192
1.37887e-08
0.00192
1.37821e-08
0.00192
1.37756e-08
0.00192
1.3769e-08
0.00192
1.37624e-08
0.00192
1.37558e-08
0.00192
1.37492e-08
0.00192
1.37426e-08
0.00192
1.37359e-08
0.00192
1.37293e-08
0.00192
1.37226e-08
0.00192
1.3716e-08
0.00192
1.37093e-08
0.00192
1.37026e-08
0.00192
1.36959e-08
0.00192
1.36892e-08
0.00192
1.36825e-08
0.00192
1.36758e-08
0.00192
1.36691e-08
0.00192
1.36623e-08
0.00192
1.36556e-08
0.00192
1.36488e-08
0.00192
1.36421e-08
0.00192
1.36353e-08
0.00192
1.36285e-08
0.00192
1.36217e-08
0.00192
1.36149e-08
0.00192
1.36081e-08
0.00192
1.36013e-08
0.00192
1.35945e-08
0.00192
1.35876e-08
0.00192
1.35807e-08
0.00192
1.35738e-08
0.00192
1.35669e-08
0.00192
1.35599e-08
0.00192
1.35529e-08
0.00192
1.35459e-08
0.00192
1.35388e-08
0.00192
1.35317e-08
0.00192
1.35246e-08
0.00192
1.35173e-08
0.00192
1.351e-08
0.00192
1.35027e-08
0.00192
1.34952e-08
0.00192
1.34876e-08
0.00192
1.348e-08
0.00192
1.34722e-08
0.00192
1.34643e-08
0.00192
1.34562e-08
0.00192
1.3448e-08
0.00192
1.34395e-08
0.00192
1.34309e-08
0.00192
1.3422e-08
0.00192
1.34128e-08
0.00192
1.34033e-08
0.00192
1.33935e-08
0.00192
1.33833e-08
0.00192
1.33727e-08
0.00192
1.33616e-08
0.00192
1.335e-08
0.00192
1.33378e-08
0.00192
1.3325e-08
0.00192
1.33114e-08
0.00192
1.32971e-08
0.00192
1.32818e-08
0.00192
1.32655e-08
0.00192
1.32482e-08
0.00192
1.32296e-08
0.00192
1.32097e-08
0.00192
1.31883e-08
0.00192
1.31652e-08
0.00192
1.31403e-08
0.00192
1.31133e-08
0.00192
1.30842e-08
0.00192
1.30526e-08
0.00192
1.30182e-08
0.00192
1.29809e-08
0.00192
1.29403e-08
0.00192
1.2896e-08
0.00192
1.28478e-08
0.00192
1.27951e-08
0.00192
1.27376e-08
0.00192
1.26748e-08
0.00192
1.26061e-08
0.00192
1.25311e-08
0.00192
1.2449e-08
0.00192
1.23592e-08
0.00192
1.22609e-08
0.00192
1.21533e-08
0.00192
1.20356e-08
0.00192
1.19066e-08
0.00192
1.17654e-08
0.00192
1.16107e-08
0.00192
1.1441e-08
0.00192
1.12551e-08
0.00192
1.10508e-08
0.00192
1.08265e-08
0.00192
1.05794e-08
0.00192
1.03058e-08
0.00192
1.00022e-08
0.00192
0.00192
1.41653e-08
1.41546e-08
0.00192
1.41436e-08
0.00192
1.41326e-08
0.00192
1.41217e-08
0.00192
1.41108e-08
0.00192
1.41e-08
0.00192
1.40892e-08
0.00192
1.40785e-08
0.00192
1.40677e-08
0.00192
1.40571e-08
0.00192
1.40466e-08
0.00192
1.40362e-08
0.00192
1.40258e-08
0.00192
1.40156e-08
0.00192
1.40055e-08
0.00192
1.39955e-08
0.00192
1.39857e-08
0.00192
1.3976e-08
0.00192
1.39665e-08
0.00192
1.39571e-08
0.00192
1.39479e-08
0.00192
1.39389e-08
0.00192
1.39301e-08
0.00192
1.39214e-08
0.00192
1.3913e-08
0.00192
1.39049e-08
0.00192
1.38969e-08
0.00192
1.38892e-08
0.00192
1.38817e-08
0.00192
1.38745e-08
0.00192
1.38675e-08
0.00192
1.38608e-08
0.00192
1.38542e-08
0.00192
1.38478e-08
0.00192
1.38417e-08
0.00192
1.38356e-08
0.00192
1.38298e-08
0.00192
1.3824e-08
0.00192
1.38184e-08
0.00192
1.38128e-08
0.00192
1.38072e-08
0.00192
1.38018e-08
0.00192
1.37963e-08
0.00192
1.37909e-08
0.00192
1.37854e-08
0.00192
1.378e-08
0.00192
1.37745e-08
0.00192
1.3769e-08
0.00192
1.37635e-08
0.00192
1.3758e-08
0.00192
1.37524e-08
0.00192
1.37467e-08
0.00192
1.37411e-08
0.00192
1.37354e-08
0.00192
1.37296e-08
0.00192
1.37238e-08
0.00192
1.3718e-08
0.00192
1.37121e-08
0.00192
1.37062e-08
0.00192
1.37002e-08
0.00192
1.36942e-08
0.00192
1.36882e-08
0.00192
1.36821e-08
0.00192
1.3676e-08
0.00192
1.36698e-08
0.00192
1.36636e-08
0.00192
1.36574e-08
0.00192
1.36512e-08
0.00192
1.36449e-08
0.00192
1.36385e-08
0.00192
1.36322e-08
0.00192
1.36258e-08
0.00192
1.36194e-08
0.00192
1.3613e-08
0.00192
1.36066e-08
0.00192
1.36001e-08
0.00192
1.35936e-08
0.00192
1.35871e-08
0.00192
1.35806e-08
0.00192
1.3574e-08
0.00192
1.35675e-08
0.00192
1.35609e-08
0.00192
1.35543e-08
0.00192
1.35477e-08
0.00192
1.3541e-08
0.00192
1.35344e-08
0.00192
1.35278e-08
0.00192
1.35211e-08
0.00192
1.35144e-08
0.00192
1.35078e-08
0.00192
1.35011e-08
0.00192
1.34944e-08
0.00192
1.34877e-08
0.00192
1.34809e-08
0.00192
1.34742e-08
0.00192
1.34675e-08
0.00192
1.34607e-08
0.00192
1.3454e-08
0.00192
1.34472e-08
0.00192
1.34404e-08
0.00192
1.34337e-08
0.00192
1.34269e-08
0.00192
1.34201e-08
0.00192
1.34132e-08
0.00192
1.34064e-08
0.00192
1.33996e-08
0.00192
1.33927e-08
0.00192
1.33858e-08
0.00192
1.33789e-08
0.00192
1.3372e-08
0.00192
1.33651e-08
0.00192
1.33581e-08
0.00192
1.33511e-08
0.00192
1.33441e-08
0.00192
1.33371e-08
0.00192
1.333e-08
0.00192
1.33228e-08
0.00192
1.33156e-08
0.00192
1.33084e-08
0.00192
1.3301e-08
0.00192
1.32937e-08
0.00192
1.32862e-08
0.00192
1.32786e-08
0.00192
1.32709e-08
0.00192
1.32632e-08
0.00192
1.32553e-08
0.00192
1.32472e-08
0.00192
1.3239e-08
0.00192
1.32306e-08
0.00192
1.3222e-08
0.00192
1.32131e-08
0.00192
1.32041e-08
0.00192
1.31947e-08
0.00192
1.3185e-08
0.00192
1.3175e-08
0.00192
1.31646e-08
0.00192
1.31537e-08
0.00192
1.31424e-08
0.00192
1.31305e-08
0.00192
1.3118e-08
0.00192
1.31048e-08
0.00192
1.30909e-08
0.00192
1.30762e-08
0.00192
1.30606e-08
0.00192
1.3044e-08
0.00192
1.30262e-08
0.00192
1.30072e-08
0.00192
1.29868e-08
0.00192
1.29649e-08
0.00192
1.29414e-08
0.00192
1.29159e-08
0.00192
1.28885e-08
0.00192
1.28587e-08
0.00192
1.28265e-08
0.00192
1.27916e-08
0.00192
1.27536e-08
0.00192
1.27123e-08
0.00192
1.26674e-08
0.00192
1.26184e-08
0.00192
1.2565e-08
0.00192
1.25068e-08
0.00192
1.24432e-08
0.00192
1.23738e-08
0.00192
1.2298e-08
0.00192
1.22152e-08
0.00192
1.21246e-08
0.00192
1.20255e-08
0.00192
1.19172e-08
0.00192
1.17987e-08
0.00192
1.16691e-08
0.00192
1.15272e-08
0.00192
1.13719e-08
0.00192
1.12018e-08
0.00192
1.10155e-08
0.00192
1.08111e-08
0.00192
1.05868e-08
0.00192
1.034e-08
0.00192
1.00679e-08
0.00192
9.76771e-09
0.00192
0.00192
1.38632e-08
0.00192
1.38523e-08
0.00192
1.38414e-08
0.00192
1.38306e-08
0.00192
1.38199e-08
0.00192
1.38091e-08
0.00192
1.37985e-08
0.00192
1.37878e-08
0.00192
1.37772e-08
0.00192
1.37667e-08
0.00192
1.37562e-08
0.00192
1.37459e-08
0.00192
1.37357e-08
0.00192
1.37255e-08
0.00192
1.37155e-08
0.00192
1.37056e-08
0.00192
1.36959e-08
0.00192
1.36863e-08
0.00192
1.36768e-08
0.00192
1.36675e-08
0.00192
1.36584e-08
0.00192
1.36495e-08
0.00192
1.36407e-08
0.00192
1.36322e-08
0.00192
1.36239e-08
0.00192
1.36158e-08
0.00192
1.36079e-08
0.00192
1.36003e-08
0.00192
1.35929e-08
0.00192
1.35858e-08
0.00192
1.35788e-08
0.00192
1.35722e-08
0.00192
1.35657e-08
0.00192
1.35595e-08
0.00192
1.35534e-08
0.00192
1.35475e-08
0.00192
1.35417e-08
0.00192
1.3536e-08
0.00192
1.35305e-08
0.00192
1.3525e-08
0.00192
1.35196e-08
0.00192
1.35142e-08
0.00192
1.35088e-08
0.00192
1.35035e-08
0.00192
1.34982e-08
0.00192
1.34928e-08
0.00192
1.34875e-08
0.00192
1.34821e-08
0.00192
1.34767e-08
0.00192
1.34712e-08
0.00192
1.34657e-08
0.00192
1.34602e-08
0.00192
1.34547e-08
0.00192
1.3449e-08
0.00192
1.34434e-08
0.00192
1.34377e-08
0.00192
1.3432e-08
0.00192
1.34262e-08
0.00192
1.34204e-08
0.00192
1.34145e-08
0.00192
1.34086e-08
0.00192
1.34027e-08
0.00192
1.33967e-08
0.00192
1.33907e-08
0.00192
1.33847e-08
0.00192
1.33786e-08
0.00192
1.33724e-08
0.00192
1.33663e-08
0.00192
1.33601e-08
0.00192
1.33539e-08
0.00192
1.33476e-08
0.00192
1.33414e-08
0.00192
1.33351e-08
0.00192
1.33288e-08
0.00192
1.33224e-08
0.00192
1.33161e-08
0.00192
1.33097e-08
0.00192
1.33033e-08
0.00192
1.32968e-08
0.00192
1.32904e-08
0.00192
1.32839e-08
0.00192
1.32775e-08
0.00192
1.3271e-08
0.00192
1.32645e-08
0.00192
1.32579e-08
0.00192
1.32514e-08
0.00192
1.32449e-08
0.00192
1.32383e-08
0.00192
1.32317e-08
0.00192
1.32252e-08
0.00192
1.32186e-08
0.00192
1.3212e-08
0.00192
1.32054e-08
0.00192
1.31987e-08
0.00192
1.31921e-08
0.00192
1.31855e-08
0.00192
1.31788e-08
0.00192
1.31722e-08
0.00192
1.31655e-08
0.00192
1.31588e-08
0.00192
1.31521e-08
0.00192
1.31454e-08
0.00192
1.31387e-08
0.00192
1.31319e-08
0.00192
1.31252e-08
0.00192
1.31184e-08
0.00192
1.31117e-08
0.00192
1.31049e-08
0.00192
1.30981e-08
0.00192
1.30912e-08
0.00192
1.30843e-08
0.00192
1.30775e-08
0.00192
1.30705e-08
0.00192
1.30636e-08
0.00192
1.30566e-08
0.00192
1.30495e-08
0.00192
1.30424e-08
0.00192
1.30353e-08
0.00192
1.3028e-08
0.00192
1.30208e-08
0.00192
1.30134e-08
0.00192
1.3006e-08
0.00192
1.29984e-08
0.00192
1.29907e-08
0.00192
1.2983e-08
0.00192
1.29751e-08
0.00192
1.2967e-08
0.00192
1.29588e-08
0.00192
1.29503e-08
0.00192
1.29417e-08
0.00192
1.29328e-08
0.00192
1.29237e-08
0.00192
1.29142e-08
0.00192
1.29045e-08
0.00192
1.28944e-08
0.00192
1.28838e-08
0.00192
1.28729e-08
0.00192
1.28614e-08
0.00192
1.28494e-08
0.00192
1.28367e-08
0.00192
1.28234e-08
0.00192
1.28093e-08
0.00192
1.27944e-08
0.00192
1.27785e-08
0.00192
1.27617e-08
0.00192
1.27436e-08
0.00192
1.27244e-08
0.00192
1.27037e-08
0.00192
1.26815e-08
0.00192
1.26576e-08
0.00192
1.26318e-08
0.00192
1.26039e-08
0.00192
1.25738e-08
0.00192
1.25412e-08
0.00192
1.25058e-08
0.00192
1.24674e-08
0.00192
1.24256e-08
0.00192
1.23802e-08
0.00192
1.23307e-08
0.00192
1.22768e-08
0.00192
1.22181e-08
0.00192
1.2154e-08
0.00192
1.2084e-08
0.00192
1.20076e-08
0.00192
1.19242e-08
0.00192
1.18331e-08
0.00192
1.17336e-08
0.00192
1.16248e-08
0.00192
1.15058e-08
0.00192
1.13758e-08
0.00192
1.12336e-08
0.00192
1.10781e-08
0.00192
1.09078e-08
0.00192
1.07215e-08
0.00192
1.05173e-08
0.00192
1.02934e-08
0.00192
1.00475e-08
0.00192
9.77722e-09
0.00192
9.48033e-09
0.00192
0.00192
1.35561e-08
1.35458e-08
0.00192
1.3535e-08
0.00192
1.35244e-08
0.00192
1.35138e-08
0.00192
1.35031e-08
0.00192
1.34926e-08
0.00192
1.3482e-08
0.00192
1.34716e-08
0.00192
1.34612e-08
0.00192
1.34509e-08
0.00192
1.34407e-08
0.00192
1.34305e-08
0.00192
1.34205e-08
0.00192
1.34106e-08
0.00192
1.34009e-08
0.00192
1.33912e-08
0.00192
1.33817e-08
0.00192
1.33724e-08
0.00192
1.33632e-08
0.00192
1.33542e-08
0.00192
1.33454e-08
0.00192
1.33367e-08
0.00192
1.33283e-08
0.00192
1.33201e-08
0.00192
1.33121e-08
0.00192
1.33044e-08
0.00192
1.32968e-08
0.00192
1.32896e-08
0.00192
1.32826e-08
0.00192
1.32758e-08
0.00192
1.32692e-08
0.00192
1.32629e-08
0.00192
1.32568e-08
0.00192
1.32508e-08
0.00192
1.3245e-08
0.00192
1.32394e-08
0.00192
1.32339e-08
0.00192
1.32284e-08
0.00192
1.32231e-08
0.00192
1.32178e-08
0.00192
1.32126e-08
0.00192
1.32073e-08
0.00192
1.32021e-08
0.00192
1.31969e-08
0.00192
1.31917e-08
0.00192
1.31865e-08
0.00192
1.31812e-08
0.00192
1.31759e-08
0.00192
1.31706e-08
0.00192
1.31653e-08
0.00192
1.31599e-08
0.00192
1.31545e-08
0.00192
1.3149e-08
0.00192
1.31435e-08
0.00192
1.31379e-08
0.00192
1.31323e-08
0.00192
1.31267e-08
0.00192
1.3121e-08
0.00192
1.31153e-08
0.00192
1.31095e-08
0.00192
1.31037e-08
0.00192
1.30979e-08
0.00192
1.3092e-08
0.00192
1.30861e-08
0.00192
1.30801e-08
0.00192
1.30741e-08
0.00192
1.30681e-08
0.00192
1.3062e-08
0.00192
1.3056e-08
0.00192
1.30498e-08
0.00192
1.30437e-08
0.00192
1.30376e-08
0.00192
1.30314e-08
0.00192
1.30252e-08
0.00192
1.30189e-08
0.00192
1.30127e-08
0.00192
1.30064e-08
0.00192
1.30001e-08
0.00192
1.29938e-08
0.00192
1.29875e-08
0.00192
1.29811e-08
0.00192
1.29748e-08
0.00192
1.29684e-08
0.00192
1.2962e-08
0.00192
1.29556e-08
0.00192
1.29492e-08
0.00192
1.29428e-08
0.00192
1.29363e-08
0.00192
1.29299e-08
0.00192
1.29234e-08
0.00192
1.29169e-08
0.00192
1.29105e-08
0.00192
1.2904e-08
0.00192
1.28975e-08
0.00192
1.2891e-08
0.00192
1.28844e-08
0.00192
1.28779e-08
0.00192
1.28713e-08
0.00192
1.28648e-08
0.00192
1.28582e-08
0.00192
1.28516e-08
0.00192
1.2845e-08
0.00192
1.28384e-08
0.00192
1.28318e-08
0.00192
1.28251e-08
0.00192
1.28184e-08
0.00192
1.28118e-08
0.00192
1.2805e-08
0.00192
1.27983e-08
0.00192
1.27915e-08
0.00192
1.27847e-08
0.00192
1.27779e-08
0.00192
1.2771e-08
0.00192
1.27641e-08
0.00192
1.27572e-08
0.00192
1.27501e-08
0.00192
1.27431e-08
0.00192
1.27359e-08
0.00192
1.27287e-08
0.00192
1.27214e-08
0.00192
1.2714e-08
0.00192
1.27065e-08
0.00192
1.26989e-08
0.00192
1.26912e-08
0.00192
1.26833e-08
0.00192
1.26752e-08
0.00192
1.2667e-08
0.00192
1.26586e-08
0.00192
1.265e-08
0.00192
1.26411e-08
0.00192
1.26319e-08
0.00192
1.26225e-08
0.00192
1.26127e-08
0.00192
1.26025e-08
0.00192
1.25919e-08
0.00192
1.25809e-08
0.00192
1.25693e-08
0.00192
1.25572e-08
0.00192
1.25444e-08
0.00192
1.2531e-08
0.00192
1.25167e-08
0.00192
1.25017e-08
0.00192
1.24856e-08
0.00192
1.24686e-08
0.00192
1.24503e-08
0.00192
1.24308e-08
0.00192
1.24099e-08
0.00192
1.23875e-08
0.00192
1.23633e-08
0.00192
1.23372e-08
0.00192
1.2309e-08
0.00192
1.22786e-08
0.00192
1.22456e-08
0.00192
1.22099e-08
0.00192
1.21711e-08
0.00192
1.21289e-08
0.00192
1.20831e-08
0.00192
1.20332e-08
0.00192
1.19789e-08
0.00192
1.19197e-08
0.00192
1.18552e-08
0.00192
1.17848e-08
0.00192
1.17081e-08
0.00192
1.16243e-08
0.00192
1.15328e-08
0.00192
1.14329e-08
0.00192
1.13238e-08
0.00192
1.12046e-08
0.00192
1.10743e-08
0.00192
1.0932e-08
0.00192
1.07764e-08
0.00192
1.06062e-08
0.00192
1.04202e-08
0.00192
1.02164e-08
0.00192
9.99334e-09
0.00192
9.74867e-09
0.00192
9.48043e-09
0.00192
9.18673e-09
0.00192
0.00192
1.32366e-08
1.32261e-08
0.00192
1.32156e-08
0.00192
1.3205e-08
0.00192
1.31945e-08
0.00192
1.31841e-08
0.00192
1.31737e-08
0.00192
1.31634e-08
0.00192
1.31531e-08
0.00192
1.31429e-08
0.00192
1.31329e-08
0.00192
1.31229e-08
0.00192
1.3113e-08
0.00192
1.31032e-08
0.00192
1.30936e-08
0.00192
1.30841e-08
0.00192
1.30747e-08
0.00192
1.30655e-08
0.00192
1.30564e-08
0.00192
1.30475e-08
0.00192
1.30388e-08
0.00192
1.30303e-08
0.00192
1.3022e-08
0.00192
1.30139e-08
0.00192
1.3006e-08
0.00192
1.29984e-08
0.00192
1.2991e-08
0.00192
1.29838e-08
0.00192
1.29769e-08
0.00192
1.29703e-08
0.00192
1.29639e-08
0.00192
1.29577e-08
0.00192
1.29517e-08
0.00192
1.29459e-08
0.00192
1.29402e-08
0.00192
1.29347e-08
0.00192
1.29293e-08
0.00192
1.2924e-08
0.00192
1.29188e-08
0.00192
1.29137e-08
0.00192
1.29086e-08
0.00192
1.29035e-08
0.00192
1.28984e-08
0.00192
1.28933e-08
0.00192
1.28883e-08
0.00192
1.28832e-08
0.00192
1.2878e-08
0.00192
1.28729e-08
0.00192
1.28677e-08
0.00192
1.28625e-08
0.00192
1.28573e-08
0.00192
1.2852e-08
0.00192
1.28466e-08
0.00192
1.28413e-08
0.00192
1.28358e-08
0.00192
1.28304e-08
0.00192
1.28249e-08
0.00192
1.28193e-08
0.00192
1.28137e-08
0.00192
1.28081e-08
0.00192
1.28024e-08
0.00192
1.27967e-08
0.00192
1.2791e-08
0.00192
1.27852e-08
0.00192
1.27794e-08
0.00192
1.27736e-08
0.00192
1.27677e-08
0.00192
1.27618e-08
0.00192
1.27558e-08
0.00192
1.27499e-08
0.00192
1.27439e-08
0.00192
1.27378e-08
0.00192
1.27318e-08
0.00192
1.27257e-08
0.00192
1.27196e-08
0.00192
1.27135e-08
0.00192
1.27074e-08
0.00192
1.27012e-08
0.00192
1.26951e-08
0.00192
1.26889e-08
0.00192
1.26827e-08
0.00192
1.26765e-08
0.00192
1.26702e-08
0.00192
1.2664e-08
0.00192
1.26577e-08
0.00192
1.26514e-08
0.00192
1.26451e-08
0.00192
1.26388e-08
0.00192
1.26325e-08
0.00192
1.26262e-08
0.00192
1.26199e-08
0.00192
1.26135e-08
0.00192
1.26071e-08
0.00192
1.26008e-08
0.00192
1.25944e-08
0.00192
1.2588e-08
0.00192
1.25816e-08
0.00192
1.25752e-08
0.00192
1.25687e-08
0.00192
1.25623e-08
0.00192
1.25558e-08
0.00192
1.25493e-08
0.00192
1.25428e-08
0.00192
1.25363e-08
0.00192
1.25298e-08
0.00192
1.25233e-08
0.00192
1.25167e-08
0.00192
1.25101e-08
0.00192
1.25035e-08
0.00192
1.24968e-08
0.00192
1.24901e-08
0.00192
1.24834e-08
0.00192
1.24766e-08
0.00192
1.24698e-08
0.00192
1.24629e-08
0.00192
1.2456e-08
0.00192
1.2449e-08
0.00192
1.24419e-08
0.00192
1.24348e-08
0.00192
1.24275e-08
0.00192
1.24202e-08
0.00192
1.24128e-08
0.00192
1.24052e-08
0.00192
1.23975e-08
0.00192
1.23897e-08
0.00192
1.23817e-08
0.00192
1.23735e-08
0.00192
1.23651e-08
0.00192
1.23565e-08
0.00192
1.23476e-08
0.00192
1.23384e-08
0.00192
1.23289e-08
0.00192
1.23191e-08
0.00192
1.23089e-08
0.00192
1.22983e-08
0.00192
1.22872e-08
0.00192
1.22756e-08
0.00192
1.22633e-08
0.00192
1.22505e-08
0.00192
1.22369e-08
0.00192
1.22226e-08
0.00192
1.22074e-08
0.00192
1.21912e-08
0.00192
1.2174e-08
0.00192
1.21556e-08
0.00192
1.21359e-08
0.00192
1.21148e-08
0.00192
1.20921e-08
0.00192
1.20677e-08
0.00192
1.20413e-08
0.00192
1.20129e-08
0.00192
1.19822e-08
0.00192
1.19489e-08
0.00192
1.19129e-08
0.00192
1.18738e-08
0.00192
1.18313e-08
0.00192
1.17852e-08
0.00192
1.17349e-08
0.00192
1.16803e-08
0.00192
1.16208e-08
0.00192
1.15559e-08
0.00192
1.14852e-08
0.00192
1.14082e-08
0.00192
1.13241e-08
0.00192
1.12323e-08
0.00192
1.11322e-08
0.00192
1.10229e-08
0.00192
1.09036e-08
0.00192
1.07733e-08
0.00192
1.0631e-08
0.00192
1.04756e-08
0.00192
1.03057e-08
0.00192
1.01201e-08
0.00192
9.91708e-09
0.00192
9.69504e-09
0.00192
9.45186e-09
0.00192
9.18589e-09
0.00192
8.89532e-09
0.00192
0.00192
1.29169e-08
1.29065e-08
0.00192
1.28959e-08
0.00192
1.28855e-08
0.00192
1.28753e-08
0.00192
1.2865e-08
0.00192
1.28548e-08
0.00192
1.28446e-08
0.00192
1.28346e-08
0.00192
1.28247e-08
0.00192
1.28148e-08
0.00192
1.28051e-08
0.00192
1.27954e-08
0.00192
1.27859e-08
0.00192
1.27765e-08
0.00192
1.27673e-08
0.00192
1.27582e-08