/*--------------------------------*- C++ -*----------------------------------*\
| =========                 |                                                 |
| \\      /  F ield         | OpenFOAM: The Open Source CFD Toolbox           |
|  \\    /   O peration     | Version:  2512                                  |
|   \\  /    A nd           | Website:  www.openfoam.com                      |
|    \\/     M anipulation  |                                                 |
\*---------------------------------------------------------------------------*/
FoamFile
{
    version     2.0;
    format      ascii;
    arch        "LSB;label=32;scalar=64";
    class       volVectorField;
    location    "0.1";
    object      U;
}
// * * * * * * * * * * * * * * * * * * * * * * * * * * * * * * * * * * * * * //

dimensions      [0 1 -1 0 0 0 0];

internalField   nonuniform List<vector> 
8334
(
(0.0275544 -6.24629e-06 2.91756e-19)
(0.0275423 -1.56737e-06 4.45657e-20)
(0.0275369 -1.81542e-06 1.93359e-19)
(0.0275328 -1.52962e-06 1.64903e-19)
(0.0275287 -1.77575e-06 3.5563e-19)
(0.0275246 -1.8551e-06 -2.76525e-19)
(0.0275203 -1.63378e-06 1.03898e-19)
(0.0275157 -1.56266e-06 -1.61548e-19)
(0.0275111 -1.59811e-06 2.65477e-19)
(0.0275066 -1.59263e-06 4.05905e-20)
(0.0275019 -1.57148e-06 1.92609e-19)
(0.0274973 -1.55776e-06 1.63513e-19)
(0.0274926 -1.54917e-06 3.42507e-19)
(0.0274878 -1.546e-06 -2.73854e-19)
(0.0274831 -1.54242e-06 1.02133e-19)
(0.0274783 -1.53653e-06 -1.68544e-19)
(0.0274735 -1.53051e-06 2.63561e-19)
(0.0274687 -1.52484e-06 3.31782e-20)
(0.0274639 -1.51946e-06 1.92049e-19)
(0.027459 -1.51427e-06 1.69208e-19)
(0.0274541 -1.50903e-06 3.45245e-19)
(0.0274492 -1.50376e-06 -2.7421e-19)
(0.0274443 -1.49857e-06 1.06813e-19)
(0.0274393 -1.49352e-06 -1.68177e-19)
(0.0274344 -1.48867e-06 2.66771e-19)
(0.0274294 -1.484e-06 3.13218e-20)
(0.0274244 -1.47944e-06 1.91511e-19)
(0.0274194 -1.47501e-06 1.75234e-19)
(0.0274144 -1.47071e-06 3.46885e-19)
(0.0274093 -1.46649e-06 -2.70682e-19)
(0.0274043 -1.46235e-06 1.08351e-19)
(0.0273992 -1.45822e-06 -1.67847e-19)
(0.0273941 -1.45409e-06 2.65238e-19)
(0.027389 -1.44995e-06 3.0633e-20)
(0.0273839 -1.44578e-06 1.908e-19)
(0.0273788 -1.4415e-06 1.70014e-19)
(0.0273737 -1.43709e-06 3.48262e-19)
(0.0273685 -1.43258e-06 -2.79073e-19)
(0.0273633 -1.42797e-06 1.08011e-19)
(0.0273581 -1.42326e-06 -1.62675e-19)
(0.0273529 -1.4184e-06 2.69614e-19)
(0.0273477 -1.41341e-06 3.97961e-20)
(0.0273424 -1.40831e-06 1.95974e-19)
(0.0273372 -1.4031e-06 1.74659e-19)
(0.0273319 -1.3978e-06 3.37283e-19)
(0.0273266 -1.39241e-06 -2.74471e-19)
(0.0273212 -1.38694e-06 1.04191e-19)
(0.0273159 -1.38141e-06 -1.6492e-19)
(0.0273105 -1.37585e-06 2.66199e-19)
(0.0273051 -1.37025e-06 2.55663e-20)
(0.0272997 -1.36462e-06 1.89862e-19)
(0.0272943 -1.35897e-06 1.70858e-19)
(0.0272888 -1.3533e-06 3.39989e-19)
(0.0272834 -1.34761e-06 -2.81833e-19)
(0.0272779 -1.34192e-06 1.07917e-19)
(0.0272724 -1.33623e-06 -1.65762e-19)
(0.0272668 -1.33055e-06 2.76269e-19)
(0.0272613 -1.32488e-06 3.66207e-20)
(0.0272557 -1.31923e-06 1.95676e-19)
(0.0272501 -1.3136e-06 1.78274e-19)
(0.0272445 -1.30798e-06 3.39022e-19)
(0.0272389 -1.3024e-06 -2.7568e-19)
(0.0272332 -1.29684e-06 1.04522e-19)
(0.0272275 -1.29131e-06 -1.60594e-19)
(0.0272218 -1.2858e-06 2.72125e-19)
(0.0272161 -1.28033e-06 2.69079e-20)
(0.0272104 -1.27489e-06 1.9044e-19)
(0.0272046 -1.26949e-06 1.72192e-19)
(0.0271989 -1.26412e-06 3.41914e-19)
(0.0271931 -1.25879e-06 -2.88577e-19)
(0.0271873 -1.2535e-06 1.09391e-19)
(0.0271815 -1.24825e-06 -1.52802e-19)
(0.0271756 -1.24304e-06 2.77337e-19)
(0.0271698 -1.23787e-06 3.95669e-20)
(0.0271639 -1.23274e-06 1.96997e-19)
(0.027158 -1.22765e-06 1.76416e-19)
(0.0271521 -1.2226e-06 3.32307e-19)
(0.0271462 -1.21759e-06 -2.83184e-19)
(0.0271402 -1.21262e-06 1.06008e-19)
(0.0271343 -1.20771e-06 -1.61614e-19)
(0.0271283 -1.20283e-06 2.77149e-19)
(0.0271223 -1.19799e-06 2.11125e-20)
(0.0271163 -1.1932e-06 1.93328e-19)
(0.0271103 -1.18845e-06 1.81943e-19)
(0.0271042 -1.18375e-06 3.437e-19)
(0.0270982 -1.17909e-06 -2.87775e-19)
(0.0270921 -1.17447e-06 1.09076e-19)
(0.027086 -1.1699e-06 -1.54185e-19)
(0.0270799 -1.16538e-06 2.85137e-19)
(0.0270738 -1.16092e-06 3.47462e-20)
(0.0270676 -1.1565e-06 1.96833e-19)
(0.0270615 -1.15213e-06 1.80374e-19)
(0.0270553 -1.14782e-06 3.352e-19)
(0.0270491 -1.14355e-06 -2.90296e-19)
(0.027043 -1.13934e-06 1.13734e-19)
(0.0270367 -1.13517e-06 -1.6177e-19)
(0.0270305 -1.13106e-06 2.83156e-19)
(0.0270243 -1.127e-06 3.15331e-20)
(0.027018 -1.123e-06 2.00749e-19)
(0.0270118 -1.11904e-06 1.88497e-19)
(0.0270055 -1.11514e-06 3.38918e-19)
(0.0269992 -1.1113e-06 -2.86836e-19)
(0.0269929 -1.1075e-06 1.09237e-19)
(0.0269866 -1.10376e-06 -1.53028e-19)
(0.0269803 -1.10009e-06 2.84396e-19)
(0.026974 -1.09647e-06 2.687e-20)
(0.0269676 -1.0929e-06 1.93087e-19)
(0.0269612 -1.0894e-06 1.80424e-19)
(0.0269549 -1.08596e-06 3.34041e-19)
(0.0269485 -1.08258e-06 -2.9277e-19)
(0.0269421 -1.07926e-06 1.09885e-19)
(0.0269357 -1.07601e-06 -1.49071e-19)
(0.0269293 -1.07282e-06 2.80898e-19)
(0.0269229 -1.06969e-06 3.33362e-20)
(0.0269164 -1.06664e-06 1.97982e-19)
(0.02691 -1.06365e-06 1.78111e-19)
(0.0269035 -1.06074e-06 3.2209e-19)
(0.0268971 -1.0579e-06 -2.90165e-19)
(0.0268906 -1.05514e-06 8.25006e-20)
(0.0268841 -1.05246e-06 -6.09465e-20)
(0.0268777 -1.04986e-06 4.84066e-20)
(0.0268712 -1.04735e-06 4.3287e-19)
(0.0268647 -1.04493e-06 -1.34756e-19)
(0.0268582 -1.04261e-06 2.20525e-19)
(0.0268517 -1.04038e-06 -1.11261e-19)
(0.0268452 -1.03826e-06 3.00478e-19)
(0.0268387 -1.03624e-06 4.09633e-20)
(0.0268321 -1.03434e-06 2.05722e-19)
(0.0268256 -1.03257e-06 1.9052e-19)
(0.0268191 -1.03091e-06 3.22991e-19)
(0.0268126 -1.0294e-06 -2.91129e-19)
(0.0268061 -1.02802e-06 1.0911e-19)
(0.0267996 -1.02679e-06 -1.58324e-19)
(0.026793 -1.02572e-06 2.77562e-19)
(0.0267865 -1.02483e-06 2.52076e-20)
(0.02678 -1.02411e-06 1.95853e-19)
(0.0267735 -1.02359e-06 1.82007e-19)
(0.026767 -1.02327e-06 3.23476e-19)
(0.0267606 -1.02318e-06 -2.97494e-19)
(0.0267541 -1.02333e-06 1.08437e-19)
(0.0267476 -1.02373e-06 -1.43232e-19)
(0.0267412 -1.0244e-06 2.91198e-19)
(0.0267348 -1.02536e-06 2.04797e-20)
(0.0267284 -1.02663e-06 1.95042e-19)
(0.026722 -1.02823e-06 1.88906e-19)
(0.0267156 -1.0302e-06 3.21586e-19)
(0.0267093 -1.03256e-06 -2.92309e-19)
(0.026703 -1.03535e-06 1.13172e-19)
(0.0266968 -1.03861e-06 -1.55788e-19)
(0.0266906 -1.04237e-06 2.82686e-19)
(0.0266844 -1.04668e-06 2.44108e-20)
(0.0266783 -1.05159e-06 2.00782e-19)
(0.0266722 -1.05713e-06 1.92697e-19)
(0.0266662 -1.06338e-06 3.22953e-19)
(0.0266603 -1.07039e-06 -2.93842e-19)
(0.0266544 -1.07823e-06 1.10383e-19)
(0.0266486 -1.08695e-06 -1.44447e-19)
(0.0266429 -1.09665e-06 2.86207e-19)
(0.0266374 -1.10741e-06 2.41811e-20)
(0.0266319 -1.11932e-06 1.95421e-19)
(0.0266265 -1.13249e-06 1.83273e-19)
(0.0266213 -1.14701e-06 3.14484e-19)
(0.0266162 -1.16304e-06 -3.01771e-19)
(0.0266113 -1.18066e-06 1.15809e-19)
(0.0266066 -1.20003e-06 -1.61168e-19)
(0.0266021 -1.22124e-06 2.9188e-19)
(0.0265977 -1.24443e-06 3.29996e-20)
(0.0265937 -1.26976e-06 2.06025e-19)
(0.0265898 -1.29746e-06 1.95804e-19)
(0.0265863 -1.32768e-06 3.23488e-19)
(0.0265831 -1.36081e-06 -2.98953e-19)
(0.0265802 -1.39661e-06 1.15132e-19)
(0.0265777 -1.43701e-06 -1.50597e-19)
(0.0265756 -1.47761e-06 2.91096e-19)
(0.0265741 -1.53247e-06 3.12852e-20)
(0.0265729 -1.56777e-06 2.01162e-19)
(0.0265726 -1.66375e-06 1.8796e-19)
(0.0265725 -1.6627e-06 3.1287e-19)
(0.0265738 -1.82391e-06 -3.00473e-19)
(0.0265752 -1.8989e-06 1.03935e-19)
(0.0265776 -1.7436e-06 -1.38954e-19)
(0.0265841 -2.85232e-06 2.54486e-19)
(0.0265833 -1.58532e-06 8.3707e-20)
(0.0265994 -2.17781e-06 1.43349e-19)
(0.0503739 -7.25986e-06 6.40831e-19)
(0.0503605 -7.66767e-06 1.31013e-18)
(0.0503514 -9.13172e-06 1.05088e-18)
(0.0503429 -9.07138e-06 2.33346e-18)
(0.0503352 -8.84563e-06 -7.11207e-19)
(0.0503275 -8.79818e-06 9.88541e-19)
(0.0503194 -8.84197e-06 -4.16607e-19)
(0.0503113 -8.86446e-06 1.61892e-18)
(0.0503033 -8.82231e-06 6.20338e-19)
(0.0502952 -8.80777e-06 1.31342e-18)
(0.0502871 -8.80047e-06 1.06142e-18)
(0.0502789 -8.78407e-06 2.27265e-18)
(0.0502707 -8.78123e-06 -7.03569e-19)
(0.0502625 -8.78056e-06 9.82459e-19)
(0.0502543 -8.77379e-06 -4.58348e-19)
(0.0502461 -8.76649e-06 1.60855e-18)
(0.0502378 -8.76032e-06 5.80067e-19)
(0.0502296 -8.75556e-06 1.30056e-18)
(0.0502213 -8.75191e-06 1.08198e-18)
(0.050213 -8.74825e-06 2.28875e-18)
(0.0502047 -8.74443e-06 -7.11364e-19)
(0.0501963 -8.7408e-06 9.98428e-19)
(0.050188 -8.73758e-06 -4.52397e-19)
(0.0501796 -8.73472e-06 1.62049e-18)
(0.0501712 -8.73223e-06 5.7541e-19)
(0.0501629 -8.73002e-06 1.2861e-18)
(0.0501545 -8.72802e-06 1.10059e-18)
(0.050146 -8.72631e-06 2.2937e-18)
(0.0501376 -8.72482e-06 -7.00373e-19)
(0.0501292 -8.7235e-06 1.01174e-18)
(0.0501208 -8.72233e-06 -4.45668e-19)
(0.0501123 -8.72115e-06 1.61238e-18)
(0.0501039 -8.7198e-06 5.73386e-19)
(0.0500954 -8.71824e-06 1.29206e-18)
(0.050087 -8.71642e-06 1.07797e-18)
(0.0500785 -8.71424e-06 2.2986e-18)
(0.05007 -8.71157e-06 -7.33286e-19)
(0.0500615 -8.7084e-06 9.96668e-19)
(0.050053 -8.70482e-06 -4.27764e-19)
(0.0500445 -8.70086e-06 1.627e-18)
(0.050036 -8.69654e-06 6.10082e-19)
(0.0500274 -8.69192e-06 1.31214e-18)
(0.0500189 -8.68706e-06 1.10917e-18)
(0.0500103 -8.68202e-06 2.2539e-18)
(0.0500017 -8.67686e-06 -7.19865e-19)
(0.0499931 -8.67163e-06 9.91243e-19)
(0.0499844 -8.66636e-06 -4.39424e-19)
(0.0499758 -8.66106e-06 1.63337e-18)
(0.0499671 -8.65576e-06 5.51227e-19)
(0.0499584 -8.65046e-06 1.28571e-18)
(0.0499497 -8.6452e-06 1.09443e-18)
(0.049941 -8.63997e-06 2.26979e-18)
(0.0499322 -8.63477e-06 -7.51257e-19)
(0.0499235 -8.62963e-06 1.00519e-18)
(0.0499147 -8.62452e-06 -4.5469e-19)
(0.0499058 -8.61948e-06 1.6594e-18)
(0.049897 -8.61447e-06 6.09109e-19)
(0.0498882 -8.60952e-06 1.31024e-18)
(0.0498793 -8.60459e-06 1.1254e-18)
(0.0498704 -8.59967e-06 2.26124e-18)
(0.0498615 -8.59484e-06 -7.22731e-19)
(0.0498526 -8.59007e-06 9.85554e-19)
(0.0498436 -8.58532e-06 -4.28708e-19)
(0.0498347 -8.5806e-06 1.64885e-18)
(0.0498257 -8.57594e-06 5.59439e-19)
(0.0498167 -8.57131e-06 1.28131e-18)
(0.0498076 -8.56673e-06 1.09072e-18)
(0.0497986 -8.56219e-06 2.27952e-18)
(0.0497896 -8.55769e-06 -7.84588e-19)
(0.0497805 -8.55323e-06 9.93318e-19)
(0.0497714 -8.54881e-06 -3.86285e-19)
(0.0497623 -8.54442e-06 1.67119e-18)
(0.0497531 -8.54008e-06 6.13882e-19)
(0.049744 -8.53578e-06 1.30878e-18)
(0.0497348 -8.53153e-06 1.11644e-18)
(0.0497256 -8.52732e-06 2.23291e-18)
(0.0497164 -8.52315e-06 -7.61749e-19)
(0.0497072 -8.51902e-06 9.84657e-19)
(0.049698 -8.51494e-06 -4.32928e-19)
(0.0496887 -8.51091e-06 1.68215e-18)
(0.0496795 -8.50692e-06 5.33762e-19)
(0.0496702 -8.50298e-06 1.28608e-18)
(0.0496609 -8.49909e-06 1.13898e-18)
(0.0496516 -8.49524e-06 2.29572e-18)
(0.0496423 -8.49145e-06 -7.76147e-19)
(0.0496329 -8.4877e-06 9.97433e-19)
(0.0496236 -8.484e-06 -4.0702e-19)
(0.0496142 -8.48034e-06 1.71409e-18)
(0.0496048 -8.47673e-06 6.061e-19)
(0.0495954 -8.47318e-06 1.31116e-18)
(0.049586 -8.46967e-06 1.13685e-18)
(0.0495765 -8.46622e-06 2.25824e-18)
(0.0495671 -8.46283e-06 -7.9816e-19)
(0.0495576 -8.45949e-06 1.01557e-18)
(0.0495482 -8.45621e-06 -4.30113e-19)
(0.0495387 -8.45299e-06 1.69896e-18)
(0.0495292 -8.44983e-06 5.81806e-19)
(0.0495197 -8.44673e-06 1.32248e-18)
(0.0495101 -8.44371e-06 1.17322e-18)
(0.0495006 -8.44076e-06 2.27645e-18)
(0.049491 -8.43788e-06 -7.7943e-19)
(0.0494815 -8.43508e-06 9.961e-19)
(0.0494719 -8.43236e-06 -3.93933e-19)
(0.0494623 -8.42973e-06 1.71658e-18)
(0.0494527 -8.42718e-06 5.73727e-19)
(0.0494431 -8.42474e-06 1.29587e-18)
(0.0494335 -8.42239e-06 1.13479e-18)
(0.0494239 -8.42014e-06 2.25027e-18)
(0.0494142 -8.41802e-06 -8.10929e-19)
(0.0494046 -8.41601e-06 9.96314e-19)
(0.0493949 -8.41413e-06 -3.6993e-19)
(0.0493853 -8.41239e-06 1.69998e-18)
(0.0493756 -8.41079e-06 5.8788e-19)
(0.0493659 -8.40935e-06 1.3205e-18)
(0.0493562 -8.40809e-06 1.14427e-18)
(0.0493465 -8.407e-06 2.19911e-18)
(0.0493368 -8.40611e-06 -7.78799e-19)
(0.0493271 -8.40542e-06 7.9803e-19)
(0.0493174 -8.40496e-06 1.80363e-19)
(0.0493077 -8.40474e-06 4.01032e-19)
(0.049298 -8.40478e-06 2.52711e-18)
(0.0492883 -8.4051e-06 -1.5045e-19)
(0.0492785 -8.40573e-06 1.51954e-18)
(0.0492688 -8.4067e-06 -1.77185e-19)
(0.0492591 -8.40802e-06 1.78038e-18)
(0.0492494 -8.40973e-06 6.15791e-19)
(0.0492397 -8.41186e-06 1.33557e-18)
(0.04923 -8.41444e-06 1.19551e-18)
(0.0492203 -8.41752e-06 2.21222e-18)
(0.0492106 -8.42114e-06 -8.04077e-19)
(0.0492009 -8.42535e-06 1.00327e-18)
(0.0491912 -8.43019e-06 -4.07179e-19)
(0.0491815 -8.43573e-06 1.68453e-18)
(0.0491719 -8.44204e-06 5.57272e-19)
(0.0491623 -8.44916e-06 1.30487e-18)
(0.0491526 -8.45719e-06 1.15405e-18)
(0.0491431 -8.46618e-06 2.20924e-18)
(0.0491335 -8.47624e-06 -8.38259e-19)
(0.049124 -8.48745e-06 9.77361e-19)
(0.0491145 -8.49994e-06 -3.57354e-19)
(0.049105 -8.51381e-06 1.75349e-18)
(0.0490956 -8.52919e-06 5.36758e-19)
(0.0490862 -8.54622e-06 1.29363e-18)
(0.0490769 -8.56507e-06 1.18869e-18)
(0.0490676 -8.58589e-06 2.19963e-18)
(0.0490584 -8.60885e-06 -8.15258e-19)
(0.0490493 -8.63416e-06 1.00383e-18)
(0.0490402 -8.66205e-06 -4.01743e-19)
(0.0490312 -8.69273e-06 1.70194e-18)
(0.0490223 -8.72648e-06 5.41853e-19)
(0.0490136 -8.76357e-06 1.3035e-18)
(0.0490049 -8.80433e-06 1.19747e-18)
(0.0489963 -8.8491e-06 2.2065e-18)
(0.0489879 -8.89828e-06 -8.26668e-19)
(0.0489797 -8.95227e-06 9.92164e-19)
(0.0489716 -9.01151e-06 -3.59915e-19)
(0.0489636 -9.07657e-06 1.72922e-18)
(0.0489559 -9.14793e-06 5.53499e-19)
(0.0489484 -9.22621e-06 1.29628e-18)
(0.0489411 -9.31209e-06 1.1662e-18)
(0.0489341 -9.40631e-06 2.16951e-18)
(0.0489274 -9.50965e-06 -8.62384e-19)
(0.048921 -9.62307e-06 1.0164e-18)
(0.0489149 -9.74754e-06 -4.40298e-19)
(0.0489092 -9.88423e-06 1.73612e-18)
(0.0489039 -1.00344e-05 5.98922e-19)
(0.0488991 -1.01994e-05 1.34133e-18)
(0.0488948 -1.0381e-05 1.21537e-18)
(0.048891 -1.05807e-05 2.21256e-18)
(0.0488879 -1.0801e-05 -8.48569e-19)
(0.0488853 -1.10433e-05 1.01417e-18)
(0.0488836 -1.13136e-05 -3.88434e-19)
(0.0488826 -1.16056e-05 1.74182e-18)
(0.0488825 -1.19494e-05 5.92525e-19)
(0.0488833 -1.22823e-05 1.32661e-18)
(0.0488856 -1.27701e-05 1.19295e-18)
(0.0488882 -1.30858e-05 2.16571e-18)
(0.0488939 -1.38316e-05 -8.4591e-19)
(0.0488989 -1.426e-05 9.5684e-19)
(0.0489065 -1.47214e-05 -3.12658e-19)
(0.0489221 -1.68379e-05 1.55267e-18)
(0.0489192 -1.55739e-05 8.56263e-19)
(0.048958 -1.95225e-05 1.08692e-18)
(0.0584261 -1.49819e-05 2.21546e-18)
(0.0584058 -9.67035e-06 5.19073e-18)
(0.0583905 -1.12404e-05 3.78799e-18)
(0.0583766 -1.28998e-05 7.34389e-18)
(0.0583628 -1.29061e-05 -2.12975e-18)
(0.0583493 -1.24483e-05 4.33043e-18)
(0.0583357 -1.24495e-05 -8.2812e-19)
(0.0583221 -1.25621e-05 6.18042e-18)
(0.0583085 -1.25301e-05 2.14054e-18)
(0.058295 -1.25134e-05 5.17821e-18)
(0.0582814 -1.25055e-05 3.83268e-18)
(0.0582679 -1.24896e-05 7.17255e-18)
(0.0582543 -1.25015e-05 -2.09053e-18)
(0.0582407 -1.25177e-05 4.30776e-18)
(0.0582271 -1.25242e-05 -9.8816e-19)
(0.0582135 -1.25294e-05 6.16735e-18)
(0.0581998 -1.25349e-05 2.02111e-18)
(0.0581862 -1.25418e-05 5.16453e-18)
(0.0581726 -1.25505e-05 3.89657e-18)
(0.0581589 -1.25594e-05 7.23143e-18)
(0.0581452 -1.2568e-05 -2.11375e-18)
(0.0581316 -1.25767e-05 4.35182e-18)
(0.0581179 -1.25861e-05 -9.43108e-19)
(0.0581042 -1.25961e-05 6.18236e-18)
(0.0580905 -1.26069e-05 2.0231e-18)
(0.0580768 -1.26182e-05 5.08087e-18)
(0.0580631 -1.263e-05 3.90935e-18)
(0.0580494 -1.26424e-05 7.23312e-18)
(0.0580357 -1.26552e-05 -2.1141e-18)
(0.058022 -1.26684e-05 4.41227e-18)
(0.0580083 -1.26817e-05 -8.92483e-19)
(0.0579946 -1.26951e-05 6.13411e-18)
(0.0579809 -1.27083e-05 1.99951e-18)
(0.0579673 -1.27212e-05 5.15147e-18)
(0.0579536 -1.27336e-05 3.87119e-18)
(0.0579399 -1.27451e-05 7.235e-18)
(0.0579262 -1.27558e-05 -2.1784e-18)
(0.0579125 -1.27654e-05 4.32594e-18)
(0.0578988 -1.27741e-05 -8.67182e-19)
(0.0578851 -1.27818e-05 6.17089e-18)
(0.0578714 -1.27884e-05 2.09648e-18)
(0.0578577 -1.27941e-05 5.15991e-18)
(0.0578439 -1.2799e-05 3.93665e-18)
(0.0578302 -1.28031e-05 7.12524e-18)
(0.0578164 -1.28065e-05 -2.16757e-18)
(0.0578027 -1.28094e-05 4.34711e-18)
(0.0577889 -1.28119e-05 -9.21519e-19)
(0.0577751 -1.2814e-05 6.26887e-18)
(0.0577613 -1.28157e-05 1.96207e-18)
(0.0577475 -1.28172e-05 5.11509e-18)
(0.0577336 -1.28185e-05 3.93901e-18)
(0.0577198 -1.28196e-05 7.18502e-18)
(0.0577059 -1.28206e-05 -2.24388e-18)
(0.057692 -1.28214e-05 4.41583e-18)
(0.0576781 -1.28221e-05 -9.5775e-19)
(0.0576641 -1.28227e-05 6.26509e-18)
(0.0576502 -1.28233e-05 2.13934e-18)
(0.0576362 -1.28238e-05 5.18417e-18)
(0.0576222 -1.28242e-05 3.99157e-18)
(0.0576082 -1.28245e-05 7.13536e-18)
(0.0575942 -1.28249e-05 -2.16193e-18)
(0.0575801 -1.28252e-05 4.32978e-18)
(0.0575661 -1.28255e-05 -8.79964e-19)
(0.057552 -1.28257e-05 6.23071e-18)
(0.0575379 -1.2826e-05 1.97751e-18)
(0.0575238 -1.28262e-05 5.07552e-18)
(0.0575096 -1.28264e-05 3.88907e-18)
(0.0574955 -1.28265e-05 7.19856e-18)
(0.0574813 -1.28267e-05 -2.34672e-18)
(0.0574671 -1.28269e-05 4.35845e-18)
(0.0574529 -1.2827e-05 -7.33019e-19)
(0.0574387 -1.28271e-05 6.33672e-18)
(0.0574244 -1.28273e-05 2.14402e-18)
(0.0574102 -1.28274e-05 5.1386e-18)
(0.0573959 -1.28276e-05 3.93807e-18)
(0.0573816 -1.28277e-05 7.04649e-18)
(0.0573673 -1.28278e-05 -2.26121e-18)
(0.0573529 -1.28279e-05 4.29783e-18)
(0.0573386 -1.28281e-05 -9.12571e-19)
(0.0573242 -1.28282e-05 6.35083e-18)
(0.0573099 -1.28284e-05 1.90745e-18)
(0.0572955 -1.28285e-05 5.09018e-18)
(0.0572811 -1.28287e-05 4.03102e-18)
(0.0572666 -1.28289e-05 7.24777e-18)
(0.0572522 -1.2829e-05 -2.30502e-18)
(0.0572377 -1.28292e-05 4.37819e-18)
(0.0572233 -1.28295e-05 -8.49892e-19)
(0.0572088 -1.28297e-05 6.44275e-18)
(0.0571943 -1.283e-05 2.15237e-18)
(0.0571798 -1.28302e-05 5.17278e-18)
(0.0571652 -1.28306e-05 4.01114e-18)
(0.0571507 -1.28309e-05 7.13896e-18)
(0.0571361 -1.28313e-05 -2.36554e-18)
(0.0571215 -1.28317e-05 4.39835e-18)
(0.057107 -1.28322e-05 -8.83609e-19)
(0.0570924 -1.28327e-05 6.39403e-18)
(0.0570778 -1.28333e-05 2.04218e-18)
(0.0570631 -1.28339e-05 5.20457e-18)
(0.0570485 -1.28346e-05 4.11801e-18)
(0.0570338 -1.28353e-05 7.1931e-18)
(0.0570192 -1.28362e-05 -2.32288e-18)
(0.0570045 -1.28371e-05 4.32862e-18)
(0.0569898 -1.2838e-05 -7.96181e-19)
(0.0569751 -1.28391e-05 6.45509e-18)
(0.0569604 -1.28403e-05 2.03614e-18)
(0.0569457 -1.28417e-05 5.20611e-18)
(0.056931 -1.28431e-05 4.03207e-18)
(0.0569162 -1.28447e-05 7.11876e-18)
(0.0569015 -1.28464e-05 -2.43576e-18)
(0.0568867 -1.28484e-05 4.36772e-18)
(0.056872 -1.28505e-05 -6.89039e-19)
(0.0568572 -1.28528e-05 6.40794e-18)
(0.0568424 -1.28553e-05 2.04443e-18)
(0.0568276 -1.28581e-05 5.20631e-18)
(0.0568128 -1.28611e-05 4.06523e-18)
(0.056798 -1.28645e-05 6.98544e-18)
(0.0567832 -1.28681e-05 -2.28458e-18)
(0.0567684 -1.28721e-05 3.72194e-18)
(0.0567536 -1.28765e-05 9.62997e-19)
(0.0567388 -1.28814e-05 2.44895e-18)
(0.056724 -1.28867e-05 8.2403e-18)
(0.0567092 -1.28925e-05 -5.02948e-19)
(0.0566944 -1.28989e-05 5.8463e-18)
(0.0566795 -1.29058e-05 -1.44166e-19)
(0.0566647 -1.29135e-05 6.61018e-18)
(0.0566499 -1.29219e-05 2.13508e-18)
(0.0566351 -1.29311e-05 5.19843e-18)
(0.0566203 -1.29411e-05 4.15723e-18)
(0.0566055 -1.29522e-05 7.01546e-18)
(0.0565907 -1.29642e-05 -2.40261e-18)
(0.056576 -1.29775e-05 4.39443e-18)
(0.0565612 -1.2992e-05 -7.92063e-19)
(0.0565465 -1.30078e-05 6.36322e-18)
(0.0565318 -1.30252e-05 1.9745e-18)
(0.0565171 -1.30442e-05 5.17488e-18)
(0.0565024 -1.30651e-05 4.0775e-18)
(0.0564877 -1.30879e-05 7.00999e-18)
(0.0564731 -1.31129e-05 -2.49405e-18)
(0.0564585 -1.31402e-05 4.29912e-18)
(0.056444 -1.31702e-05 -6.77241e-19)
(0.0564295 -1.3203e-05 6.56269e-18)
(0.056415 -1.32388e-05 1.89306e-18)
(0.0564006 -1.3278e-05 5.14749e-18)
(0.0563863 -1.3321e-05 4.20021e-18)
(0.056372 -1.3368e-05 6.98516e-18)
(0.0563578 -1.34195e-05 -2.40652e-18)
(0.0563437 -1.34758e-05 4.36306e-18)
(0.0563296 -1.35375e-05 -7.89516e-19)
(0.0563157 -1.3605e-05 6.37409e-18)
(0.0563018 -1.36789e-05 1.92239e-18)
(0.0562881 -1.37598e-05 5.09484e-18)
(0.0562745 -1.38484e-05 4.15671e-18)
(0.0562611 -1.39454e-05 6.99299e-18)
(0.0562478 -1.40516e-05 -2.47942e-18)
(0.0562346 -1.41679e-05 4.34898e-18)
(0.0562217 -1.42953e-05 -6.80794e-19)
(0.056209 -1.44349e-05 6.49267e-18)
(0.0561965 -1.45878e-05 1.97471e-18)
(0.0561842 -1.47553e-05 5.13168e-18)
(0.0561722 -1.49389e-05 4.11809e-18)
(0.0561605 -1.51402e-05 6.89046e-18)
(0.0561491 -1.53608e-05 -2.52547e-18)
(0.0561381 -1.56028e-05 4.37599e-18)
(0.0561275 -1.58682e-05 -9.62048e-19)
(0.0561173 -1.61594e-05 6.47875e-18)
(0.0561076 -1.6479e-05 2.13266e-18)
(0.0560984 -1.68298e-05 5.2781e-18)
(0.0560897 -1.72154e-05 4.22334e-18)
(0.0560817 -1.76392e-05 6.994e-18)
(0.0560744 -1.81059e-05 -2.52703e-18)
(0.0560678 -1.86195e-05 4.39411e-18)
(0.056062 -1.91883e-05 -7.81073e-19)
(0.0560571 -1.98107e-05 6.49716e-18)
(0.0560534 -2.05189e-05 2.10363e-18)
(0.0560505 -2.12578e-05 5.21184e-18)
(0.0560494 -2.22001e-05 4.18099e-18)
(0.0560484 -2.29983e-05 6.87171e-18)
(0.0560514 -2.43944e-05 -2.49322e-18)
(0.0560525 -2.52494e-05 4.23757e-18)
(0.0560587 -2.67952e-05 -5.65603e-19)
(0.0560698 -2.956e-05 5.95903e-18)
(0.0560663 -2.83506e-05 2.96507e-18)
(0.0560994 -3.63593e-05 4.24018e-18)
(0.0606797 -1.42879e-05 1.70094e-17)
(0.0606597 -9.11577e-06 9.39731e-18)
(0.0606428 -1.13985e-05 1.39734e-17)
(0.0606268 -1.2093e-05 -6.15635e-18)
(0.0606106 -1.19171e-05 1.52169e-17)
(0.0605941 -1.19872e-05 -1.18229e-18)
(0.0605777 -1.20969e-05 1.92496e-17)
(0.0605615 -1.20579e-05 4.0756e-18)
(0.0605453 -1.20822e-05 1.68205e-17)
(0.0605291 -1.20979e-05 9.44816e-18)
(0.0605129 -1.20837e-05 1.36667e-17)
(0.0604967 -1.21039e-05 -6.03148e-18)
(0.0604805 -1.21275e-05 1.51563e-17)
(0.0604642 -1.21388e-05 -1.58269e-18)
(0.060448 -1.21496e-05 1.93696e-17)
(0.0604318 -1.21601e-05 3.868e-18)
(0.0604155 -1.21723e-05 1.711e-17)
(0.0603993 -1.21871e-05 9.62641e-18)
(0.0603831 -1.2202e-05 1.37922e-17)
(0.0603668 -1.22166e-05 -6.09352e-18)
(0.0603505 -1.22316e-05 1.53464e-17)
(0.0603343 -1.22473e-05 -1.41145e-18)
(0.060318 -1.22641e-05 1.93744e-17)
(0.0603017 -1.2282e-05 3.92646e-18)
(0.0602855 -1.23008e-05 1.66068e-17)
(0.0602692 -1.23204e-05 9.52411e-18)
(0.0602529 -1.23411e-05 1.37724e-17)
(0.0602367 -1.23625e-05 -6.1731e-18)
(0.0602204 -1.23848e-05 1.56725e-17)
(0.0602041 -1.24077e-05 -1.18607e-18)
(0.0601879 -1.24308e-05 1.90245e-17)
(0.0601716 -1.24537e-05 3.71511e-18)
(0.0601554 -1.24763e-05 1.71938e-17)
(0.0601392 -1.24981e-05 9.58322e-18)
(0.0601229 -1.25188e-05 1.37623e-17)
(0.0601067 -1.25379e-05 -6.18013e-18)
(0.0600905 -1.25554e-05 1.52499e-17)
(0.0600743 -1.25712e-05 -1.26439e-18)
(0.0600581 -1.25851e-05 1.93421e-17)
(0.0600418 -1.25973e-05 3.95888e-18)
(0.0600256 -1.26077e-05 1.68895e-17)
(0.0600094 -1.26166e-05 9.58456e-18)
(0.0599931 -1.26241e-05 1.35823e-17)
(0.0599769 -1.26303e-05 -6.21969e-18)
(0.0599606 -1.26355e-05 1.54182e-17)
(0.0599443 -1.26398e-05 -1.43601e-18)
(0.059928 -1.26434e-05 1.96975e-17)
(0.0599117 -1.26462e-05 3.84226e-18)
(0.0598954 -1.26486e-05 1.66537e-17)
(0.0598791 -1.26504e-05 9.66026e-18)
(0.0598627 -1.2652e-05 1.37223e-17)
(0.0598464 -1.26531e-05 -6.36302e-18)
(0.05983 -1.26541e-05 1.55497e-17)
(0.0598136 -1.26548e-05 -1.37666e-18)
(0.0597972 -1.26554e-05 1.94594e-17)
(0.0597807 -1.26558e-05 4.09293e-18)
(0.0597643 -1.26561e-05 1.71147e-17)
(0.0597478 -1.26563e-05 9.70572e-18)
(0.0597313 -1.26563e-05 1.35777e-17)
(0.0597148 -1.26563e-05 -6.19648e-18)
(0.0596982 -1.26562e-05 1.53615e-17)
(0.0596817 -1.2656e-05 -1.23948e-18)
(0.0596651 -1.26558e-05 1.91654e-17)
(0.0596485 -1.26556e-05 3.78638e-18)
(0.0596319 -1.26553e-05 1.65182e-17)
(0.0596153 -1.2655e-05 9.48931e-18)
(0.0595987 -1.26547e-05 1.37102e-17)
(0.059582 -1.26543e-05 -6.57451e-18)
(0.0595654 -1.26539e-05 1.56566e-17)
(0.0595487 -1.26535e-05 -9.65562e-19)
(0.059532 -1.26531e-05 1.97085e-17)
(0.0595152 -1.26527e-05 4.16082e-18)
(0.0594985 -1.26523e-05 1.68877e-17)
(0.0594817 -1.26519e-05 9.54708e-18)
(0.059465 -1.26514e-05 1.33895e-17)
(0.0594482 -1.2651e-05 -6.31509e-18)
(0.0594314 -1.26506e-05 1.52286e-17)
(0.0594145 -1.26502e-05 -1.37277e-18)
(0.0593977 -1.26498e-05 1.91995e-17)
(0.0593808 -1.26494e-05 3.65864e-18)
(0.059364 -1.26491e-05 1.66392e-17)
(0.0593471 -1.26488e-05 9.76126e-18)
(0.0593302 -1.26485e-05 1.37818e-17)
(0.0593132 -1.26482e-05 -6.45189e-18)
(0.0592963 -1.26479e-05 1.5643e-17)
(0.0592794 -1.26477e-05 -1.24897e-18)
(0.0592624 -1.26475e-05 1.97946e-17)
(0.0592454 -1.26474e-05 4.18731e-18)
(0.0592284 -1.26473e-05 1.70299e-17)
(0.0592114 -1.26473e-05 9.68933e-18)
(0.0591944 -1.26473e-05 1.35666e-17)
(0.0591773 -1.26473e-05 -6.52847e-18)
(0.0591603 -1.26475e-05 1.55955e-17)
(0.0591432 -1.26477e-05 -1.27113e-18)
(0.0591262 -1.2648e-05 1.95323e-17)
(0.0591091 -1.26483e-05 3.89722e-18)
(0.059092 -1.26488e-05 1.70171e-17)
(0.0590748 -1.26493e-05 9.89704e-18)
(0.0590577 -1.265e-05 1.36728e-17)
(0.0590406 -1.26508e-05 -6.41862e-18)
(0.0590234 -1.26518e-05 1.53356e-17)
(0.0590063 -1.26529e-05 -1.20502e-18)
(0.0589891 -1.26541e-05 1.97335e-17)
(0.0589719 -1.26556e-05 3.80825e-18)
(0.0589547 -1.26572e-05 1.73609e-17)
(0.0589375 -1.2659e-05 9.89753e-18)
(0.0589203 -1.26611e-05 1.35914e-17)
(0.0589031 -1.26634e-05 -6.71501e-18)
(0.0588858 -1.2666e-05 1.55611e-17)
(0.0588686 -1.26689e-05 -8.4196e-19)
(0.0588513 -1.26722e-05 1.94887e-17)
(0.0588341 -1.26758e-05 3.84e-18)
(0.0588168 -1.26798e-05 1.70915e-17)
(0.0587995 -1.26842e-05 9.84618e-18)
(0.0587823 -1.26891e-05 1.33362e-17)
(0.058765 -1.26946e-05 -6.35448e-18)
(0.0587477 -1.27006e-05 1.43216e-17)
(0.0587304 -1.27072e-05 1.97152e-18)
(0.0587131 -1.27145e-05 1.22705e-17)
(0.0586958 -1.27226e-05 1.76626e-17)
(0.0586785 -1.27315e-05 -2.8312e-18)
(0.0586612 -1.27412e-05 1.82063e-17)
(0.058644 -1.2752e-05 1.1773e-19)
(0.0586267 -1.27638e-05 1.99398e-17)
(0.0586094 -1.27768e-05 4.07046e-18)
(0.0585921 -1.27911e-05 1.71313e-17)
(0.0585748 -1.28067e-05 9.88473e-18)
(0.0585576 -1.28239e-05 1.33525e-17)
(0.0585403 -1.28428e-05 -6.63793e-18)
(0.0585231 -1.28635e-05 1.55446e-17)
(0.0585058 -1.28862e-05 -1.04878e-18)
(0.0584886 -1.29111e-05 1.96971e-17)
(0.0584714 -1.29384e-05 3.75445e-18)
(0.0584543 -1.29683e-05 1.6969e-17)
(0.0584371 -1.30011e-05 9.85359e-18)
(0.05842 -1.3037e-05 1.33685e-17)
(0.0584029 -1.30763e-05 -6.76748e-18)
(0.0583858 -1.31193e-05 1.54994e-17)
(0.0583688 -1.31665e-05 -8.82385e-19)
(0.0583519 -1.32181e-05 2.00642e-17)
(0.0583349 -1.32746e-05 3.56334e-18)
(0.0583181 -1.33365e-05 1.70557e-17)
(0.0583013 -1.34043e-05 1.01147e-17)
(0.0582845 -1.34785e-05 1.33354e-17)
(0.0582679 -1.35597e-05 -6.5811e-18)
(0.0582513 -1.36486e-05 1.55779e-17)
(0.0582348 -1.37459e-05 -1.00934e-18)
(0.0582184 -1.38524e-05 1.93073e-17)
(0.0582021 -1.39689e-05 3.67267e-18)
(0.0581859 -1.40965e-05 1.66681e-17)
(0.0581699 -1.42361e-05 9.8533e-18)
(0.058154 -1.43889e-05 1.33104e-17)
(0.0581383 -1.45563e-05 -6.75376e-18)
(0.0581227 -1.47395e-05 1.53206e-17)
(0.0581073 -1.494e-05 -8.925e-19)
(0.0580922 -1.51596e-05 1.9861e-17)
(0.0580772 -1.54001e-05 3.8011e-18)
(0.0580625 -1.56634e-05 1.6874e-17)
(0.0580481 -1.59518e-05 9.89179e-18)
(0.058034 -1.62678e-05 1.31188e-17)
(0.0580203 -1.66139e-05 -6.67792e-18)
(0.0580068 -1.69933e-05 1.52589e-17)
(0.0579938 -1.74091e-05 -1.55551e-18)
(0.0579813 -1.78652e-05 1.97502e-17)
(0.0579692 -1.83654e-05 4.0998e-18)
(0.0579576 -1.89145e-05 1.72244e-17)
(0.0579466 -1.95175e-05 1.00645e-17)
(0.0579362 -2.01802e-05 1.32818e-17)
(0.0579266 -2.09092e-05 -6.78873e-18)
(0.0579177 -2.17114e-05 1.53884e-17)
(0.0579096 -2.25979e-05 -1.1121e-18)
(0.0579025 -2.35713e-05 1.98028e-17)
(0.0578965 -2.46651e-05 4.05017e-18)
(0.0578913 -2.5836e-05 1.68691e-17)
(0.0578881 -2.72456e-05 9.93983e-18)
(0.0578847 -2.85894e-05 1.30697e-17)
(0.0578858 -3.055e-05 -6.71394e-18)
(0.0578841 -3.21134e-05 1.551e-17)
(0.0578894 -3.43817e-05 -7.8801e-19)
(0.0578959 -3.81583e-05 1.88836e-17)
(0.0578934 -3.77706e-05 5.99412e-18)
(0.0579209 -4.7236e-05 1.37738e-17)
(0.0611916 -1.39443e-05 3.22861e-18)
(0.061172 -1.11483e-05 7.47494e-18)
(0.0611552 -1.15828e-05 -2.74266e-18)
(0.0611382 -1.15177e-05 3.90285e-18)
(0.061121 -1.17867e-05 -1.65087e-18)
(0.0611039 -1.19712e-05 5.78578e-18)
(0.0610868 -1.19431e-05 1.6723e-18)
(0.0610697 -1.19597e-05 4.78633e-18)
(0.0610527 -1.19584e-05 3.30761e-18)
(0.0610356 -1.19406e-05 7.30919e-18)
(0.0610186 -1.19782e-05 -2.72409e-18)
(0.0610015 -1.2015e-05 3.87678e-18)
(0.0609844 -1.20351e-05 -1.80596e-18)
(0.0609674 -1.20545e-05 5.77365e-18)
(0.0609503 -1.20716e-05 1.55987e-18)
(0.0609332 -1.20903e-05 4.76313e-18)
(0.0609162 -1.21124e-05 3.3631e-18)
(0.0608991 -1.21345e-05 7.36906e-18)
(0.060882 -1.21562e-05 -2.74167e-18)
(0.0608649 -1.21782e-05 3.9115e-18)
(0.0608478 -1.22011e-05 -1.7681e-18)
(0.0608307 -1.22256e-05 5.78802e-18)
(0.0608136 -1.22514e-05 1.56175e-18)
(0.0607965 -1.22784e-05 4.68138e-18)
(0.0607794 -1.23067e-05 3.38316e-18)
(0.0607623 -1.23364e-05 7.37578e-18)
(0.0607452 -1.23672e-05 -2.74962e-18)
(0.0607281 -1.23991e-05 3.96522e-18)
(0.0607111 -1.24317e-05 -1.72283e-18)
(0.060694 -1.24647e-05 5.73665e-18)
(0.0606769 -1.24977e-05 1.54266e-18)
(0.0606599 -1.25301e-05 4.75297e-18)
(0.0606428 -1.25617e-05 3.33842e-18)
(0.0606258 -1.25917e-05 7.37694e-18)
(0.0606087 -1.26199e-05 -2.80816e-18)
(0.0605917 -1.26458e-05 3.88223e-18)
(0.0605747 -1.26695e-05 -1.69479e-18)
(0.0605576 -1.26907e-05 5.77568e-18)
(0.0605406 -1.27093e-05 1.63454e-18)
(0.0605236 -1.27256e-05 4.75757e-18)
(0.0605065 -1.27397e-05 3.41601e-18)
(0.0604895 -1.27517e-05 7.26566e-18)
(0.0604724 -1.27618e-05 -2.81343e-18)
(0.0604554 -1.27703e-05 3.90617e-18)
(0.0604383 -1.27775e-05 -1.75842e-18)
(0.0604212 -1.27835e-05 5.87995e-18)
(0.0604041 -1.27885e-05 1.50438e-18)
(0.060387 -1.27926e-05 4.71496e-18)
(0.0603699 -1.2796e-05 3.40457e-18)
(0.0603527 -1.27988e-05 7.31025e-18)
(0.0603355 -1.28011e-05 -2.88574e-18)
(0.0603184 -1.28029e-05 3.98355e-18)
(0.0603012 -1.28044e-05 -1.77628e-18)
(0.0602839 -1.28055e-05 5.87895e-18)
(0.0602667 -1.28064e-05 1.67331e-18)
(0.0602494 -1.28071e-05 4.79307e-18)