/*--------------------------------*- C++ -*----------------------------------*\
| =========                 |                                                 |
| \\      /  F ield         | OpenFOAM: The Open Source CFD Toolbox           |
|  \\    /   O peration     | Version:  2512                                  |
|   \\  /    A nd           | Website:  www.openfoam.com                      |
|    \\/     M anipulation  |                                                 |
\*---------------------------------------------------------------------------*/
FoamFile
{
    version     2.0;
    format      ascii;
    arch        "LSB;label=32;scalar=64";
    class       volScalarField;
    location    "0.1";
    object      Ux;
}
// * * * * * * * * * * * * * * * * * * * * * * * * * * * * * * * * * * * * * //

dimensions      [0 1 -1 0 0 0 0];

internalField   nonuniform List<scalar> 
8334
(
0.0275544
0.0275423
0.0275369
0.0275328
0.0275287
0.0275246
0.0275203
0.0275157
0.0275111
0.0275066
0.0275019
0.0274973
0.0274926
0.0274878
0.0274831
0.0274783
0.0274735
0.0274687
0.0274639
0.027459
0.0274541
0.0274492
0.0274443
0.0274393
0.0274344
0.0274294
0.0274244
0.0274194
0.0274144
0.0274093
0.0274043
0.0273992
0.0273941
0.027389
0.0273839
0.0273788
0.0273737
0.0273685
0.0273633
0.0273581
0.0273529
0.0273477
0.0273424
0.0273372
0.0273319
0.0273266
0.0273212
0.0273159
0.0273105
0.0273051
0.0272997
0.0272943
0.0272888
0.0272834
0.0272779
0.0272724
0.0272668
0.0272613
0.0272557
0.0272501
0.0272445
0.0272389
0.0272332
0.0272275
0.0272218
0.0272161
0.0272104
0.0272046
0.0271989
0.0271931
0.0271873
0.0271815
0.0271756
0.0271698
0.0271639
0.027158
0.0271521
0.0271462
0.0271402
0.0271343
0.0271283
0.0271223
0.0271163
0.0271103
0.0271042
0.0270982
0.0270921
0.027086
0.0270799
0.0270738
0.0270676
0.0270615
0.0270553
0.0270491
0.027043
0.0270367
0.0270305
0.0270243
0.027018
0.0270118
0.0270055
0.0269992
0.0269929
0.0269866
0.0269803
0.026974
0.0269676
0.0269612
0.0269549
0.0269485
0.0269421
0.0269357
0.0269293
0.0269229
0.0269164
0.02691
0.0269035
0.0268971
0.0268906
0.0268841
0.0268777
0.0268712
0.0268647
0.0268582
0.0268517
0.0268452
0.0268387
0.0268321
0.0268256
0.0268191
0.0268126
0.0268061
0.0267996
0.026793
0.0267865
0.02678
0.0267735
0.026767
0.0267606
0.0267541
0.0267476
0.0267412
0.0267348
0.0267284
0.026722
0.0267156
0.0267093
0.026703
0.0266968
0.0266906
0.0266844
0.0266783
0.0266722
0.0266662
0.0266603
0.0266544
0.0266486
0.0266429
0.0266374
0.0266319
0.0266265
0.0266213
0.0266162
0.0266113
0.0266066
0.0266021
0.0265977
0.0265937
0.0265898
0.0265863
0.0265831
0.0265802
0.0265777
0.0265756
0.0265741
0.0265729
0.0265726
0.0265725
0.0265738
0.0265752
0.0265776
0.0265841
0.0265833
0.0265994
0.0503739
0.0503605
0.0503514
0.0503429
0.0503352
0.0503275
0.0503194
0.0503113
0.0503033
0.0502952
0.0502871
0.0502789
0.0502707
0.0502625
0.0502543
0.0502461
0.0502378
0.0502296
0.0502213
0.050213
0.0502047
0.0501963
0.050188
0.0501796
0.0501712
0.0501629
0.0501545
0.050146
0.0501376
0.0501292
0.0501208
0.0501123
0.0501039
0.0500954
0.050087
0.0500785
0.05007
0.0500615
0.050053
0.0500445
0.050036
0.0500274
0.0500189
0.0500103
0.0500017
0.0499931
0.0499844
0.0499758
0.0499671
0.0499584
0.0499497
0.049941
0.0499322
0.0499235
0.0499147
0.0499058
0.049897
0.0498882
0.0498793
0.0498704
0.0498615
0.0498526
0.0498436
0.0498347
0.0498257
0.0498167
0.0498076
0.0497986
0.0497896
0.0497805
0.0497714
0.0497623
0.0497531
0.049744
0.0497348
0.0497256
0.0497164
0.0497072
0.049698
0.0496887
0.0496795
0.0496702
0.0496609
0.0496516
0.0496423
0.0496329
0.0496236
0.0496142
0.0496048
0.0495954
0.049586
0.0495765
0.0495671
0.0495576
0.0495482
0.0495387
0.0495292
0.0495197
0.0495101
0.0495006
0.049491
0.0494815
0.0494719
0.0494623
0.0494527
0.0494431
0.0494335
0.0494239
0.0494142
0.0494046
0.0493949
0.0493853
0.0493756
0.0493659
0.0493562
0.0493465
0.0493368
0.0493271
0.0493174
0.0493077
0.049298
0.0492883
0.0492785
0.0492688
0.0492591
0.0492494
0.0492397
0.04923
0.0492203
0.0492106
0.0492009
0.0491912
0.0491815
0.0491719
0.0491623
0.0491526
0.0491431
0.0491335
0.049124
0.0491145
0.049105
0.0490956
0.0490862
0.0490769
0.0490676
0.0490584
0.0490493
0.0490402
0.0490312
0.0490223
0.0490136
0.0490049
0.0489963
0.0489879
0.0489797
0.0489716
0.0489636
0.0489559
0.0489484
0.0489411
0.0489341
0.0489274
0.048921
0.0489149
0.0489092
0.0489039
0.0488991
0.0488948
0.048891
0.0488879
0.0488853
0.0488836
0.0488826
0.0488825
0.0488833
0.0488856
0.0488882
0.0488939
0.0488989
0.0489065
0.0489221
0.0489192
0.048958
0.0584261
0.0584058
0.0583905
0.0583766
0.0583628
0.0583493
0.0583357
0.0583221
0.0583085
0.058295
0.0582814
0.0582679
0.0582543
0.0582407
0.0582271
0.0582135
0.0581998
0.0581862
0.0581726
0.0581589
0.0581452
0.0581316
0.0581179
0.0581042
0.0580905
0.0580768
0.0580631
0.0580494
0.0580357
0.058022
0.0580083
0.0579946
0.0579809
0.0579673
0.0579536
0.0579399
0.0579262
0.0579125
0.0578988
0.0578851
0.0578714
0.0578577
0.0578439
0.0578302
0.0578164
0.0578027
0.0577889
0.0577751
0.0577613
0.0577475
0.0577336
0.0577198
0.0577059
0.057692
0.0576781
0.0576641
0.0576502
0.0576362
0.0576222
0.0576082
0.0575942
0.0575801
0.0575661
0.057552
0.0575379
0.0575238
0.0575096
0.0574955
0.0574813
0.0574671
0.0574529
0.0574387
0.0574244
0.0574102
0.0573959
0.0573816
0.0573673
0.0573529
0.0573386
0.0573242
0.0573099
0.0572955
0.0572811
0.0572666
0.0572522
0.0572377
0.0572233
0.0572088
0.0571943
0.0571798
0.0571652
0.0571507
0.0571361
0.0571215
0.057107
0.0570924
0.0570778
0.0570631
0.0570485
0.0570338
0.0570192
0.0570045
0.0569898
0.0569751
0.0569604
0.0569457
0.056931
0.0569162
0.0569015
0.0568867
0.056872
0.0568572
0.0568424
0.0568276
0.0568128
0.056798
0.0567832
0.0567684
0.0567536
0.0567388
0.056724
0.0567092
0.0566944
0.0566795
0.0566647
0.0566499
0.0566351
0.0566203
0.0566055
0.0565907
0.056576
0.0565612
0.0565465
0.0565318
0.0565171
0.0565024
0.0564877
0.0564731
0.0564585
0.056444
0.0564295
0.056415
0.0564006
0.0563863
0.056372
0.0563578
0.0563437
0.0563296
0.0563157
0.0563018
0.0562881
0.0562745
0.0562611
0.0562478
0.0562346
0.0562217
0.056209
0.0561965
0.0561842
0.0561722
0.0561605
0.0561491
0.0561381
0.0561275
0.0561173
0.0561076
0.0560984
0.0560897
0.0560817
0.0560744
0.0560678
0.056062
0.0560571
0.0560534
0.0560505
0.0560494
0.0560484
0.0560514
0.0560525
0.0560587
0.0560698
0.0560663
0.0560994
0.0606797
0.0606597
0.0606428
0.0606268
0.0606106
0.0605941
0.0605777
0.0605615
0.0605453
0.0605291
0.0605129
0.0604967
0.0604805
0.0604642
0.060448
0.0604318
0.0604155
0.0603993
0.0603831
0.0603668
0.0603505
0.0603343
0.060318
0.0603017
0.0602855
0.0602692
0.0602529
0.0602367
0.0602204
0.0602041
0.0601879
0.0601716
0.0601554
0.0601392
0.0601229
0.0601067
0.0600905
0.0600743
0.0600581
0.0600418
0.0600256
0.0600094
0.0599931
0.0599769
0.0599606
0.0599443
0.059928
0.0599117
0.0598954
0.0598791
0.0598627
0.0598464
0.05983
0.0598136
0.0597972
0.0597807
0.0597643
0.0597478
0.0597313
0.0597148
0.0596982
0.0596817
0.0596651
0.0596485
0.0596319
0.0596153
0.0595987
0.059582
0.0595654
0.0595487
0.059532
0.0595152
0.0594985
0.0594817
0.059465
0.0594482
0.0594314
0.0594145
0.0593977
0.0593808
0.059364
0.0593471
0.0593302
0.0593132
0.0592963
0.0592794
0.0592624
0.0592454
0.0592284
0.0592114
0.0591944
0.0591773
0.0591603
0.0591432
0.0591262
0.0591091
0.059092
0.0590748
0.0590577
0.0590406
0.0590234
0.0590063
0.0589891
0.0589719
0.0589547
0.0589375
0.0589203
0.0589031
0.0588858
0.0588686
0.0588513
0.0588341
0.0588168
0.0587995
0.0587823
0.058765
0.0587477
0.0587304
0.0587131
0.0586958
0.0586785
0.0586612
0.058644
0.0586267
0.0586094
0.0585921
0.0585748
0.0585576
0.0585403
0.0585231
0.0585058
0.0584886
0.0584714
0.0584543
0.0584371
0.05842
0.0584029
0.0583858
0.0583688
0.0583519
0.0583349
0.0583181
0.0583013
0.0582845
0.0582679
0.0582513
0.0582348
0.0582184
0.0582021
0.0581859
0.0581699
0.058154
0.0581383
0.0581227
0.0581073
0.0580922
0.0580772
0.0580625
0.0580481
0.058034
0.0580203
0.0580068
0.0579938
0.0579813
0.0579692
0.0579576
0.0579466
0.0579362
0.0579266
0.0579177
0.0579096
0.0579025
0.0578965
0.0578913
0.0578881
0.0578847
0.0578858
0.0578841
0.0578894
0.0578959
0.0578934
0.0579209
0.0611916
0.061172
0.0611552
0.0611382
0.061121
0.0611039
0.0610868
0.0610697
0.0610527
0.0610356
0.0610186
0.0610015
0.0609844
0.0609674
0.0609503
0.0609332
0.0609162
0.0608991
0.060882
0.0608649
0.0608478
0.0608307
0.0608136
0.0607965
0.0607794
0.0607623
0.0607452
0.0607281
0.0607111
0.060694
0.0606769
0.0606599
0.0606428
0.0606258
0.0606087
0.0605917
0.0605747
0.0605576
0.0605406
0.0605236
0.0605065
0.0604895
0.0604724
0.0604554
0.0604383
0.0604212
0.0604041
0.060387
0.0603699
0.0603527
0.0603355
0.0603184
0.0603012
0.0602839
0.0602667
0.0602494
0.0602322
0.0602149
0.0601976
0.0601802
0.0601629
0.0601455
0.0601282
0.0601108
0.0600934
0.0600759
0.0600585
0.060041
0.0600235
0.060006
0.0599885
0.059971
0.0599534
0.0599358
0.0599182
0.0599006
0.059883
0.0598654
0.0598477
0.0598301
0.0598124
0.0597947
0.059777
0.0597592
0.0597415
0.0597237
0.059706
0.0596882
0.0596704
0.0596525
0.0596347
0.0596169
0.059599
0.0595811
0.0595633
0.0595454
0.0595274
0.0595095
0.0594916
0.0594736
0.0594557
0.0594377
0.0594197
0.0594017
0.0593837
0.0593657
0.0593477
0.0593297
0.0593117
0.0592936
0.0592756
0.0592575
0.0592394
0.0592214
0.0592033
0.0591852
0.0591671
0.059149
0.059131
0.0591129
0.0590948
0.0590767
0.0590586
0.0590405
0.0590225
0.0590044
0.0589863
0.0589683
0.0589502
0.0589322
0.0589142
0.0588962
0.0588783
0.0588603
0.0588424
0.0588245
0.0588067
0.0587889
0.0587711
0.0587534
0.0587357
0.0587181
0.0587006
0.0586831
0.0586658
0.0586485
0.0586313
0.0586142
0.0585972
0.0585804
0.0585637
0.0585472
0.0585308
0.0585146
0.0584987
0.0584829
0.0584675
0.0584523
0.0584374
0.0584228
0.0584086
0.0583948
0.0583814
0.0583685
0.0583561
0.0583443
0.0583332
0.0583227
0.058313
0.0583041
0.0582961
0.0582893
0.0582833
0.0582792
0.058275
0.0582753
0.0582724
0.0582775
0.0582818
0.0582799
0.0583044
0.0612784
0.0612602
0.0612431
0.0612254
0.0612081
0.0611909
0.0611736
0.0611564
0.0611391
0.0611218
0.0611046
0.0610873
0.06107
0.0610528
0.0610355
0.0610182
0.0610009
0.0609836
0.0609663
0.060949
0.0609317
0.0609144
0.0608971
0.0608798
0.0608625
0.0608452
0.0608279
0.0608107
0.0607934
0.0607761
0.0607589
0.0607416
0.0607244
0.0607071
0.0606899
0.0606727
0.0606554
0.0606382
0.060621
0.0606037
0.0605865
0.0605692
0.060552
0.0605347
0.0605174
0.0605001
0.0604828
0.0604655
0.0604481
0.0604308
0.0604134
0.060396
0.0603786
0.0603611
0.0603437
0.0603262
0.0603087
0.0602912
0.0602737
0.0602562
0.0602386
0.060221
0.0602034
0.0601858
0.0601682
0.0601506
0.0601329
0.0601152
0.0600975
0.0600798
0.0600621
0.0600443
0.0600266
0.0600088
0.059991
0.0599732
0.0599553
0.0599375
0.0599196
0.0599017
0.0598838
0.0598659
0.059848
0.0598301
0.0598121
0.0597941
0.0597762
0.0597582
0.0597401
0.0597221
0.0597041
0.059686
0.059668
0.0596499
0.0596318
0.0596137
0.0595956
0.0595774
0.0595593
0.0595411
0.059523
0.0595048
0.0594866
0.0594684
0.0594502
0.059432
0.0594138
0.0593955
0.0593773
0.0593591
0.0593408
0.0593225
0.0593043
0.059286
0.0592677
0.0592495
0.0592312
0.0592129
0.0591946
0.0591763
0.059158
0.0591398
0.0591215
0.0591032
0.059085
0.0590667
0.0590485
0.0590302
0.059012
0.0589938
0.0589756
0.0589575
0.0589393
0.0589212
0.0589031
0.0588851
0.0588671
0.0588491
0.0588312
0.0588134
0.0587956
0.0587778
0.0587602
0.0587426
0.0587251
0.0587077
0.0586904
0.0586732
0.0586562
0.0586393
0.0586226
0.058606
0.0585896
0.0585735
0.0585575
0.0585418
0.0585264
0.0585113
0.0584965
0.0584821
0.0584681
0.0584545
0.0584413
0.0584288
0.0584167
0.0584053
0.0583946
0.0583847
0.0583756
0.0583673
0.0583602
0.0583539
0.0583496
0.058345
0.0583452
0.0583417
0.0583467
0.0583501
0.0583485
0.0583714
0.0612991
0.061278
0.0612604
0.0612433
0.0612261
0.0612087
0.0611914
0.0611742
0.0611569
0.0611395
0.0611222
0.0611049
0.0610876
0.0610703
0.061053
0.0610357
0.0610183
0.061001
0.0609837
0.0609663
0.060949
0.0609316
0.0609143
0.060897
0.0608796
0.0608623
0.060845
0.0608276
0.0608103
0.060793
0.0607757
0.0607584
0.0607411
0.0607239
0.0607066
0.0606893
0.0606721
0.0606548
0.0606375
0.0606202
0.060603
0.0605857
0.0605684
0.0605511
0.0605337
0.0605164
0.060499
0.0604817
0.0604643
0.0604469
0.0604295
0.060412
0.0603946
0.0603771
0.0603596
0.0603421
0.0603246
0.060307
0.0602895
0.0602719
0.0602543
0.0602367
0.060219
0.0602014
0.0601837
0.060166
0.0601483
0.0601306
0.0601129
0.0600951
0.0600774
0.0600596
0.0600418
0.0600239
0.0600061
0.0599882
0.0599704
0.0599525
0.0599346
0.0599167
0.0598987
0.0598808
0.0598628
0.0598448
0.0598268
0.0598088
0.0597908
0.0597728
0.0597547
0.0597367
0.0597186
0.0597005
0.0596824
0.0596643
0.0596461
0.059628
0.0596098
0.0595917
0.0595735
0.0595553
0.0595371
0.0595189
0.0595006
0.0594824
0.0594642
0.0594459
0.0594276
0.0594094
0.0593911
0.0593728
0.0593545
0.0593362
0.0593179
0.0592996
0.0592813
0.059263
0.0592447
0.0592263
0.059208
0.0591897
0.0591714
0.059153
0.0591347
0.0591164
0.0590981
0.0590798
0.0590615
0.0590433
0.059025
0.0590068
0.0589885
0.0589703
0.0589522
0.058934
0.0589159
0.0588978
0.0588797
0.0588617
0.0588438
0.0588259
0.058808
0.0587903
0.0587726
0.0587549
0.0587374
0.05872
0.0587026
0.0586854
0.0586683
0.0586514
0.0586346
0.058618
0.0586016
0.0585853
0.0585693
0.0585536
0.0585381
0.058523
0.0585081
0.0584936
0.0584795
0.0584659
0.0584527
0.05844
0.0584279
0.0584164
0.0584056
0.0583956
0.0583864
0.0583781
0.0583709
0.0583644
0.05836
0.0583552
0.0583552
0.0583515
0.0583564
0.0583591
0.0583577
0.0583793
0.0612828
0.0612627
0.0612453
0.0612287
0.0612116
0.0611942
0.0611769
0.0611596
0.0611422
0.0611249
0.0611076
0.0610903
0.061073
0.0610556
0.0610383
0.061021
0.0610036
0.0609863
0.0609689
0.0609516
0.0609342
0.0609169
0.0608995
0.0608822
0.0608649
0.0608475
0.0608302
0.0608129
0.0607956
0.0607783
0.060761
0.0607437
0.0607264
0.0607091
0.0606918
0.0606746
0.0606573
0.06064
0.0606227
0.0606054
0.0605881
0.0605708
0.0605535
0.0605362
0.0605188
0.0605015
0.0604841
0.0604667
0.0604493
0.0604319
0.0604144
0.060397
0.0603795
0.060362
0.0603445
0.0603269
0.0603094
0.0602918
0.0602742
0.0602566
0.060239
0.0602214
0.0602037
0.060186
0.0601683
0.0601506
0.0601329
0.0601152
0.0600974
0.0600796
0.0600618
0.060044
0.0600262
0.0600083
0.0599905
0.0599726
0.0599547
0.0599368
0.0599189
0.0599009
0.059883
0.059865
0.059847
0.059829
0.059811
0.059793
0.0597749
0.0597569
0.0597388
0.0597207
0.0597026
0.0596845
0.0596664
0.0596482
0.0596301
0.0596119
0.0595937
0.0595755
0.0595573
0.0595391
0.0595209
0.0595027
0.0594844
0.0594662
0.0594479
0.0594297
0.0594114
0.0593931
0.0593748
0.0593565
0.0593382
0.0593199
0.0593016
0.0592833
0.0592649
0.0592466
0.0592283
0.0592099
0.0591916
0.0591733
0.059155
0.0591366
0.0591183
0.0591
0.0590817
0.0590634
0.0590451
0.0590269
0.0590086
0.0589904
0.0589722
0.058954
0.0589358
0.0589177
0.0588996
0.0588815
0.0588635
0.0588456
0.0588276
0.0588098
0.058792
0.0587743
0.0587566
0.0587391
0.0587216
0.0587043
0.0586871
0.05867
0.058653
0.0586362
0.0586196
0.0586031
0.0585869
0.0585709
0.0585551
0.0585396
0.0585244
0.0585095
0.058495
0.0584809
0.0584672
0.0584539
0.0584412
0.0584291
0.0584175
0.0584067
0.0583966
0.0583873
0.0583789
0.0583716
0.058365
0.0583605
0.0583555
0.0583555
0.0583514
0.0583563
0.0583584
0.0583571
0.0583776
0.0612648
0.0612453
0.0612287
0.0612115
0.0611944
0.0611773
0.0611599
0.0611426
0.0611253
0.061108
0.0610906
0.0610733
0.061056
0.0610387
0.0610213
0.061004
0.0609866
0.0609693
0.0609519
0.0609346
0.0609172
0.0608999
0.0608825
0.0608652
0.0608479
0.0608305
0.0608132
0.0607959
0.0607786
0.0607613
0.060744
0.0607267
0.0607094
0.0606922
0.0606749
0.0606576
0.0606403
0.0606231
0.0606058
0.0605885
0.0605712
0.0605538
0.0605365
0.0605192
0.0605018
0.0604844
0.060467
0.0604496
0.0604322
0.0604147
0.0603973
0.0603798
0.0603623
0.0603448
0.0603273
0.0603097
0.0602921
0.0602745
0.0602569
0.0602393
0.0602217
0.060204
0.0601863
0.0601686
0.0601509
0.0601332
0.0601155
0.0600977
0.0600799
0.0600621
0.0600443
0.0600265
0.0600086
0.0599908
0.0599729
0.059955
0.0599371
0.0599192
0.0599012
0.0598833
0.0598653
0.0598473
0.0598293
0.0598113
0.0597933
0.0597752
0.0597571
0.0597391
0.059721
0.0597029
0.0596848
0.0596666
0.0596485
0.0596304
0.0596122
0.059594
0.0595758
0.0595576
0.0595394
0.0595212
0.059503
0.0594847
0.0594665
0.0594482
0.0594299
0.0594117
0.0593934
0.0593751
0.0593568
0.0593385
0.0593201
0.0593018
0.0592835
0.0592652
0.0592469
0.0592285
0.0592102
0.0591919
0.0591735
0.0591552
0.0591369
0.0591186
0.0591002
0.0590819
0.0590636
0.0590454
0.0590271
0.0590088
0.0589906
0.0589724
0.0589542
0.058936
0.0589179
0.0588998
0.0588817
0.0588637
0.0588457
0.0588278
0.05881
0.0587922
0.0587744
0.0587568
0.0587392
0.0587218
0.0587044
0.0586872
0.0586701
0.0586531
0.0586363
0.0586196
0.0586032
0.0585869
0.0585709
0.0585551
0.0585395
0.0585243
0.0585094
0.0584949
0.0584807
0.0584669
0.0584537
0.0584409
0.0584287
0.0584171
0.0584062
0.058396
0.0583867
0.0583782
0.0583708
0.0583641
0.0583595
0.0583543
0.0583541
0.0583497
0.0583546
0.0583561
0.0583549
0.0583742
0.0612466
0.0612288
0.0612117
0.0611945
0.0611773
0.0611599
0.0611425
0.0611253
0.061108
0.0610907
0.0610734
0.061056
0.0610387
0.0610214
0.061004
0.0609867
0.0609693
0.060952
0.0609346
0.0609173
0.0608999
0.0608826
0.0608652
0.0608479
0.0608306
0.0608132
0.0607959
0.0607786
0.0607613
0.060744
0.0607268
0.0607095
0.0606922
0.0606749
0.0606577
0.0606404
0.0606231
0.0606058
0.0605885
0.0605712
0.0605539
0.0605366
0.0605192
0.0605018
0.0604845
0.0604671
0.0604497
0.0604322
0.0604148
0.0603973
0.0603798
0.0603623
0.0603448
0.0603273
0.0603097
0.0602922
0.0602746
0.060257
0.0602394
0.0602217
0.0602041
0.0601864
0.0601687
0.060151
0.0601333
0.0601155
0.0600977
0.06008
0.0600622
0.0600444
0.0600265
0.0600087
0.0599908
0.0599729
0.059955
0.0599371
0.0599192
0.0599013
0.0598833
0.0598653
0.0598473
0.0598293
0.0598113
0.0597933
0.0597752
0.0597572
0.0597391
0.059721
0.0597029
0.0596848
0.0596667
0.0596485
0.0596304
0.0596122
0.059594
0.0595759
0.0595577
0.0595394
0.0595212
0.059503
0.0594847
0.0594665
0.0594482
0.05943
0.0594117
0.0593934
0.0593751
0.0593568
0.0593385
0.0593202
0.0593019
0.0592835
0.0592652
0.0592469
0.0592285
0.0592102
0.0591919
0.0591735
0.0591552
0.0591369
0.0591186
0.0591003
0.0590819
0.0590637
0.0590454
0.0590271
0.0590088
0.0589906
0.0589724
0.0589542
0.058936
0.0589179
0.0588998
0.0588817
0.0588637
0.0588457
0.0588278
0.0588099
0.0587921
0.0587744
0.0587567
0.0587392
0.0587217
0.0587043
0.0586871
0.0586699
0.058653
0.0586361
0.0586195
0.058603
0.0585867
0.0585706
0.0585548
0.0585393
0.058524
0.0585091
0.0584945
0.0584803
0.0584665
0.0584532
0.0584404
0.0584281
0.0584164
0.0584054
0.0583952
0.0583857
0.0583771
0.0583696
0.0583628
0.0583581
0.0583527
0.0583524
0.0583477
0.0583524
0.0583533
0.0583522
0.0583704
0.0612493
0.0612284
0.0612108
0.0611943
0.0611775
0.0611599
0.0611425
0.0611253
0.061108
0.0610907
0.0610734
0.061056
0.0610387
0.0610214
0.061004
0.0609867
0.0609693
0.060952
0.0609346
0.0609173
0.0608999
0.0608826
0.0608652
0.0608479
0.0608305
0.0608132
0.0607959
0.0607786
0.0607613
0.060744
0.0607267
0.0607095
0.0606922
0.0606749
0.0606577
0.0606404
0.0606231
0.0606058
0.0605885
0.0605712
0.0605539
0.0605366
0.0605192
0.0605018
0.0604845
0.0604671
0.0604497
0.0604322
0.0604148
0.0603973
0.0603798
0.0603624
0.0603448
0.0603273
0.0603098
0.0602922
0.0602746
0.060257
0.0602394
0.0602217
0.0602041
0.0601864
0.0601687
0.060151
0.0601333
0.0601155
0.0600978
0.06008
0.0600622
0.0600444
0.0600265
0.0600087
0.0599908
0.0599729
0.059955
0.0599371
0.0599192
0.0599013
0.0598833
0.0598653
0.0598474
0.0598293
0.0598113
0.0597933
0.0597753
0.0597572
0.0597391
0.059721
0.0597029
0.0596848
0.0596667
0.0596485
0.0596304
0.0596122
0.059594
0.0595759
0.0595577
0.0595394
0.0595212
0.059503
0.0594847
0.0594665
0.0594482
0.05943
0.0594117
0.0593934
0.0593751
0.0593568
0.0593385
0.0593202
0.0593019
0.0592835
0.0592652
0.0592469
0.0592285
0.0592102
0.0591919
0.0591735
0.0591552
0.0591369
0.0591186
0.0591002
0.0590819
0.0590636
0.0590453
0.0590271
0.0590088
0.0589906
0.0589723
0.0589542
0.058936
0.0589178
0.0588997
0.0588817
0.0588636
0.0588456
0.0588277
0.0588098
0.058792
0.0587743
0.0587566
0.0587391
0.0587216
0.0587042
0.0586869
0.0586698
0.0586528
0.0586359
0.0586192
0.0586027
0.0585864
0.0585704
0.0585545
0.0585389
0.0585236
0.0585087
0.058494
0.0584798
0.058466
0.0584526
0.0584397
0.0584274
0.0584157
0.0584046
0.0583942
0.0583847
0.058376
0.0583683
0.0583614
0.0583565
0.0583509
0.0583504
0.0583454
0.05835
0.0583502
0.0583491
0.0583662
0.0612304
0.0612106
0.061194
0.0611771
0.0611597
0.0611425
0.0611252
0.0611079
0.0610907
0.0610734
0.061056
0.0610387
0.0610213
0.061004
0.0609867
0.0609693
0.060952
0.0609346
0.0609173
0.0608999
0.0608825
0.0608652
0.0608479
0.0608305
0.0608132
0.0607959
0.0607786
0.0607613
0.060744
0.0607267
0.0607095
0.0606922
0.0606749
0.0606577
0.0606404
0.0606231
0.0606058
0.0605885
0.0605712
0.0605539
0.0605366
0.0605192
0.0605019
0.0604845
0.0604671
0.0604497
0.0604322
0.0604148
0.0603973
0.0603799
0.0603624
0.0603448
0.0603273
0.0603098
0.0602922
0.0602746
0.060257
0.0602394
0.0602217
0.0602041
0.0601864
0.0601687
0.060151
0.0601333
0.0601155
0.0600978
0.06008
0.0600622
0.0600444
0.0600265
0.0600087
0.0599908
0.0599729
0.0599551
0.0599371
0.0599192
0.0599013
0.0598833
0.0598653
0.0598474
0.0598294
0.0598113
0.0597933
0.0597753
0.0597572
0.0597391
0.059721
0.0597029
0.0596848
0.0596667
0.0596485
0.0596304
0.0596122
0.0595941
0.0595759
0.0595577
0.0595394
0.0595212
0.059503
0.0594847
0.0594665
0.0594482
0.05943
0.0594117
0.0593934
0.0593751
0.0593568
0.0593385
0.0593202
0.0593019
0.0592835
0.0592652
0.0592469
0.0592285
0.0592102
0.0591919
0.0591735
0.0591552
0.0591369
0.0591185
0.0591002
0.0590819
0.0590636
0.0590453
0.059027
0.0590088
0.0589905
0.0589723
0.0589541
0.0589359
0.0589178
0.0588997
0.0588816
0.0588636
0.0588456
0.0588276
0.0588098
0.0587919
0.0587742
0.0587565
0.0587389
0.0587214
0.058704
0.0586868
0.0586696
0.0586526
0.0586357
0.058619
0.0586025
0.0585862
0.05857
0.0585542
0.0585386
0.0585232
0.0585082
0.0584935
0.0584792
0.0584654
0.0584519
0.058439
0.0584266
0.0584148
0.0584036
0.0583932
0.0583835
0.0583747
0.0583669
0.0583598
0.0583547
0.058349
0.0583483
0.0583429
0.0583474
0.0583468
0.0583458
0.0583618
0.0612118
0.0611941
0.0611772
0.0611596
0.0611424
0.0611253
0.061108
0.0610907
0.0610734
0.061056
0.0610387
0.0610213
0.061004
0.0609867
0.0609693
0.0609519
0.0609346
0.0609172
0.0608999
0.0608825
0.0608652
0.0608478
0.0608305
0.0608132
0.0607959
0.0607786
0.0607613
0.060744
0.0607267
0.0607094
0.0606922
0.0606749
0.0606576
0.0606404
0.0606231
0.0606058
0.0605885
0.0605712
0.0605539
0.0605366
0.0605192
0.0605019
0.0604845
0.0604671
0.0604497
0.0604322
0.0604148
0.0603973
0.0603799
0.0603624
0.0603448
0.0603273
0.0603098
0.0602922
0.0602746
0.060257
0.0602394
0.0602217
0.0602041
0.0601864
0.0601687
0.060151
0.0601333
0.0601155
0.0600978
0.06008
0.0600622
0.0600444
0.0600265
0.0600087
0.0599908
0.059973
0.0599551
0.0599371
0.0599192
0.0599013
0.0598833
0.0598653
0.0598474
0.0598294
0.0598113
0.0597933
0.0597753
0.0597572
0.0597391
0.059721
0.0597029
0.0596848
0.0596667
0.0596485
0.0596304
0.0596122
0.0595941
0.0595759
0.0595577
0.0595394
0.0595212
0.059503
0.0594847
0.0594665
0.0594482
0.05943
0.0594117
0.0593934
0.0593751
0.0593568
0.0593385
0.0593202
0.0593018
0.0592835
0.0592652
0.0592469
0.0592285
0.0592102
0.0591919
0.0591735
0.0591552
0.0591369
0.0591185
0.0591002
0.0590819
0.0590636
0.0590453
0.059027
0.0590088
0.0589905
0.0589723
0.0589541
0.0589359
0.0589177
0.0588996
0.0588815
0.0588635
0.0588455
0.0588276
0.0588097
0.0587918
0.0587741
0.0587564
0.0587388
0.0587213
0.0587039
0.0586866
0.0586694
0.0586524
0.0586355
0.0586187
0.0586022
0.0585858
0.0585697
0.0585538
0.0585381
0.0585228
0.0585077
0.058493
0.0584786
0.0584647
0.0584512
0.0584382
0.0584257
0.0584138
0.0584026
0.058392
0.0583823
0.0583733
0.0583654
0.0583581
0.0583528
0.0583468
0.0583459
0.0583401
0.0583445
0.0583432
0.0583423
0.058357
0.0612147
0.0611938
0.0611766
0.0611595
0.0611424
0.0611251
0.0611078
0.0610906
0.0610733
0.061056
0.0610386
0.0610213
0.061004
0.0609866
0.0609693
0.0609519
0.0609346
0.0609172
0.0608999
0.0608825
0.0608652
0.0608478
0.0608305
0.0608132
0.0607958
0.0607785
0.0607612
0.060744
0.0607267
0.0607094
0.0606922
0.0606749
0.0606576
0.0606404
0.0606231
0.0606058
0.0605885
0.0605712
0.0605539
0.0605366
0.0605192
0.0605019
0.0604845
0.0604671
0.0604497
0.0604323
0.0604148
0.0603973
0.0603799
0.0603624
0.0603448
0.0603273
0.0603098
0.0602922
0.0602746
0.060257
0.0602394
0.0602217
0.0602041
0.0601864
0.0601687
0.060151
0.0601333
0.0601155
0.0600978
0.06008
0.0600622
0.0600444
0.0600265
0.0600087
0.0599908
0.059973
0.0599551
0.0599371
0.0599192
0.0599013
0.0598833
0.0598653
0.0598474
0.0598294
0.0598113
0.0597933
0.0597753
0.0597572
0.0597391
0.059721
0.0597029
0.0596848
0.0596667
0.0596486
0.0596304
0.0596122
0.0595941
0.0595759
0.0595577
0.0595394
0.0595212
0.059503
0.0594847
0.0594665
0.0594482
0.05943
0.0594117
0.0593934
0.0593751
0.0593568
0.0593385
0.0593202
0.0593018
0.0592835
0.0592652
0.0592469
0.0592285
0.0592102
0.0591918
0.0591735
0.0591552
0.0591368
0.0591185
0.0591002
0.0590819
0.0590636
0.0590453
0.059027
0.0590087
0.0589905
0.0589722
0.058954
0.0589358
0.0589177
0.0588996
0.0588815
0.0588634
0.0588454
0.0588275
0.0588096
0.0587917
0.058774
0.0587563
0.0587386
0.0587211
0.0587037
0.0586864
0.0586692
0.0586521
0.0586352
0.0586185
0.0586019
0.0585855
0.0585693
0.0585534
0.0585377
0.0585223
0.0585072
0.0584924
0.058478
0.058464
0.0584504
0.0584373
0.0584248
0.0584128
0.0584014
0.0583908
0.0583809
0.0583717
0.0583637
0.0583562
0.0583508
0.0583445
0.0583434
0.0583372
0.0583414
0.0583394
0.0583385
0.058352
0.0611958
0.0611759
0.0611589
0.0611425
0.0611253
0.0611079
0.0610907
0.0610733
0.0610559
0.0610386
0.0610213
0.061004
0.0609866
0.0609693
0.0609519
0.0609345
0.0609172
0.0608998
0.0608825
0.0608651
0.0608478
0.0608304
0.0608131
0.0607958
0.0607785
0.0607612
0.0607439
0.0607267
0.0607094
0.0606921
0.0606749
0.0606576
0.0606404
0.0606231
0.0606058
0.0605885
0.0605712
0.0605539
0.0605366
0.0605192
0.0605019
0.0604845
0.0604671
0.0604497
0.0604323
0.0604148
0.0603973
0.0603799
0.0603624
0.0603449
0.0603273
0.0603098
0.0602922
0.0602746
0.060257
0.0602394
0.0602217
0.0602041
0.0601864
0.0601687
0.060151
0.0601333
0.0601155
0.0600978
0.06008
0.0600622
0.0600444
0.0600265
0.0600087
0.0599908
0.059973
0.0599551
0.0599372
0.0599192
0.0599013
0.0598833
0.0598654
0.0598474
0.0598294
0.0598113
0.0597933
0.0597753
0.0597572
0.0597391
0.059721
0.0597029
0.0596848
0.0596667
0.0596486
0.0596304
0.0596122
0.0595941
0.0595759
0.0595577
0.0595395
0.0595212
0.059503
0.0594847
0.0594665
0.0594482
0.05943
0.0594117
0.0593934
0.0593751
0.0593568
0.0593385
0.0593202
0.0593018
0.0592835
0.0592652
0.0592468
0.0592285
0.0592102
0.0591918
0.0591735
0.0591552
0.0591368
0.0591185
0.0591002
0.0590818
0.0590635
0.0590452
0.0590269
0.0590087
0.0589904
0.0589722
0.058954
0.0589358
0.0589176
0.0588995
0.0588814
0.0588633
0.0588453
0.0588274
0.0588095
0.0587916
0.0587738
0.0587561
0.0587385
0.0587209
0.0587035
0.0586862
0.058669
0.0586519
0.0586349
0.0586182
0.0586015
0.0585851
0.0585689
0.0585529
0.0585372
0.0585217
0.0585066
0.0584918
0.0584773
0.0584632
0.0584496
0.0584364
0.0584237
0.0584117
0.0584002
0.0583894
0.0583794
0.0583701
0.0583619
0.0583542
0.0583485
0.058342
0.0583407
0.0583341
0.0583381
0.0583353
0.0583344
0.0583468
0.0611779
0.0611584
0.0611419
0.0611248
0.0611078
0.0610907
0.0610733
0.0610559
0.0610386
0.0610213
0.0610039
0.0609866
0.0609692
0.0609519
0.0609345
0.0609172
0.0608998
0.0608824
0.0608651
0.0608477
0.0608304
0.0608131
0.0607958
0.0607785
0.0607612
0.0607439
0.0607266
0.0607094
0.0606921
0.0606749
0.0606576
0.0606403
0.0606231
0.0606058
0.0605885
0.0605712
0.0605539
0.0605366
0.0605192
0.0605019
0.0604845
0.0604671
0.0604497
0.0604323
0.0604148
0.0603974
0.0603799
0.0603624
0.0603449
0.0603273
0.0603098
0.0602922
0.0602746
0.060257
0.0602394
0.0602217
0.0602041
0.0601864
0.0601687
0.060151
0.0601333
0.0601155
0.0600978
0.06008
0.0600622
0.0600444
0.0600265
0.0600087
0.0599908
0.059973
0.0599551
0.0599372
0.0599192
0.0599013
0.0598833
0.0598654
0.0598474
0.0598294
0.0598113
0.0597933
0.0597753
0.0597572
0.0597391
0.059721
0.0597029
0.0596848
0.0596667
0.0596486
0.0596304
0.0596122
0.0595941
0.0595759
0.0595577
0.0595395
0.0595212
0.059503
0.0594847
0.0594665
0.0594482
0.05943
0.0594117
0.0593934
0.0593751
0.0593568
0.0593385
0.0593202
0.0593018
0.0592835
0.0592652
0.0592468
0.0592285
0.0592102
0.0591918
0.0591735
0.0591551
0.0591368
0.0591185
0.0591001
0.0590818
0.0590635
0.0590452
0.0590269
0.0590086
0.0589904
0.0589721
0.0589539
0.0589357
0.0589175
0.0588994
0.0588813
0.0588632
0.0588452
0.0588273
0.0588093
0.0587915
0.0587737
0.058756
0.0587383
0.0587208
0.0587033
0.0586859
0.0586687
0.0586516
0.0586346
0.0586178
0.0586012
0.0585847
0.0585685
0.0585525
0.0585367
0.0585212
0.058506
0.0584911
0.0584765
0.0584624
0.0584487
0.0584354
0.0584226
0.0584105
0.0583989
0.0583879
0.0583778
0.0583683
0.0583599
0.0583521
0.0583462
0.0583394
0.0583378
0.0583308
0.0583346
0.058331
0.0583302
0.0583413
0.0611598
0.0611422
0.061125
0.0611077
0.0610906
0.0610732
0.0610558
0.0610386
0.0610213
0.0610039
0.0609866
0.0609692
0.0609518
0.0609345
0.0609171
0.0608998
0.0608824
0.0608651
0.0608477
0.0608304
0.060813
0.0607957
0.0607784
0.0607611
0.0607439
0.0607266
0.0607093
0.0606921
0.0606748
0.0606576
0.0606403
0.0606231
0.0606058
0.0605885
0.0605712
0.0605539
0.0605366
0.0605192
0.0605019
0.0604845
0.0604671
0.0604497
0.0604323
0.0604148
0.0603974
0.0603799
0.0603624
0.0603449
0.0603273
0.0603098
0.0602922
0.0602746
0.060257
0.0602394
0.0602218
0.0602041
0.0601864
0.0601687
0.060151
0.0601333
0.0601155
0.0600978
0.06008
0.0600622
0.0600444
0.0600266
0.0600087
0.0599908
0.059973
0.0599551
0.0599372
0.0599192
0.0599013
0.0598833
0.0598654
0.0598474
0.0598294
0.0598113
0.0597933
0.0597753
0.0597572
0.0597391
0.059721