/*--------------------------------*- C++ -*----------------------------------*\
| =========                 |                                                 |
| \\      /  F ield         | OpenFOAM: The Open Source CFD Toolbox           |
|  \\    /   O peration     | Version:  2512                                  |
|   \\  /    A nd           | Website:  www.openfoam.com                      |
|    \\/     M anipulation  |                                                 |
\*---------------------------------------------------------------------------*/
FoamFile
{
    version     2.0;
    format      ascii;
    arch        "LSB;label=32;scalar=64";
    class       volScalarField;
    location    "0.1";
    object      Uy;
}
// * * * * * * * * * * * * * * * * * * * * * * * * * * * * * * * * * * * * * //

dimensions      [0 1 -1 0 0 0 0];

internalField   nonuniform List<scalar> 
8334
(
-6.24629e-06
-1.56737e-06
-1.81542e-06
-1.52962e-06
-1.77575e-06
-1.8551e-06
-1.63378e-06
-1.56266e-06
-1.59811e-06
-1.59263e-06
-1.57148e-06
-1.55776e-06
-1.54917e-06
-1.546e-06
-1.54242e-06
-1.53653e-06
-1.53051e-06
-1.52484e-06
-1.51946e-06
-1.51427e-06
-1.50903e-06
-1.50376e-06
-1.49857e-06
-1.49352e-06
-1.48867e-06
-1.484e-06
-1.47944e-06
-1.47501e-06
-1.47071e-06
-1.46649e-06
-1.46235e-06
-1.45822e-06
-1.45409e-06
-1.44995e-06
-1.44578e-06
-1.4415e-06
-1.43709e-06
-1.43258e-06
-1.42797e-06
-1.42326e-06
-1.4184e-06
-1.41341e-06
-1.40831e-06
-1.4031e-06
-1.3978e-06
-1.39241e-06
-1.38694e-06
-1.38141e-06
-1.37585e-06
-1.37025e-06
-1.36462e-06
-1.35897e-06
-1.3533e-06
-1.34761e-06
-1.34192e-06
-1.33623e-06
-1.33055e-06
-1.32488e-06
-1.31923e-06
-1.3136e-06
-1.30798e-06
-1.3024e-06
-1.29684e-06
-1.29131e-06
-1.2858e-06
-1.28033e-06
-1.27489e-06
-1.26949e-06
-1.26412e-06
-1.25879e-06
-1.2535e-06
-1.24825e-06
-1.24304e-06
-1.23787e-06
-1.23274e-06
-1.22765e-06
-1.2226e-06
-1.21759e-06
-1.21262e-06
-1.20771e-06
-1.20283e-06
-1.19799e-06
-1.1932e-06
-1.18845e-06
-1.18375e-06
-1.17909e-06
-1.17447e-06
-1.1699e-06
-1.16538e-06
-1.16092e-06
-1.1565e-06
-1.15213e-06
-1.14782e-06
-1.14355e-06
-1.13934e-06
-1.13517e-06
-1.13106e-06
-1.127e-06
-1.123e-06
-1.11904e-06
-1.11514e-06
-1.1113e-06
-1.1075e-06
-1.10376e-06
-1.10009e-06
-1.09647e-06
-1.0929e-06
-1.0894e-06
-1.08596e-06
-1.08258e-06
-1.07926e-06
-1.07601e-06
-1.07282e-06
-1.06969e-06
-1.06664e-06
-1.06365e-06
-1.06074e-06
-1.0579e-06
-1.05514e-06
-1.05246e-06
-1.04986e-06
-1.04735e-06
-1.04493e-06
-1.04261e-06
-1.04038e-06
-1.03826e-06
-1.03624e-06
-1.03434e-06
-1.03257e-06
-1.03091e-06
-1.0294e-06
-1.02802e-06
-1.02679e-06
-1.02572e-06
-1.02483e-06
-1.02411e-06
-1.02359e-06
-1.02327e-06
-1.02318e-06
-1.02333e-06
-1.02373e-06
-1.0244e-06
-1.02536e-06
-1.02663e-06
-1.02823e-06
-1.0302e-06
-1.03256e-06
-1.03535e-06
-1.03861e-06
-1.04237e-06
-1.04668e-06
-1.05159e-06
-1.05713e-06
-1.06338e-06
-1.07039e-06
-1.07823e-06
-1.08695e-06
-1.09665e-06
-1.10741e-06
-1.11932e-06
-1.13249e-06
-1.14701e-06
-1.16304e-06
-1.18066e-06
-1.20003e-06
-1.22124e-06
-1.24443e-06
-1.26976e-06
-1.29746e-06
-1.32768e-06
-1.36081e-06
-1.39661e-06
-1.43701e-06
-1.47761e-06
-1.53247e-06
-1.56777e-06
-1.66375e-06
-1.6627e-06
-1.82391e-06
-1.8989e-06
-1.7436e-06
-2.85232e-06
-1.58532e-06
-2.17781e-06
-7.25986e-06
-7.66767e-06
-9.13172e-06
-9.07138e-06
-8.84563e-06
-8.79818e-06
-8.84197e-06
-8.86446e-06
-8.82231e-06
-8.80777e-06
-8.80047e-06
-8.78407e-06
-8.78123e-06
-8.78056e-06
-8.77379e-06
-8.76649e-06
-8.76032e-06
-8.75556e-06
-8.75191e-06
-8.74825e-06
-8.74443e-06
-8.7408e-06
-8.73758e-06
-8.73472e-06
-8.73223e-06
-8.73002e-06
-8.72802e-06
-8.72631e-06
-8.72482e-06
-8.7235e-06
-8.72233e-06
-8.72115e-06
-8.7198e-06
-8.71824e-06
-8.71642e-06
-8.71424e-06
-8.71157e-06
-8.7084e-06
-8.70482e-06
-8.70086e-06
-8.69654e-06
-8.69192e-06
-8.68706e-06
-8.68202e-06
-8.67686e-06
-8.67163e-06
-8.66636e-06
-8.66106e-06
-8.65576e-06
-8.65046e-06
-8.6452e-06
-8.63997e-06
-8.63477e-06
-8.62963e-06
-8.62452e-06
-8.61948e-06
-8.61447e-06
-8.60952e-06
-8.60459e-06
-8.59967e-06
-8.59484e-06
-8.59007e-06
-8.58532e-06
-8.5806e-06
-8.57594e-06
-8.57131e-06
-8.56673e-06
-8.56219e-06
-8.55769e-06
-8.55323e-06
-8.54881e-06
-8.54442e-06
-8.54008e-06
-8.53578e-06
-8.53153e-06
-8.52732e-06
-8.52315e-06
-8.51902e-06
-8.51494e-06
-8.51091e-06
-8.50692e-06
-8.50298e-06
-8.49909e-06
-8.49524e-06
-8.49145e-06
-8.4877e-06
-8.484e-06
-8.48034e-06
-8.47673e-06
-8.47318e-06
-8.46967e-06
-8.46622e-06
-8.46283e-06
-8.45949e-06
-8.45621e-06
-8.45299e-06
-8.44983e-06
-8.44673e-06
-8.44371e-06
-8.44076e-06
-8.43788e-06
-8.43508e-06
-8.43236e-06
-8.42973e-06
-8.42718e-06
-8.42474e-06
-8.42239e-06
-8.42014e-06
-8.41802e-06
-8.41601e-06
-8.41413e-06
-8.41239e-06
-8.41079e-06
-8.40935e-06
-8.40809e-06
-8.407e-06
-8.40611e-06
-8.40542e-06
-8.40496e-06
-8.40474e-06
-8.40478e-06
-8.4051e-06
-8.40573e-06
-8.4067e-06
-8.40802e-06
-8.40973e-06
-8.41186e-06
-8.41444e-06
-8.41752e-06
-8.42114e-06
-8.42535e-06
-8.43019e-06
-8.43573e-06
-8.44204e-06
-8.44916e-06
-8.45719e-06
-8.46618e-06
-8.47624e-06
-8.48745e-06
-8.49994e-06
-8.51381e-06
-8.52919e-06
-8.54622e-06
-8.56507e-06
-8.58589e-06
-8.60885e-06
-8.63416e-06
-8.66205e-06
-8.69273e-06
-8.72648e-06
-8.76357e-06
-8.80433e-06
-8.8491e-06
-8.89828e-06
-8.95227e-06
-9.01151e-06
-9.07657e-06
-9.14793e-06
-9.22621e-06
-9.31209e-06
-9.40631e-06
-9.50965e-06
-9.62307e-06
-9.74754e-06
-9.88423e-06
-1.00344e-05
-1.01994e-05
-1.0381e-05
-1.05807e-05
-1.0801e-05
-1.10433e-05
-1.13136e-05
-1.16056e-05
-1.19494e-05
-1.22823e-05
-1.27701e-05
-1.30858e-05
-1.38316e-05
-1.426e-05
-1.47214e-05
-1.68379e-05
-1.55739e-05
-1.95225e-05
-1.49819e-05
-9.67035e-06
-1.12404e-05
-1.28998e-05
-1.29061e-05
-1.24483e-05
-1.24495e-05
-1.25621e-05
-1.25301e-05
-1.25134e-05
-1.25055e-05
-1.24896e-05
-1.25015e-05
-1.25177e-05
-1.25242e-05
-1.25294e-05
-1.25349e-05
-1.25418e-05
-1.25505e-05
-1.25594e-05
-1.2568e-05
-1.25767e-05
-1.25861e-05
-1.25961e-05
-1.26069e-05
-1.26182e-05
-1.263e-05
-1.26424e-05
-1.26552e-05
-1.26684e-05
-1.26817e-05
-1.26951e-05
-1.27083e-05
-1.27212e-05
-1.27336e-05
-1.27451e-05
-1.27558e-05
-1.27654e-05
-1.27741e-05
-1.27818e-05
-1.27884e-05
-1.27941e-05
-1.2799e-05
-1.28031e-05
-1.28065e-05
-1.28094e-05
-1.28119e-05
-1.2814e-05
-1.28157e-05
-1.28172e-05
-1.28185e-05
-1.28196e-05
-1.28206e-05
-1.28214e-05
-1.28221e-05
-1.28227e-05
-1.28233e-05
-1.28238e-05
-1.28242e-05
-1.28245e-05
-1.28249e-05
-1.28252e-05
-1.28255e-05
-1.28257e-05
-1.2826e-05
-1.28262e-05
-1.28264e-05
-1.28265e-05
-1.28267e-05
-1.28269e-05
-1.2827e-05
-1.28271e-05
-1.28273e-05
-1.28274e-05
-1.28276e-05
-1.28277e-05
-1.28278e-05
-1.28279e-05
-1.28281e-05
-1.28282e-05
-1.28284e-05
-1.28285e-05
-1.28287e-05
-1.28289e-05
-1.2829e-05
-1.28292e-05
-1.28295e-05
-1.28297e-05
-1.283e-05
-1.28302e-05
-1.28306e-05
-1.28309e-05
-1.28313e-05
-1.28317e-05
-1.28322e-05
-1.28327e-05
-1.28333e-05
-1.28339e-05
-1.28346e-05
-1.28353e-05
-1.28362e-05
-1.28371e-05
-1.2838e-05
-1.28391e-05
-1.28403e-05
-1.28417e-05
-1.28431e-05
-1.28447e-05
-1.28464e-05
-1.28484e-05
-1.28505e-05
-1.28528e-05
-1.28553e-05
-1.28581e-05
-1.28611e-05
-1.28645e-05
-1.28681e-05
-1.28721e-05
-1.28765e-05
-1.28814e-05
-1.28867e-05
-1.28925e-05
-1.28989e-05
-1.29058e-05
-1.29135e-05
-1.29219e-05
-1.29311e-05
-1.29411e-05
-1.29522e-05
-1.29642e-05
-1.29775e-05
-1.2992e-05
-1.30078e-05
-1.30252e-05
-1.30442e-05
-1.30651e-05
-1.30879e-05
-1.31129e-05
-1.31402e-05
-1.31702e-05
-1.3203e-05
-1.32388e-05
-1.3278e-05
-1.3321e-05
-1.3368e-05
-1.34195e-05
-1.34758e-05
-1.35375e-05
-1.3605e-05
-1.36789e-05
-1.37598e-05
-1.38484e-05
-1.39454e-05
-1.40516e-05
-1.41679e-05
-1.42953e-05
-1.44349e-05
-1.45878e-05
-1.47553e-05
-1.49389e-05
-1.51402e-05
-1.53608e-05
-1.56028e-05
-1.58682e-05
-1.61594e-05
-1.6479e-05
-1.68298e-05
-1.72154e-05
-1.76392e-05
-1.81059e-05
-1.86195e-05
-1.91883e-05
-1.98107e-05
-2.05189e-05
-2.12578e-05
-2.22001e-05
-2.29983e-05
-2.43944e-05
-2.52494e-05
-2.67952e-05
-2.956e-05
-2.83506e-05
-3.63593e-05
-1.42879e-05
-9.11577e-06
-1.13985e-05
-1.2093e-05
-1.19171e-05
-1.19872e-05
-1.20969e-05
-1.20579e-05
-1.20822e-05
-1.20979e-05
-1.20837e-05
-1.21039e-05
-1.21275e-05
-1.21388e-05
-1.21496e-05
-1.21601e-05
-1.21723e-05
-1.21871e-05
-1.2202e-05
-1.22166e-05
-1.22316e-05
-1.22473e-05
-1.22641e-05
-1.2282e-05
-1.23008e-05
-1.23204e-05
-1.23411e-05
-1.23625e-05
-1.23848e-05
-1.24077e-05
-1.24308e-05
-1.24537e-05
-1.24763e-05
-1.24981e-05
-1.25188e-05
-1.25379e-05
-1.25554e-05
-1.25712e-05
-1.25851e-05
-1.25973e-05
-1.26077e-05
-1.26166e-05
-1.26241e-05
-1.26303e-05
-1.26355e-05
-1.26398e-05
-1.26434e-05
-1.26462e-05
-1.26486e-05
-1.26504e-05
-1.2652e-05
-1.26531e-05
-1.26541e-05
-1.26548e-05
-1.26554e-05
-1.26558e-05
-1.26561e-05
-1.26563e-05
-1.26563e-05
-1.26563e-05
-1.26562e-05
-1.2656e-05
-1.26558e-05
-1.26556e-05
-1.26553e-05
-1.2655e-05
-1.26547e-05
-1.26543e-05
-1.26539e-05
-1.26535e-05
-1.26531e-05
-1.26527e-05
-1.26523e-05
-1.26519e-05
-1.26514e-05
-1.2651e-05
-1.26506e-05
-1.26502e-05
-1.26498e-05
-1.26494e-05
-1.26491e-05
-1.26488e-05
-1.26485e-05
-1.26482e-05
-1.26479e-05
-1.26477e-05
-1.26475e-05
-1.26474e-05
-1.26473e-05
-1.26473e-05
-1.26473e-05
-1.26473e-05
-1.26475e-05
-1.26477e-05
-1.2648e-05
-1.26483e-05
-1.26488e-05
-1.26493e-05
-1.265e-05
-1.26508e-05
-1.26518e-05
-1.26529e-05
-1.26541e-05
-1.26556e-05
-1.26572e-05
-1.2659e-05
-1.26611e-05
-1.26634e-05
-1.2666e-05
-1.26689e-05
-1.26722e-05
-1.26758e-05
-1.26798e-05
-1.26842e-05
-1.26891e-05
-1.26946e-05
-1.27006e-05
-1.27072e-05
-1.27145e-05
-1.27226e-05
-1.27315e-05
-1.27412e-05
-1.2752e-05
-1.27638e-05
-1.27768e-05
-1.27911e-05
-1.28067e-05
-1.28239e-05
-1.28428e-05
-1.28635e-05
-1.28862e-05
-1.29111e-05
-1.29384e-05
-1.29683e-05
-1.30011e-05
-1.3037e-05
-1.30763e-05
-1.31193e-05
-1.31665e-05
-1.32181e-05
-1.32746e-05
-1.33365e-05
-1.34043e-05
-1.34785e-05
-1.35597e-05
-1.36486e-05
-1.37459e-05
-1.38524e-05
-1.39689e-05
-1.40965e-05
-1.42361e-05
-1.43889e-05
-1.45563e-05
-1.47395e-05
-1.494e-05
-1.51596e-05
-1.54001e-05
-1.56634e-05
-1.59518e-05
-1.62678e-05
-1.66139e-05
-1.69933e-05
-1.74091e-05
-1.78652e-05
-1.83654e-05
-1.89145e-05
-1.95175e-05
-2.01802e-05
-2.09092e-05
-2.17114e-05
-2.25979e-05
-2.35713e-05
-2.46651e-05
-2.5836e-05
-2.72456e-05
-2.85894e-05
-3.055e-05
-3.21134e-05
-3.43817e-05
-3.81583e-05
-3.77706e-05
-4.7236e-05
-1.39443e-05
-1.11483e-05
-1.15828e-05
-1.15177e-05
-1.17867e-05
-1.19712e-05
-1.19431e-05
-1.19597e-05
-1.19584e-05
-1.19406e-05
-1.19782e-05
-1.2015e-05
-1.20351e-05
-1.20545e-05
-1.20716e-05
-1.20903e-05
-1.21124e-05
-1.21345e-05
-1.21562e-05
-1.21782e-05
-1.22011e-05
-1.22256e-05
-1.22514e-05
-1.22784e-05
-1.23067e-05
-1.23364e-05
-1.23672e-05
-1.23991e-05
-1.24317e-05
-1.24647e-05
-1.24977e-05
-1.25301e-05
-1.25617e-05
-1.25917e-05
-1.26199e-05
-1.26458e-05
-1.26695e-05
-1.26907e-05
-1.27093e-05
-1.27256e-05
-1.27397e-05
-1.27517e-05
-1.27618e-05
-1.27703e-05
-1.27775e-05
-1.27835e-05
-1.27885e-05
-1.27926e-05
-1.2796e-05
-1.27988e-05
-1.28011e-05
-1.28029e-05
-1.28044e-05
-1.28055e-05
-1.28064e-05
-1.28071e-05
-1.28076e-05
-1.28079e-05
-1.2808e-05
-1.28081e-05
-1.2808e-05
-1.28079e-05
-1.28076e-05
-1.28073e-05
-1.2807e-05
-1.28065e-05
-1.28061e-05
-1.28056e-05
-1.28051e-05
-1.28045e-05
-1.2804e-05
-1.28034e-05
-1.28028e-05
-1.28022e-05
-1.28016e-05
-1.2801e-05
-1.28005e-05
-1.27999e-05
-1.27994e-05
-1.27988e-05
-1.27983e-05
-1.27979e-05
-1.27974e-05
-1.2797e-05
-1.27967e-05
-1.27964e-05
-1.27961e-05
-1.27959e-05
-1.27958e-05
-1.27958e-05
-1.27958e-05
-1.2796e-05
-1.27962e-05
-1.27966e-05
-1.2797e-05
-1.27976e-05
-1.27984e-05
-1.27993e-05
-1.28004e-05
-1.28016e-05
-1.28031e-05
-1.28048e-05
-1.28067e-05
-1.2809e-05
-1.28115e-05
-1.28143e-05
-1.28175e-05
-1.28211e-05
-1.28251e-05
-1.28295e-05
-1.28345e-05
-1.284e-05
-1.28461e-05
-1.28529e-05
-1.28605e-05
-1.28688e-05
-1.28779e-05
-1.28881e-05
-1.28992e-05
-1.29115e-05
-1.29251e-05
-1.294e-05
-1.29564e-05
-1.29744e-05
-1.29942e-05
-1.30159e-05
-1.30398e-05
-1.3066e-05
-1.30947e-05
-1.31262e-05
-1.31608e-05
-1.31986e-05
-1.32401e-05
-1.32856e-05
-1.33354e-05
-1.339e-05
-1.34498e-05
-1.35152e-05
-1.35869e-05
-1.36653e-05
-1.37512e-05
-1.38451e-05
-1.3948e-05
-1.40605e-05
-1.41837e-05
-1.43185e-05
-1.4466e-05
-1.46275e-05
-1.48042e-05
-1.49975e-05
-1.5209e-05
-1.54405e-05
-1.56938e-05
-1.59711e-05
-1.62746e-05
-1.66068e-05
-1.69705e-05
-1.73686e-05
-1.78046e-05
-1.82821e-05
-1.8805e-05
-1.93779e-05
-2.00058e-05
-2.0694e-05
-2.14489e-05
-2.22771e-05
-2.31866e-05
-2.41864e-05
-2.52855e-05
-2.64976e-05
-2.783e-05
-2.93163e-05
-3.09278e-05
-3.28069e-05
-3.47118e-05
-3.72173e-05
-3.95428e-05
-4.2392e-05
-4.73537e-05
-4.71908e-05
-5.89006e-05
-1.04807e-05
-9.70316e-06
-1.05213e-05
-1.07645e-05
-1.06746e-05
-1.06912e-05
-1.0859e-05
-1.08924e-05
-1.08699e-05
-1.09176e-05
-1.09591e-05
-1.09837e-05
-1.10102e-05
-1.1033e-05
-1.10586e-05
-1.10884e-05
-1.11176e-05
-1.11464e-05
-1.11757e-05
-1.12063e-05
-1.12386e-05
-1.12731e-05
-1.1309e-05
-1.13462e-05
-1.13853e-05
-1.1426e-05
-1.14682e-05
-1.15118e-05
-1.15559e-05
-1.16001e-05
-1.16438e-05
-1.16864e-05
-1.17273e-05
-1.17657e-05
-1.18011e-05
-1.18334e-05
-1.18624e-05
-1.18881e-05
-1.19105e-05
-1.19297e-05
-1.19462e-05
-1.19601e-05
-1.19719e-05
-1.19817e-05
-1.19899e-05
-1.19967e-05
-1.20022e-05
-1.20068e-05
-1.20105e-05
-1.20135e-05
-1.20159e-05
-1.20177e-05
-1.20192e-05
-1.20203e-05
-1.20211e-05
-1.20216e-05
-1.20218e-05
-1.20219e-05
-1.20218e-05
-1.20215e-05
-1.20211e-05
-1.20207e-05
-1.20201e-05
-1.20194e-05
-1.20187e-05
-1.20179e-05
-1.2017e-05
-1.20161e-05
-1.20152e-05
-1.20142e-05
-1.20132e-05
-1.20122e-05
-1.20112e-05
-1.20102e-05
-1.20092e-05
-1.20083e-05
-1.20073e-05
-1.20064e-05
-1.20055e-05
-1.20046e-05
-1.20038e-05
-1.2003e-05
-1.20023e-05
-1.20016e-05
-1.2001e-05
-1.20004e-05
-1.2e-05
-1.19996e-05
-1.19993e-05
-1.19992e-05
-1.19991e-05
-1.19992e-05
-1.19995e-05
-1.19998e-05
-1.20004e-05
-1.20011e-05
-1.20021e-05
-1.20033e-05
-1.20047e-05
-1.20064e-05
-1.20083e-05
-1.20106e-05
-1.20133e-05
-1.20163e-05
-1.20197e-05
-1.20236e-05
-1.2028e-05
-1.20329e-05
-1.20384e-05
-1.20445e-05
-1.20514e-05
-1.2059e-05
-1.20675e-05
-1.20768e-05
-1.20872e-05
-1.20987e-05
-1.21114e-05
-1.21254e-05
-1.21409e-05
-1.21579e-05
-1.21767e-05
-1.21973e-05
-1.222e-05
-1.2245e-05
-1.22724e-05
-1.23025e-05
-1.23356e-05
-1.23719e-05
-1.24117e-05
-1.24553e-05
-1.25032e-05
-1.25557e-05
-1.26132e-05
-1.26763e-05
-1.27453e-05
-1.28208e-05
-1.29037e-05
-1.29943e-05
-1.30936e-05
-1.32023e-05
-1.33213e-05
-1.34516e-05
-1.35942e-05
-1.37503e-05
-1.39211e-05
-1.41081e-05
-1.43127e-05
-1.45367e-05
-1.47818e-05
-1.50501e-05
-1.53438e-05
-1.56652e-05
-1.60169e-05
-1.64021e-05
-1.68236e-05
-1.72852e-05
-1.77905e-05
-1.83439e-05
-1.89499e-05
-1.96137e-05
-2.03409e-05
-2.11379e-05
-2.20113e-05
-2.29692e-05
-2.40199e-05
-2.5173e-05
-2.64398e-05
-2.78324e-05
-2.93667e-05
-3.10547e-05
-3.29301e-05
-3.49783e-05
-3.73233e-05
-3.9785e-05
-4.28261e-05
-4.59118e-05
-4.9335e-05
-5.53989e-05
-5.57071e-05
-6.92571e-05
-1.42838e-05
-8.10956e-06
-8.96511e-06
-1.062e-05
-1.06585e-05
-1.03368e-05
-1.03801e-05
-1.03816e-05
-1.03794e-05
-1.04666e-05
-1.05249e-05
-1.05607e-05
-1.05984e-05
-1.06278e-05
-1.06606e-05
-1.0699e-05
-1.07361e-05
-1.07724e-05
-1.08091e-05
-1.08474e-05
-1.08879e-05
-1.09306e-05
-1.09751e-05
-1.10217e-05
-1.10707e-05
-1.11217e-05
-1.11744e-05
-1.12284e-05
-1.12834e-05
-1.13385e-05
-1.13931e-05
-1.14462e-05
-1.14972e-05
-1.15453e-05
-1.15899e-05
-1.16308e-05
-1.16675e-05
-1.17002e-05
-1.1729e-05
-1.17541e-05
-1.17757e-05
-1.17941e-05
-1.18098e-05
-1.18231e-05
-1.18344e-05
-1.18439e-05
-1.18519e-05
-1.18586e-05
-1.18642e-05
-1.18688e-05
-1.18727e-05
-1.18759e-05
-1.18785e-05
-1.18807e-05
-1.18825e-05
-1.18839e-05
-1.1885e-05
-1.18858e-05
-1.18865e-05
-1.18869e-05
-1.18871e-05
-1.18872e-05
-1.18871e-05
-1.1887e-05
-1.18867e-05
-1.18864e-05
-1.1886e-05
-1.18855e-05
-1.1885e-05
-1.18845e-05
-1.18839e-05
-1.18833e-05
-1.18827e-05
-1.18821e-05
-1.18814e-05
-1.18808e-05
-1.18802e-05
-1.18796e-05
-1.1879e-05
-1.18785e-05
-1.1878e-05
-1.18776e-05
-1.18772e-05
-1.18769e-05
-1.18766e-05
-1.18765e-05
-1.18764e-05
-1.18764e-05
-1.18765e-05
-1.18768e-05
-1.18772e-05
-1.18778e-05
-1.18785e-05
-1.18794e-05
-1.18805e-05
-1.18818e-05
-1.18833e-05
-1.18852e-05
-1.18873e-05
-1.18897e-05
-1.18925e-05
-1.18956e-05
-1.18992e-05
-1.19032e-05
-1.19077e-05
-1.19127e-05
-1.19183e-05
-1.19246e-05
-1.19315e-05
-1.19393e-05
-1.19478e-05
-1.19573e-05
-1.19679e-05
-1.19795e-05
-1.19923e-05
-1.20064e-05
-1.2022e-05
-1.20392e-05
-1.2058e-05
-1.20788e-05
-1.21017e-05
-1.21268e-05
-1.21543e-05
-1.21846e-05
-1.22179e-05
-1.22543e-05
-1.22944e-05
-1.23382e-05
-1.23863e-05
-1.2439e-05
-1.24969e-05
-1.25601e-05
-1.26296e-05
-1.27055e-05
-1.27888e-05
-1.28799e-05
-1.29797e-05
-1.3089e-05
-1.32086e-05
-1.33394e-05
-1.34827e-05
-1.36395e-05
-1.3811e-05
-1.39988e-05
-1.42042e-05
-1.44291e-05
-1.46752e-05
-1.49445e-05
-1.52392e-05
-1.55616e-05
-1.59146e-05
-1.63009e-05
-1.67236e-05
-1.71865e-05
-1.7693e-05
-1.82477e-05
-1.88549e-05
-1.95198e-05
-2.0248e-05
-2.10456e-05
-2.19194e-05
-2.28769e-05
-2.39264e-05
-2.50771e-05
-2.63396e-05
-2.77257e-05
-2.92486e-05
-3.09227e-05
-3.27664e-05
-3.47957e-05
-3.70453e-05
-3.95125e-05
-4.23069e-05
-4.53002e-05
-4.88634e-05
-5.2668e-05
-5.66446e-05
-6.37793e-05
-6.44549e-05
-7.97905e-05
-1.2806e-05
-6.80637e-06
-8.7337e-06
-9.27918e-06
-9.51177e-06
-9.70343e-06
-9.63466e-06
-9.58694e-06
-9.66793e-06
-9.71603e-06
-9.75333e-06
-9.79721e-06
-9.83021e-06
-9.87042e-06
-9.91755e-06
-9.96293e-06
-1.00074e-05
-1.00522e-05
-1.00991e-05
-1.01485e-05
-1.02009e-05
-1.02549e-05
-1.0311e-05
-1.03701e-05
-1.04314e-05
-1.04952e-05
-1.05608e-05
-1.06271e-05
-1.06936e-05
-1.07598e-05
-1.08246e-05
-1.08866e-05
-1.09453e-05
-1.10002e-05
-1.10503e-05
-1.10957e-05
-1.11362e-05
-1.11716e-05
-1.12024e-05
-1.1229e-05
-1.12518e-05
-1.12713e-05
-1.12878e-05
-1.13017e-05
-1.13134e-05
-1.13232e-05
-1.13314e-05
-1.13384e-05
-1.13442e-05
-1.1349e-05
-1.1353e-05
-1.13564e-05
-1.13591e-05
-1.13614e-05
-1.13631e-05
-1.13644e-05
-1.13654e-05
-1.13662e-05
-1.13666e-05
-1.13669e-05
-1.1367e-05
-1.13669e-05
-1.13667e-05
-1.13664e-05
-1.13659e-05
-1.13653e-05
-1.13647e-05
-1.1364e-05
-1.13632e-05
-1.13624e-05
-1.13616e-05
-1.13607e-05
-1.13598e-05
-1.13589e-05
-1.13581e-05
-1.13572e-05
-1.13564e-05
-1.13556e-05
-1.13548e-05
-1.13541e-05
-1.13534e-05
-1.13528e-05
-1.13523e-05
-1.13519e-05
-1.13515e-05
-1.13513e-05
-1.13512e-05
-1.13512e-05
-1.13514e-05
-1.13517e-05
-1.13522e-05
-1.13529e-05
-1.13539e-05
-1.1355e-05
-1.13564e-05
-1.13581e-05
-1.13602e-05
-1.13625e-05
-1.13652e-05
-1.13683e-05
-1.13719e-05
-1.1376e-05
-1.13805e-05
-1.13857e-05
-1.13915e-05
-1.1398e-05
-1.14052e-05
-1.14133e-05
-1.14223e-05
-1.14322e-05
-1.14433e-05
-1.14555e-05
-1.1469e-05
-1.1484e-05
-1.15005e-05
-1.15187e-05
-1.15387e-05
-1.15608e-05
-1.15851e-05
-1.16118e-05
-1.16412e-05
-1.16735e-05
-1.1709e-05
-1.17479e-05
-1.17907e-05
-1.18376e-05
-1.1889e-05
-1.19454e-05
-1.20072e-05
-1.20751e-05
-1.21493e-05
-1.22307e-05
-1.23198e-05
-1.24174e-05
-1.25241e-05
-1.26411e-05
-1.27692e-05
-1.29093e-05
-1.30628e-05
-1.32308e-05
-1.34147e-05
-1.3616e-05
-1.38363e-05
-1.40773e-05
-1.43411e-05
-1.46298e-05
-1.49458e-05
-1.52916e-05
-1.56701e-05
-1.60842e-05
-1.65375e-05
-1.70336e-05
-1.75768e-05
-1.81713e-05
-1.88222e-05
-1.95348e-05
-2.03151e-05
-2.11698e-05
-2.21059e-05
-2.31314e-05
-2.4255e-05
-2.54865e-05
-2.68366e-05
-2.83173e-05
-2.99418e-05
-3.17253e-05
-3.36851e-05
-3.58424e-05
-3.82172e-05
-4.08453e-05
-4.37344e-05
-4.69832e-05
-5.05041e-05
-5.45994e-05
-5.9098e-05
-6.36477e-05
-7.17985e-05
-7.28431e-05
-8.98903e-05
-1.15482e-05
-8.43984e-06
-8.50973e-06
-8.69563e-06
-8.81645e-06
-8.78291e-06
-8.87816e-06
-9.04707e-06
-9.11329e-06
-9.17006e-06
-9.22975e-06
-9.26919e-06
-9.31874e-06
-9.37432e-06
-9.42579e-06
-9.47734e-06
-9.52953e-06
-9.5833e-06
-9.64053e-06
-9.70095e-06
-9.7629e-06
-9.82719e-06
-9.89504e-06
-9.96619e-06
-1.00397e-05
-1.01156e-05
-1.01936e-05
-1.02716e-05
-1.0349e-05
-1.04251e-05
-1.04984e-05
-1.05673e-05
-1.06311e-05
-1.06896e-05
-1.07423e-05
-1.07892e-05
-1.08303e-05
-1.08662e-05
-1.08971e-05
-1.09236e-05
-1.09463e-05
-1.09658e-05
-1.09823e-05
-1.09963e-05
-1.10082e-05
-1.10182e-05
-1.10266e-05
-1.10338e-05
-1.10398e-05
-1.10448e-05
-1.10491e-05
-1.10526e-05
-1.10556e-05
-1.1058e-05
-1.106e-05
-1.10617e-05
-1.1063e-05
-1.1064e-05
-1.10647e-05
-1.10652e-05
-1.10655e-05
-1.10656e-05
-1.10656e-05
-1.10655e-05
-1.10652e-05
-1.10649e-05
-1.10645e-05
-1.1064e-05
-1.10635e-05
-1.1063e-05
-1.10624e-05
-1.10618e-05
-1.10612e-05
-1.10605e-05
-1.10599e-05
-1.10593e-05
-1.10588e-05
-1.10583e-05
-1.10579e-05
-1.10575e-05
-1.10572e-05
-1.10569e-05
-1.10568e-05
-1.10567e-05
-1.10568e-05
-1.1057e-05
-1.10574e-05
-1.10579e-05
-1.10586e-05
-1.10595e-05
-1.10606e-05
-1.10619e-05
-1.10636e-05
-1.10655e-05
-1.10677e-05
-1.10703e-05
-1.10733e-05
-1.10767e-05
-1.10805e-05
-1.10849e-05
-1.10898e-05
-1.10953e-05
-1.11015e-05
-1.11084e-05
-1.1116e-05
-1.11246e-05
-1.1134e-05
-1.11446e-05
-1.11562e-05
-1.11691e-05
-1.11833e-05
-1.1199e-05
-1.12164e-05
-1.12355e-05
-1.12565e-05
-1.12796e-05
-1.13051e-05
-1.13331e-05
-1.13639e-05
-1.13977e-05
-1.14349e-05
-1.14756e-05
-1.15204e-05
-1.15694e-05
-1.16233e-05
-1.16822e-05
-1.17468e-05
-1.18177e-05
-1.18955e-05
-1.19806e-05
-1.20738e-05
-1.21759e-05
-1.22878e-05
-1.24103e-05
-1.25445e-05
-1.26913e-05
-1.2852e-05
-1.30279e-05
-1.32203e-05
-1.34308e-05
-1.36612e-05
-1.39133e-05
-1.41893e-05
-1.44913e-05
-1.48218e-05
-1.51833e-05
-1.55787e-05
-1.60114e-05
-1.64851e-05
-1.70033e-05
-1.75705e-05
-1.81913e-05
-1.88707e-05
-1.96144e-05
-2.04285e-05
-2.132e-05
-2.22959e-05
-2.33646e-05
-2.45354e-05
-2.58181e-05
-2.72236e-05
-2.87645e-05
-3.04545e-05
-3.23097e-05
-3.43478e-05
-3.65875e-05
-3.90518e-05
-4.17642e-05
-4.47626e-05
-4.80632e-05
-5.17578e-05
-5.579e-05
-6.04118e-05
-6.55725e-05
-7.06925e-05
-7.98115e-05
-8.12102e-05
-9.98901e-05
-8.21554e-06
-7.13399e-06
-8.48726e-06
-8.73641e-06
-8.27086e-06
-8.20494e-06
-8.35685e-06
-8.40532e-06
-8.45966e-06
-8.51737e-06
-8.55262e-06
-8.60956e-06
-8.67628e-06
-8.73463e-06
-8.79204e-06
-8.85054e-06
-8.91229e-06
-8.97783e-06
-9.04715e-06
-9.11912e-06
-9.19357e-06
-9.27208e-06
-9.35403e-06
-9.43978e-06
-9.52781e-06
-9.61712e-06
-9.70718e-06
-9.79633e-06
-9.88287e-06
-9.96611e-06
-1.00453e-05
-1.01188e-05
-1.01857e-05
-1.02466e-05
-1.03011e-05
-1.03492e-05
-1.03914e-05
-1.04279e-05
-1.04593e-05
-1.04862e-05
-1.05092e-05
-1.05289e-05
-1.05455e-05
-1.05596e-05
-1.05718e-05
-1.05819e-05
-1.05904e-05
-1.05976e-05
-1.06037e-05
-1.0609e-05
-1.06133e-05
-1.06169e-05
-1.06198e-05
-1.06222e-05
-1.06241e-05
-1.06257e-05
-1.06268e-05
-1.06278e-05
-1.06285e-05
-1.06289e-05
-1.06291e-05
-1.06291e-05
-1.06289e-05
-1.06286e-05
-1.06282e-05
-1.06277e-05
-1.06271e-05
-1.06265e-05
-1.06258e-05
-1.0625e-05
-1.06243e-05
-1.06235e-05
-1.06228e-05
-1.0622e-05
-1.06213e-05
-1.06205e-05
-1.06198e-05
-1.06192e-05
-1.06187e-05
-1.06182e-05
-1.06178e-05
-1.06176e-05
-1.06174e-05
-1.06174e-05
-1.06175e-05
-1.06178e-05
-1.06183e-05
-1.06189e-05
-1.06198e-05
-1.0621e-05
-1.06224e-05
-1.06242e-05
-1.06262e-05
-1.06287e-05
-1.06315e-05
-1.06347e-05
-1.06385e-05
-1.06427e-05
-1.06476e-05
-1.0653e-05
-1.06592e-05
-1.06661e-05
-1.06738e-05
-1.06824e-05
-1.06919e-05
-1.07025e-05
-1.07143e-05
-1.07273e-05
-1.07418e-05
-1.07577e-05
-1.07754e-05
-1.07948e-05
-1.08163e-05
-1.08399e-05
-1.08659e-05
-1.08945e-05
-1.0926e-05
-1.09606e-05
-1.09987e-05
-1.10404e-05
-1.10864e-05
-1.11369e-05
-1.11922e-05
-1.12529e-05
-1.13194e-05
-1.13923e-05
-1.14721e-05
-1.15595e-05
-1.16554e-05
-1.17606e-05
-1.18757e-05
-1.20015e-05
-1.21392e-05
-1.22904e-05
-1.24555e-05
-1.26362e-05
-1.28343e-05
-1.3051e-05
-1.32881e-05
-1.35476e-05
-1.38314e-05
-1.41419e-05
-1.44818e-05
-1.48538e-05
-1.52611e-05
-1.57068e-05
-1.61943e-05
-1.67278e-05
-1.73119e-05
-1.79511e-05
-1.86507e-05
-1.94163e-05
-2.02547e-05
-2.11723e-05
-2.21771e-05
-2.32774e-05
-2.44822e-05
-2.58017e-05
-2.72475e-05
-2.88316e-05
-3.05677e-05
-3.24721e-05
-3.4561e-05
-3.68543e-05
-3.93741e-05
-4.21459e-05
-4.51965e-05
-4.85652e-05
-5.22755e-05
-5.64149e-05
-6.09509e-05
-6.60994e-05
-7.19013e-05
-7.75925e-05
-8.76432e-05
-8.93889e-05
-0.000109632
-1.16605e-05
-5.12244e-06
-6.77294e-06
-7.47448e-06
-7.45437e-06
-7.53505e-06
-7.65871e-06
-7.70497e-06
-7.80441e-06
-7.8894e-06
-7.93186e-06
-8.00304e-06
-8.07934e-06
-8.14467e-06
-8.20917e-06
-8.2743e-06
-8.34311e-06
-8.41697e-06
-8.49368e-06
-8.57551e-06
-8.66077e-06
-8.74939e-06
-8.84053e-06
-8.93642e-06
-9.0355e-06
-9.13618e-06
-9.23743e-06
-9.33752e-06
-9.43505e-06
-9.52857e-06
-9.61741e-06
-9.70154e-06
-9.77828e-06
-9.84701e-06
-9.90875e-06
-9.96316e-06
-1.00104e-05
-1.00512e-05
-1.00859e-05
-1.0116e-05
-1.01415e-05
-1.01629e-05
-1.01813e-05
-1.01967e-05
-1.02099e-05
-1.02213e-05
-1.02309e-05
-1.02389e-05
-1.02457e-05
-1.02515e-05
-1.02566e-05
-1.02609e-05
-1.02643e-05
-1.02672e-05
-1.02696e-05
-1.02715e-05
-1.0273e-05
-1.02741e-05
-1.0275e-05
-1.02756e-05
-1.02761e-05
-1.02764e-05
-1.02765e-05
-1.02764e-05
-1.02762e-05
-1.02759e-05
-1.02755e-05
-1.0275e-05
-1.02744e-05
-1.02737e-05
-1.02731e-05
-1.02725e-05
-1.02719e-05
-1.02713e-05
-1.02707e-05
-1.02701e-05
-1.02696e-05
-1.02692e-05
-1.02688e-05
-1.02685e-05
-1.02684e-05
-1.02683e-05
-1.02684e-05
-1.02686e-05
-1.0269e-05
-1.02696e-05
-1.02704e-05
-1.02715e-05
-1.02727e-05
-1.02742e-05
-1.02761e-05
-1.02782e-05
-1.02807e-05
-1.02836e-05
-1.02869e-05
-1.02907e-05
-1.0295e-05
-1.02999e-05
-1.03054e-05
-1.03115e-05
-1.03185e-05
-1.03262e-05
-1.03349e-05
-1.03445e-05
-1.03553e-05
-1.03672e-05
-1.03804e-05
-1.03951e-05
-1.04112e-05
-1.04291e-05
-1.04488e-05
-1.04706e-05
-1.04945e-05
-1.05209e-05
-1.055e-05
-1.05819e-05
-1.0617e-05
-1.06556e-05
-1.06979e-05
-1.07443e-05
-1.07951e-05
-1.0851e-05
-1.09123e-05
-1.09797e-05
-1.10533e-05
-1.11342e-05
-1.12232e-05
-1.13203e-05
-1.14265e-05
-1.1543e-05
-1.16705e-05
-1.18102e-05
-1.1963e-05
-1.21305e-05
-1.23138e-05
-1.25142e-05
-1.27338e-05
-1.29741e-05
-1.32372e-05
-1.35251e-05
-1.38404e-05
-1.41854e-05
-1.45626e-05
-1.49755e-05
-1.54273e-05
-1.59218e-05
-1.6463e-05
-1.70549e-05
-1.77024e-05
-1.84117e-05
-1.91872e-05
-2.00367e-05
-2.0966e-05
-2.1984e-05
-2.30981e-05
-2.43182e-05
-2.56546e-05
-2.71184e-05
-2.87217e-05
-3.0479e-05
-3.2405e-05
-3.45164e-05
-3.68308e-05
-3.937e-05
-4.21601e-05
-4.52297e-05
-4.86085e-05
-5.23378e-05
-5.64468e-05
-6.10208e-05
-6.60451e-05
-7.17097e-05
-7.81268e-05
-8.4377e-05
-9.53216e-05
-9.73931e-05
-0.000119145
-1.02223e-05
-6.53808e-06
-6.70452e-06
-6.63648e-06
-6.93481e-06
-7.12964e-06
-7.11667e-06
-7.17948e-06
-7.22556e-06
-7.25284e-06
-7.33377e-06
-7.41585e-06
-7.48864e-06
-7.56243e-06
-7.63542e-06
-7.71156e-06
-7.79568e-06
-7.88116e-06
-7.9709e-06
-8.06626e-06
-8.16363e-06
-8.26724e-06
-8.37289e-06
-8.48106e-06
-8.59309e-06
-8.70603e-06
-8.81847e-06
-8.92829e-06
-9.03442e-06
-9.13441e-06
-9.22782e-06
-9.31419e-06
-9.39144e-06
-9.45917e-06
-9.51913e-06
-9.57148e-06
-9.61701e-06
-9.65604e-06
-9.68914e-06
-9.71799e-06
-9.74247e-06
-9.76327e-06
-9.78127e-06
-9.79661e-06
-9.80936e-06
-9.82043e-06
-9.82981e-06
-9.83785e-06
-9.84457e-06
-9.85016e-06
-9.85491e-06
-9.85902e-06
-9.86258e-06
-9.86548e-06
-9.86779e-06
-9.86975e-06
-9.87129e-06
-9.87244e-06
-9.8733e-06
-9.87388e-06
-9.87424e-06
-9.87439e-06
-9.87438e-06
-9.87423e-06
-9.87397e-06
-9.87361e-06
-9.87316e-06
-9.87263e-06
-9.87201e-06
-9.87135e-06
-9.87067e-06
-9.86999e-06
-9.86931e-06
-9.86868e-06
-9.86807e-06
-9.86751e-06
-9.86702e-06
-9.86657e-06
-9.86616e-06
-9.86586e-06
-9.86569e-06
-9.86569e-06
-9.86586e-06
-9.86623e-06
-9.86683e-06
-9.86765e-06
-9.86871e-06
-9.87004e-06
-9.87168e-06
-9.87365e-06
-9.87597e-06
-9.8787e-06
-9.88187e-06
-9.88553e-06
-9.88972e-06
-9.89447e-06
-9.89987e-06
-9.90596e-06
-9.9128e-06
-9.92046e-06
-9.92901e-06
-9.93854e-06
-9.94916e-06
-9.96095e-06
-9.97407e-06
-9.98861e-06
-1.00047e-05
-1.00225e-05
-1.00421e-05
-1.00638e-05
-1.00877e-05
-1.0114e-05
-1.0143e-05
-1.0175e-05
-1.02101e-05
-1.02487e-05
-1.02912e-05
-1.03378e-05
-1.03891e-05
-1.04453e-05
-1.05068e-05
-1.05744e-05
-1.06487e-05
-1.07297e-05
-1.08184e-05
-1.09159e-05
-1.10229e-05
-1.114e-05
-1.12685e-05
-1.1409e-05
-1.15627e-05
-1.17316e-05
-1.19161e-05
-1.21179e-05
-1.23391e-05
-1.2581e-05
-1.28453e-05
-1.31351e-05
-1.34522e-05
-1.37988e-05
-1.41786e-05
-1.45939e-05
-1.5048e-05
-1.55444e-05
-1.60878e-05
-1.66827e-05
-1.73337e-05
-1.80456e-05
-1.88254e-05
-1.96778e-05
-2.06118e-05
-2.16331e-05
-2.27519e-05
-2.3976e-05
-2.53163e-05
-2.67845e-05
-2.83923e-05
-3.01528e-05
-3.20819e-05
-3.41959e-05
-3.65127e-05
-3.9055e-05
-4.18453e-05
-4.49092e-05
-4.82774e-05
-5.19829e-05
-5.60694e-05
-6.05715e-05
-6.55738e-05
-7.10751e-05
-7.72471e-05
-8.42588e-05
-9.10567e-05
-0.00010286
-0.000105246
-0.000128443
-6.30069e-06
-5.41245e-06
-6.04771e-06
-6.17639e-06
-6.15684e-06
-6.26267e-06
-6.48903e-06
-6.57179e-06
-6.60317e-06
-6.70047e-06
-6.79139e-06
-6.86993e-06
-6.95097e-06
-7.02976e-06
-7.11432e-06
-7.20679e-06
-7.30199e-06
-7.39971e-06
-7.50272e-06
-7.60867e-06
-7.72253e-06
-7.83984e-06
-7.96006e-06
-8.08259e-06
-8.20796e-06
-8.33301e-06
-8.45502e-06
-8.57302e-06
-8.68449e-06
-8.78674e-06
-8.88058e-06
-8.96538e-06
-9.03963e-06
-9.10537e-06
-9.16248e-06
-9.21248e-06
-9.25608e-06
-9.29312e-06
-9.32499e-06
-9.35197e-06
-9.37476e-06
-9.395e-06
-9.41151e-06
-9.4253e-06
-9.43771e-06
-9.44839e-06
-9.45756e-06
-9.46512e-06
-9.47137e-06
-9.47659e-06
-9.48093e-06
-9.48482e-06
-9.48827e-06
-9.49118e-06
-9.49361e-06
-9.49561e-06
-9.49716e-06
-9.4983e-06
-9.49912e-06
-9.49966e-06
-9.49997e-06
-9.50009e-06
-9.5e-06
-9.49976e-06
-9.49941e-06
-9.49897e-06
-9.49848e-06
-9.49796e-06
-9.49738e-06
-9.49675e-06
-9.49612e-06
-9.49549e-06
-9.49488e-06
-9.4943e-06
-9.49377e-06
-9.49333e-06
-9.49295e-06
-9.49264e-06
-9.49244e-06
-9.49238e-06
-9.49248e-06
-9.49277e-06
-9.49324e-06
-9.49391e-06
-9.49481e-06
-9.49598e-06
-9.49747e-06
-9.49929e-06
-9.50146e-06
-9.50404e-06
-9.50706e-06
-9.51057e-06
-9.5146e-06
-9.51921e-06
-9.52444e-06
-9.53038e-06
-9.53706e-06