/*--------------------------------*- C++ -*----------------------------------*\
| =========                 |                                                 |
| \\      /  F ield         | OpenFOAM: The Open Source CFD Toolbox           |
|  \\    /   O peration     | Version:  2512                                  |
|   \\  /    A nd           | Website:  www.openfoam.com                      |
|    \\/     M anipulation  |                                                 |
\*---------------------------------------------------------------------------*/
FoamFile
{
    version     2.0;
    format      ascii;
    arch        "LSB;label=32;scalar=64";
    class       volScalarField;
    location    "0.1";
    object      Uz;
}
// * * * * * * * * * * * * * * * * * * * * * * * * * * * * * * * * * * * * * //

dimensions      [0 1 -1 0 0 0 0];

internalField   nonuniform List<scalar> 
8334
(
2.91756e-19
4.45657e-20
1.93359e-19
1.64903e-19
3.5563e-19
-2.76525e-19
1.03898e-19
-1.61548e-19
2.65477e-19
4.05905e-20
1.92609e-19
1.63513e-19
3.42507e-19
-2.73854e-19
1.02133e-19
-1.68544e-19
2.63561e-19
3.31782e-20
1.92049e-19
1.69208e-19
3.45245e-19
-2.7421e-19
1.06813e-19
-1.68177e-19
2.66771e-19
3.13218e-20
1.91511e-19
1.75234e-19
3.46885e-19
-2.70682e-19
1.08351e-19
-1.67847e-19
2.65238e-19
3.0633e-20
1.908e-19
1.70014e-19
3.48262e-19
-2.79073e-19
1.08011e-19
-1.62675e-19
2.69614e-19
3.97961e-20
1.95974e-19
1.74659e-19
3.37283e-19
-2.74471e-19
1.04191e-19
-1.6492e-19
2.66199e-19
2.55663e-20
1.89862e-19
1.70858e-19
3.39989e-19
-2.81833e-19
1.07917e-19
-1.65762e-19
2.76269e-19
3.66207e-20
1.95676e-19
1.78274e-19
3.39022e-19
-2.7568e-19
1.04522e-19
-1.60594e-19
2.72125e-19
2.69079e-20
1.9044e-19
1.72192e-19
3.41914e-19
-2.88577e-19
1.09391e-19
-1.52802e-19
2.77337e-19
3.95669e-20
1.96997e-19
1.76416e-19
3.32307e-19
-2.83184e-19
1.06008e-19
-1.61614e-19
2.77149e-19
2.11125e-20
1.93328e-19
1.81943e-19
3.437e-19
-2.87775e-19
1.09076e-19
-1.54185e-19
2.85137e-19
3.47462e-20
1.96833e-19
1.80374e-19
3.352e-19
-2.90296e-19
1.13734e-19
-1.6177e-19
2.83156e-19
3.15331e-20
2.00749e-19
1.88497e-19
3.38918e-19
-2.86836e-19
1.09237e-19
-1.53028e-19
2.84396e-19
2.687e-20
1.93087e-19
1.80424e-19
3.34041e-19
-2.9277e-19
1.09885e-19
-1.49071e-19
2.80898e-19
3.33362e-20
1.97982e-19
1.78111e-19
3.2209e-19
-2.90165e-19
8.25006e-20
-6.09465e-20
4.84066e-20
4.3287e-19
-1.34756e-19
2.20525e-19
-1.11261e-19
3.00478e-19
4.09633e-20
2.05722e-19
1.9052e-19
3.22991e-19
-2.91129e-19
1.0911e-19
-1.58324e-19
2.77562e-19
2.52076e-20
1.95853e-19
1.82007e-19
3.23476e-19
-2.97494e-19
1.08437e-19
-1.43232e-19
2.91198e-19
2.04797e-20
1.95042e-19
1.88906e-19
3.21586e-19
-2.92309e-19
1.13172e-19
-1.55788e-19
2.82686e-19
2.44108e-20
2.00782e-19
1.92697e-19
3.22953e-19
-2.93842e-19
1.10383e-19
-1.44447e-19
2.86207e-19
2.41811e-20
1.95421e-19
1.83273e-19
3.14484e-19
-3.01771e-19
1.15809e-19
-1.61168e-19
2.9188e-19
3.29996e-20
2.06025e-19
1.95804e-19
3.23488e-19
-2.98953e-19
1.15132e-19
-1.50597e-19
2.91096e-19
3.12852e-20
2.01162e-19
1.8796e-19
3.1287e-19
-3.00473e-19
1.03935e-19
-1.38954e-19
2.54486e-19
8.3707e-20
1.43349e-19
6.40831e-19
1.31013e-18
1.05088e-18
2.33346e-18
-7.11207e-19
9.88541e-19
-4.16607e-19
1.61892e-18
6.20338e-19
1.31342e-18
1.06142e-18
2.27265e-18
-7.03569e-19
9.82459e-19
-4.58348e-19
1.60855e-18
5.80067e-19
1.30056e-18
1.08198e-18
2.28875e-18
-7.11364e-19
9.98428e-19
-4.52397e-19
1.62049e-18
5.7541e-19
1.2861e-18
1.10059e-18
2.2937e-18
-7.00373e-19
1.01174e-18
-4.45668e-19
1.61238e-18
5.73386e-19
1.29206e-18
1.07797e-18
2.2986e-18
-7.33286e-19
9.96668e-19
-4.27764e-19
1.627e-18
6.10082e-19
1.31214e-18
1.10917e-18
2.2539e-18
-7.19865e-19
9.91243e-19
-4.39424e-19
1.63337e-18
5.51227e-19
1.28571e-18
1.09443e-18
2.26979e-18
-7.51257e-19
1.00519e-18
-4.5469e-19
1.6594e-18
6.09109e-19
1.31024e-18
1.1254e-18
2.26124e-18
-7.22731e-19
9.85554e-19
-4.28708e-19
1.64885e-18
5.59439e-19
1.28131e-18
1.09072e-18
2.27952e-18
-7.84588e-19
9.93318e-19
-3.86285e-19
1.67119e-18
6.13882e-19
1.30878e-18
1.11644e-18
2.23291e-18
-7.61749e-19
9.84657e-19
-4.32928e-19
1.68215e-18
5.33762e-19
1.28608e-18
1.13898e-18
2.29572e-18
-7.76147e-19
9.97433e-19
-4.0702e-19
1.71409e-18
6.061e-19
1.31116e-18
1.13685e-18
2.25824e-18
-7.9816e-19
1.01557e-18
-4.30113e-19
1.69896e-18
5.81806e-19
1.32248e-18
1.17322e-18
2.27645e-18
-7.7943e-19
9.961e-19
-3.93933e-19
1.71658e-18
5.73727e-19
1.29587e-18
1.13479e-18
2.25027e-18
-8.10929e-19
9.96314e-19
-3.6993e-19
1.69998e-18
5.8788e-19
1.3205e-18
1.14427e-18
2.19911e-18
-7.78799e-19
7.9803e-19
1.80363e-19
4.01032e-19
2.52711e-18
-1.5045e-19
1.51954e-18
-1.77185e-19
1.78038e-18
6.15791e-19
1.33557e-18
1.19551e-18
2.21222e-18
-8.04077e-19
1.00327e-18
-4.07179e-19
1.68453e-18
5.57272e-19
1.30487e-18
1.15405e-18
2.20924e-18
-8.38259e-19
9.77361e-19
-3.57354e-19
1.75349e-18
5.36758e-19
1.29363e-18
1.18869e-18
2.19963e-18
-8.15258e-19
1.00383e-18
-4.01743e-19
1.70194e-18
5.41853e-19
1.3035e-18
1.19747e-18
2.2065e-18
-8.26668e-19
9.92164e-19
-3.59915e-19
1.72922e-18
5.53499e-19
1.29628e-18
1.1662e-18
2.16951e-18
-8.62384e-19
1.0164e-18
-4.40298e-19
1.73612e-18
5.98922e-19
1.34133e-18
1.21537e-18
2.21256e-18
-8.48569e-19
1.01417e-18
-3.88434e-19
1.74182e-18
5.92525e-19
1.32661e-18
1.19295e-18
2.16571e-18
-8.4591e-19
9.5684e-19
-3.12658e-19
1.55267e-18
8.56263e-19
1.08692e-18
2.21546e-18
5.19073e-18
3.78799e-18
7.34389e-18
-2.12975e-18
4.33043e-18
-8.2812e-19
6.18042e-18
2.14054e-18
5.17821e-18
3.83268e-18
7.17255e-18
-2.09053e-18
4.30776e-18
-9.8816e-19
6.16735e-18
2.02111e-18
5.16453e-18
3.89657e-18
7.23143e-18
-2.11375e-18
4.35182e-18
-9.43108e-19
6.18236e-18
2.0231e-18
5.08087e-18
3.90935e-18
7.23312e-18
-2.1141e-18
4.41227e-18
-8.92483e-19
6.13411e-18
1.99951e-18
5.15147e-18
3.87119e-18
7.235e-18
-2.1784e-18
4.32594e-18
-8.67182e-19
6.17089e-18
2.09648e-18
5.15991e-18
3.93665e-18
7.12524e-18
-2.16757e-18
4.34711e-18
-9.21519e-19
6.26887e-18
1.96207e-18
5.11509e-18
3.93901e-18
7.18502e-18
-2.24388e-18
4.41583e-18
-9.5775e-19
6.26509e-18
2.13934e-18
5.18417e-18
3.99157e-18
7.13536e-18
-2.16193e-18
4.32978e-18
-8.79964e-19
6.23071e-18
1.97751e-18
5.07552e-18
3.88907e-18
7.19856e-18
-2.34672e-18
4.35845e-18
-7.33019e-19
6.33672e-18
2.14402e-18
5.1386e-18
3.93807e-18
7.04649e-18
-2.26121e-18
4.29783e-18
-9.12571e-19
6.35083e-18
1.90745e-18
5.09018e-18
4.03102e-18
7.24777e-18
-2.30502e-18
4.37819e-18
-8.49892e-19
6.44275e-18
2.15237e-18
5.17278e-18
4.01114e-18
7.13896e-18
-2.36554e-18
4.39835e-18
-8.83609e-19
6.39403e-18
2.04218e-18
5.20457e-18
4.11801e-18
7.1931e-18
-2.32288e-18
4.32862e-18
-7.96181e-19
6.45509e-18
2.03614e-18
5.20611e-18
4.03207e-18
7.11876e-18
-2.43576e-18
4.36772e-18
-6.89039e-19
6.40794e-18
2.04443e-18
5.20631e-18
4.06523e-18
6.98544e-18
-2.28458e-18
3.72194e-18
9.62997e-19
2.44895e-18
8.2403e-18
-5.02948e-19
5.8463e-18
-1.44166e-19
6.61018e-18
2.13508e-18
5.19843e-18
4.15723e-18
7.01546e-18
-2.40261e-18
4.39443e-18
-7.92063e-19
6.36322e-18
1.9745e-18
5.17488e-18
4.0775e-18
7.00999e-18
-2.49405e-18
4.29912e-18
-6.77241e-19
6.56269e-18
1.89306e-18
5.14749e-18
4.20021e-18
6.98516e-18
-2.40652e-18
4.36306e-18
-7.89516e-19
6.37409e-18
1.92239e-18
5.09484e-18
4.15671e-18
6.99299e-18
-2.47942e-18
4.34898e-18
-6.80794e-19
6.49267e-18
1.97471e-18
5.13168e-18
4.11809e-18
6.89046e-18
-2.52547e-18
4.37599e-18
-9.62048e-19
6.47875e-18
2.13266e-18
5.2781e-18
4.22334e-18
6.994e-18
-2.52703e-18
4.39411e-18
-7.81073e-19
6.49716e-18
2.10363e-18
5.21184e-18
4.18099e-18
6.87171e-18
-2.49322e-18
4.23757e-18
-5.65603e-19
5.95903e-18
2.96507e-18
4.24018e-18
1.70094e-17
9.39731e-18
1.39734e-17
-6.15635e-18
1.52169e-17
-1.18229e-18
1.92496e-17
4.0756e-18
1.68205e-17
9.44816e-18
1.36667e-17
-6.03148e-18
1.51563e-17
-1.58269e-18
1.93696e-17
3.868e-18
1.711e-17
9.62641e-18
1.37922e-17
-6.09352e-18
1.53464e-17
-1.41145e-18
1.93744e-17
3.92646e-18
1.66068e-17
9.52411e-18
1.37724e-17
-6.1731e-18
1.56725e-17
-1.18607e-18
1.90245e-17
3.71511e-18
1.71938e-17
9.58322e-18
1.37623e-17
-6.18013e-18
1.52499e-17
-1.26439e-18
1.93421e-17
3.95888e-18
1.68895e-17
9.58456e-18
1.35823e-17
-6.21969e-18
1.54182e-17
-1.43601e-18
1.96975e-17
3.84226e-18
1.66537e-17
9.66026e-18
1.37223e-17
-6.36302e-18
1.55497e-17
-1.37666e-18
1.94594e-17
4.09293e-18
1.71147e-17
9.70572e-18
1.35777e-17
-6.19648e-18
1.53615e-17
-1.23948e-18
1.91654e-17
3.78638e-18
1.65182e-17
9.48931e-18
1.37102e-17
-6.57451e-18
1.56566e-17
-9.65562e-19
1.97085e-17
4.16082e-18
1.68877e-17
9.54708e-18
1.33895e-17
-6.31509e-18
1.52286e-17
-1.37277e-18
1.91995e-17
3.65864e-18
1.66392e-17
9.76126e-18
1.37818e-17
-6.45189e-18
1.5643e-17
-1.24897e-18
1.97946e-17
4.18731e-18
1.70299e-17
9.68933e-18
1.35666e-17
-6.52847e-18
1.55955e-17
-1.27113e-18
1.95323e-17
3.89722e-18
1.70171e-17
9.89704e-18
1.36728e-17
-6.41862e-18
1.53356e-17
-1.20502e-18
1.97335e-17
3.80825e-18
1.73609e-17
9.89753e-18
1.35914e-17
-6.71501e-18
1.55611e-17
-8.4196e-19
1.94887e-17
3.84e-18
1.70915e-17
9.84618e-18
1.33362e-17
-6.35448e-18
1.43216e-17
1.97152e-18
1.22705e-17
1.76626e-17
-2.8312e-18
1.82063e-17
1.1773e-19
1.99398e-17
4.07046e-18
1.71313e-17
9.88473e-18
1.33525e-17
-6.63793e-18
1.55446e-17
-1.04878e-18
1.96971e-17
3.75445e-18
1.6969e-17
9.85359e-18
1.33685e-17
-6.76748e-18
1.54994e-17
-8.82385e-19
2.00642e-17
3.56334e-18
1.70557e-17
1.01147e-17
1.33354e-17
-6.5811e-18
1.55779e-17
-1.00934e-18
1.93073e-17
3.67267e-18
1.66681e-17
9.8533e-18
1.33104e-17
-6.75376e-18
1.53206e-17
-8.925e-19
1.9861e-17
3.8011e-18
1.6874e-17
9.89179e-18
1.31188e-17
-6.67792e-18
1.52589e-17
-1.55551e-18
1.97502e-17
4.0998e-18
1.72244e-17
1.00645e-17
1.32818e-17
-6.78873e-18
1.53884e-17
-1.1121e-18
1.98028e-17
4.05017e-18
1.68691e-17
9.93983e-18
1.30697e-17
-6.71394e-18
1.551e-17
-7.8801e-19
1.88836e-17
5.99412e-18
1.37738e-17
3.22861e-18
7.47494e-18
-2.74266e-18
3.90285e-18
-1.65087e-18
5.78578e-18
1.6723e-18
4.78633e-18
3.30761e-18
7.30919e-18
-2.72409e-18
3.87678e-18
-1.80596e-18
5.77365e-18
1.55987e-18
4.76313e-18
3.3631e-18
7.36906e-18
-2.74167e-18
3.9115e-18
-1.7681e-18
5.78802e-18
1.56175e-18
4.68138e-18
3.38316e-18
7.37578e-18
-2.74962e-18
3.96522e-18
-1.72283e-18
5.73665e-18
1.54266e-18
4.75297e-18
3.33842e-18
7.37694e-18
-2.80816e-18
3.88223e-18
-1.69479e-18
5.77568e-18
1.63454e-18
4.75757e-18
3.41601e-18
7.26566e-18
-2.81343e-18
3.90617e-18
-1.75842e-18
5.87995e-18
1.50438e-18
4.71496e-18
3.40457e-18
7.31025e-18
-2.88574e-18
3.98355e-18
-1.77628e-18
5.87895e-18
1.67331e-18
4.79307e-18
3.47513e-18
7.2635e-18
-2.80847e-18
3.89799e-18
-1.69581e-18
5.85297e-18
1.51765e-18
4.67828e-18
3.38112e-18
7.3253e-18
-3.00762e-18
3.91296e-18
-1.54907e-18
5.95612e-18
1.68528e-18
4.73715e-18
3.43115e-18
7.17943e-18
-2.9234e-18
3.85642e-18
-1.72724e-18
5.97554e-18
1.43828e-18
4.68815e-18
3.52409e-18
7.37418e-18
-2.96549e-18
3.92868e-18
-1.66878e-18
6.06336e-18
1.69347e-18
4.77497e-18
3.5142e-18
7.2654e-18
-3.03208e-18
3.96016e-18
-1.6998e-18
6.03073e-18
1.58446e-18
4.80129e-18
3.60817e-18
7.31056e-18
-2.98729e-18
3.87198e-18
-1.62467e-18
6.07981e-18
1.57767e-18
4.80916e-18
3.54748e-18
7.2443e-18
-3.11027e-18
3.91393e-18
-1.50908e-18
6.04888e-18
1.58407e-18
4.8021e-18
3.58256e-18
7.0922e-18
-2.93449e-18
3.15986e-18
4.22445e-19
1.62254e-18
8.24567e-18
-1.06477e-18
5.56097e-18
-8.58395e-19
6.29396e-18
1.69256e-18
4.80199e-18
3.66807e-18
7.129e-18
-3.09452e-18
3.95356e-18
-1.60859e-18
6.00797e-18
1.49989e-18
4.77386e-18
3.59124e-18
7.10884e-18
-3.18864e-18
3.84968e-18
-1.49673e-18
6.21814e-18
1.43336e-18
4.74337e-18
3.71751e-18
7.08601e-18
-3.10215e-18
3.90864e-18
-1.61031e-18
6.02483e-18
1.46708e-18
4.68539e-18
3.68634e-18
7.09456e-18
-3.18291e-18
3.89914e-18
-1.48056e-18
6.14761e-18
1.5037e-18
4.73923e-18
3.64617e-18
6.98353e-18
-3.22914e-18
3.91738e-18
-1.77231e-18
6.12548e-18
1.66264e-18
4.87121e-18
3.76554e-18
7.07739e-18
-3.24172e-18
3.92536e-18
-1.5975e-18
6.15207e-18
1.63273e-18
4.80648e-18
3.70625e-18
6.92842e-18
-3.20793e-18
3.7436e-18
-1.34038e-18
5.51207e-18
2.56524e-18
3.79684e-18
2.37306e-18
-3.79343e-18
-6.42861e-19
-3.70375e-18
3.9279e-19
-1.45343e-18
-1.35744e-19
-7.96109e-19
2.30935e-18
-3.8518e-18
-6.86713e-19
-3.73561e-18
3.85954e-19
-1.46811e-18
-1.68398e-19
-7.99303e-19
2.33554e-18
-3.83096e-18
-6.95642e-19
-3.75565e-18
3.87188e-19
-1.47381e-18
-1.66138e-19
-7.60898e-19
2.3698e-18
-3.84646e-18
-7.05373e-19
-3.78127e-18
3.59664e-19
-1.46426e-18
-1.62659e-19
-8.09835e-19
2.36688e-18
-3.85497e-18
-7.02819e-19
-3.74036e-18
3.88809e-19
-1.43688e-18
-1.54801e-19
-7.43357e-19
2.31514e-18
-3.89748e-18
-6.94968e-19
-3.78571e-18
4.01249e-19
-1.49637e-18
-1.70889e-19
-8.00145e-19
2.28597e-18
-3.9049e-18
-6.5046e-19
-3.73591e-18
4.49521e-19
-1.46109e-18
-1.26872e-19
-7.12821e-19
2.29734e-18
-3.8957e-18
-6.75184e-19
-3.70384e-18
4.4928e-19
-1.49919e-18
-1.58126e-19
-7.19587e-19
2.29295e-18
-4.00672e-18
-6.80504e-19
-3.64044e-18
4.69461e-19
-1.43468e-18
-1.60183e-19
-7.03076e-19
2.27795e-18
-3.97612e-18
-6.96121e-19
-3.69587e-18
4.90501e-19
-1.56289e-18
-1.69148e-19
-6.66586e-19
2.31383e-18
-3.99618e-18
-7.13038e-19
-3.685e-18
5.13035e-19
-1.44406e-18
-1.38786e-19
-6.37309e-19
2.27015e-18
-4.0253e-18
-6.51283e-19
-3.69989e-18
5.58061e-19
-1.46127e-18
-1.35016e-19
-6.59526e-19
2.2573e-18
-4.00576e-18
-7.27212e-19
-3.70156e-18
5.15846e-19
-1.48029e-18
-1.4969e-19
-6.08465e-19
2.25864e-18
-4.05603e-18
-7.10183e-19
-3.64711e-18
5.60935e-19
-1.46126e-18
-1.59759e-19
-5.9686e-19
2.15934e-18
-3.96513e-18
-1.21778e-18
-2.2302e-18
-2.36722e-18
2.46911e-18
-2.84247e-18
4.05879e-19
-3.12926e-18
7.59054e-19
-1.39025e-18
-1.03571e-19
-5.68639e-19
2.1883e-18
-4.10784e-18
-6.58625e-19
-3.6836e-18
5.49815e-19
-1.55544e-18
-1.55391e-19
-6.14262e-19
2.1244e-18
-4.14932e-18
-7.05859e-19
-3.62569e-18
6.51661e-19
-1.52615e-18
-1.68597e-19
-5.65253e-19
2.13995e-18
-4.12227e-18
-7.06253e-19
-3.695e-18
5.79972e-19
-1.49203e-18
-1.8086e-19
-5.09587e-19
2.15259e-18
-4.15349e-18
-6.89505e-19
-3.56461e-18
6.28947e-19
-1.53952e-18
-1.02938e-19
-5.52494e-19
2.10221e-18
-4.19636e-18
-7.08751e-19
-3.70506e-18
6.43837e-19
-1.48836e-18
-1.16909e-19
-4.53893e-19
2.11425e-18
-4.22765e-18
-7.19223e-19
-3.66269e-18
6.90703e-19
-1.48079e-18
-9.73011e-20
-5.18383e-19
2.03439e-18
-4.2446e-18
-8.25141e-19
-3.46874e-18
1.84505e-19
-8.89667e-19
-5.46382e-19
-1.04437e-18
-1.19432e-17
-4.86035e-18
-1.09563e-17
-2.89108e-18
-7.42102e-18
-4.16116e-18
-5.54019e-18
-1.12061e-18
-1.20704e-17
-4.99113e-18
-1.09562e-17
-2.88135e-18
-7.36218e-18
-4.18412e-18
-5.61994e-18
-1.09172e-18
-1.19577e-17
-5.02419e-18
-1.10008e-17
-2.92528e-18
-7.3659e-18
-4.09474e-18
-5.57619e-18
-9.60916e-19
-1.20846e-17
-5.10841e-18
-1.10988e-17
-2.99447e-18
-7.32039e-18
-4.12404e-18
-5.61978e-18
-1.01697e-18
-1.19759e-17
-5.04518e-18
-1.10169e-17
-2.92308e-18
-7.3426e-18
-4.1424e-18
-5.5379e-18
-1.05871e-18
-1.21967e-17
-5.01178e-18
-1.11346e-17
-2.96337e-18
-7.39549e-18
-4.14292e-18
-5.62489e-18
-1.11595e-18
-1.20775e-17
-4.91703e-18
-1.0931e-17
-2.86457e-18
-7.436e-18
-4.11356e-18
-5.46347e-18
-1.06231e-18
-1.21455e-17
-4.96443e-18
-1.09358e-17
-2.89042e-18
-7.40417e-18
-4.03679e-18
-5.43353e-18
-1.15538e-18
-1.22843e-17
-4.92963e-18
-1.07826e-17
-2.83435e-18
-7.35394e-18
-4.14013e-18
-5.46855e-18
-1.07668e-18
-1.22043e-17
-4.96296e-18
-1.08858e-17
-2.83399e-18
-7.52506e-18
-4.10335e-18
-5.42181e-18
-1.17302e-18
-1.2273e-17
-5.04822e-18
-1.0925e-17
-2.86654e-18
-7.38536e-18
-4.08223e-18
-5.31784e-18
-1.20562e-18
-1.22494e-17
-4.92719e-18
-1.0888e-17
-2.67558e-18
-7.36205e-18
-4.05818e-18
-5.519e-18
-1.30207e-18
-1.22897e-17
-5.0432e-18
-1.09876e-17
-2.87603e-18
-7.41112e-18
-4.07605e-18
-5.24334e-18
-1.27889e-18
-1.23012e-17
-5.01124e-18
-1.08888e-17
-2.67476e-18
-7.36412e-18
-4.20663e-18
-5.25456e-18
-1.33724e-18
-1.21621e-17
-5.73579e-18
-8.6424e-18
-7.5364e-18
-2.63751e-19
-1.02035e-17
-3.23781e-18
-1.0034e-17
-2.41151e-18
-7.32044e-18
-4.053e-18
-5.2968e-18
-1.32254e-18
-1.24766e-17
-4.88843e-18
-1.09181e-17
-2.68961e-18
-7.57511e-18
-4.11424e-18
-5.36712e-18
-1.55295e-18
-1.24757e-17
-4.91818e-18
-1.08359e-17
-2.58911e-18
-7.46183e-18
-4.10911e-18
-5.32777e-18
-1.41955e-18
-1.24464e-17
-4.98974e-18
-1.09588e-17
-2.68934e-18
-7.32392e-18
-4.15501e-18
-5.18052e-18
-1.42279e-18
-1.2493e-17
-4.92977e-18
-1.06833e-17
-2.61792e-18
-7.50852e-18
-3.87396e-18
-5.23473e-18
-1.41576e-18
-1.25201e-17
-5.07854e-18
-1.08836e-17
-2.50721e-18
-7.53244e-18
-4.08257e-18
-5.14345e-18
-1.5646e-18
-1.26411e-17
-5.07678e-18
-1.08333e-17
-2.42708e-18
-7.431e-18
-3.95744e-18
-5.23954e-18
-1.549e-18
-1.26916e-17
-5.17494e-18
-1.05873e-17
-3.36894e-18
-6.27446e-18
-5.02629e-18
-3.38411e-17
-1.05003e-17
-2.89605e-17
-6.07293e-18
-2.27995e-17
-9.24223e-18
-1.65226e-17
-1.07991e-17
-3.36624e-17
-1.06491e-17
-2.90012e-17
-6.08103e-18
-2.24892e-17
-9.16994e-18
-1.70938e-17
-1.09527e-17
-3.34078e-17
-1.06705e-17
-2.89864e-17
-6.13697e-18
-2.26958e-17
-8.96622e-18
-1.67465e-17
-1.04419e-17
-3.41457e-17
-1.10052e-17
-2.8857e-17
-6.32388e-18
-2.22004e-17
-9.00586e-18
-1.68021e-17
-1.0655e-17
-3.35598e-17
-1.07651e-17
-2.89049e-17
-6.11807e-18
-2.2804e-17
-9.08743e-18
-1.67406e-17
-1.0668e-17
-3.44248e-17
-1.0782e-17
-2.93643e-17
-6.30794e-18
-2.24428e-17
-9.14123e-18
-1.65762e-17
-1.0501e-17
-3.40012e-17
-1.05848e-17
-2.8693e-17
-6.04345e-18
-2.28413e-17
-9.19217e-18
-1.63073e-17
-1.05422e-17
-3.4083e-17
-1.07046e-17
-2.88769e-17
-6.24099e-18
-2.2572e-17
-8.80402e-18
-1.65018e-17
-1.06077e-17
-3.45656e-17
-1.07217e-17
-2.81561e-17
-5.94694e-18
-2.24844e-17
-9.03668e-18
-1.64862e-17
-1.05675e-17
-3.40698e-17
-1.05997e-17
-2.85914e-17
-6.03361e-18
-2.27606e-17
-9.00033e-18
-1.64216e-17
-1.12651e-17
-3.42316e-17
-1.07758e-17
-2.88867e-17
-6.15412e-18
-2.26831e-17
-8.9542e-18
-1.64306e-17
-1.07616e-17
-3.40756e-17
-1.05671e-17
-2.85677e-17
-5.75017e-18
-2.24189e-17
-8.79617e-18
-1.68078e-17
-1.12428e-17
-3.45987e-17
-1.07388e-17
-2.905e-17
-6.17983e-18
-2.26852e-17
-8.9407e-18
-1.57479e-17
-1.14674e-17
-3.43158e-17
-1.06964e-17
-2.86881e-17
-5.72579e-18
-2.26098e-17
-9.25546e-18
-1.63809e-17
-1.13276e-17
-3.40375e-17
-1.17813e-17
-2.5167e-17
-1.49938e-17
-6.65598e-18
-2.96649e-17
-7.5469e-18
-2.7141e-17
-5.31323e-18
-2.26315e-17
-9.01571e-18
-1.61337e-17
-1.1072e-17
-3.47769e-17
-1.05157e-17
-2.88933e-17
-5.80834e-18
-2.26182e-17
-8.96127e-18
-1.64485e-17
-1.16972e-17
-3.46031e-17
-1.04932e-17
-2.84632e-17
-5.58925e-18
-2.25566e-17
-8.95979e-18
-1.63525e-17
-1.14745e-17
-3.46311e-17
-1.05926e-17
-2.90649e-17
-5.91138e-18
-2.22408e-17
-8.97394e-18
-1.59958e-17
-1.15483e-17
-3.48615e-17
-1.05909e-17
-2.84914e-17
-5.74162e-18
-2.265e-17
-8.4884e-18
-1.61927e-17
-1.13007e-17
-3.45323e-17
-1.09226e-17
-2.85351e-17
-5.31953e-18
-2.29511e-17
-8.96159e-18
-1.61796e-17
-1.17895e-17
-3.48142e-17
-1.08998e-17
-2.81639e-17
-5.27394e-18
-2.25712e-17
-8.63065e-18
-1.63918e-17
-1.12322e-17
-3.47695e-17
-1.09662e-17
-2.83629e-17
-7.11772e-18
-2.01372e-17
-1.21073e-17
-9.72515e-18
-2.08038e-17
-6.08762e-18
-1.45245e-17
-8.52719e-18
-1.11267e-17
-3.41099e-18
-2.30264e-17
-9.85686e-18
-2.07218e-17
-6.22353e-18
-1.4513e-17
-8.52697e-18
-1.11137e-17
-3.38418e-18
-2.28367e-17
-9.94976e-18
-2.07211e-17
-6.15722e-18
-1.44209e-17
-8.30618e-18
-1.11096e-17
-3.22519e-18
-2.30113e-17
-9.99346e-18
-2.09654e-17
-6.28167e-18
-1.44312e-17
-8.40399e-18
-1.11632e-17
-3.44024e-18
-2.28814e-17
-9.92221e-18
-2.08172e-17
-6.16653e-18
-1.44016e-17
-8.37103e-18
-1.11056e-17
-3.35294e-18
-2.31683e-17
-9.95646e-18
-2.09554e-17
-6.19593e-18
-1.45066e-17
-8.37777e-18
-1.1106e-17
-3.50044e-18
-2.30448e-17
-9.75257e-18
-2.06396e-17
-6.06496e-18
-1.46438e-17
-8.37834e-18
-1.08386e-17
-3.36352e-18
-2.31627e-17
-9.88481e-18
-2.05955e-17
-6.03537e-18
-1.45315e-17
-8.30787e-18
-1.08767e-17
-3.50131e-18
-2.32822e-17
-9.74698e-18
-2.05144e-17
-6.02499e-18
-1.43996e-17
-8.30563e-18
-1.0868e-17
-3.40026e-18
-2.32779e-17
-9.84598e-18
-2.06614e-17
-6.02475e-18
-1.46345e-17
-8.42023e-18
-1.07948e-17
-3.66177e-18
-2.33756e-17
-9.96264e-18
-2.05698e-17
-6.00439e-18
-1.44737e-17
-8.31063e-18
-1.05508e-17
-3.68268e-18
-2.33287e-17
-9.78662e-18
-2.0462e-17
-5.7808e-18
-1.44256e-17
-8.23194e-18
-1.08298e-17
-3.74936e-18
-2.33874e-17
-1.00524e-17
-2.08052e-17
-5.97657e-18
-1.44636e-17
-8.22405e-18
-1.05767e-17
-3.69376e-18
-2.34447e-17
-9.92077e-18
-2.06068e-17
-5.78411e-18
-1.45236e-17
-8.45409e-18
-1.0528e-17
-3.85152e-18
-2.31267e-17
-1.11873e-17
-1.66393e-17
-1.41885e-17
-1.76492e-18
-1.97518e-17
-6.81197e-18
-1.91256e-17
-5.29048e-18
-1.45096e-17
-8.3066e-18
-1.06315e-17
-3.92307e-18
-2.37467e-17
-9.84215e-18
-2.05939e-17
-5.80054e-18
-1.47024e-17
-8.31987e-18
-1.06232e-17
-4.15441e-18
-2.36579e-17
-9.76315e-18
-2.0423e-17
-5.57466e-18
-1.46322e-17
-8.30932e-18
-1.051e-17
-3.95826e-18
-2.36494e-17
-9.88961e-18
-2.05131e-17
-5.68007e-18
-1.44861e-17
-8.24039e-18
-1.04126e-17
-3.89737e-18
-2.38208e-17
-9.89677e-18
-2.03672e-17
-5.70124e-18
-1.47527e-17
-8.0242e-18
-1.04328e-17
-4.01898e-18
-2.38279e-17
-1.00497e-17
-2.05971e-17
-5.52562e-18
-1.47732e-17
-8.27278e-18
-1.03162e-17
-4.16468e-18
-2.39465e-17
-9.88449e-18
-2.04163e-17
-5.42652e-18
-1.46138e-17
-8.13696e-18
-1.04981e-17
-4.07649e-18
-2.40011e-17
-1.0226e-17
-2.00861e-17
-6.94893e-18
-1.24721e-17
-1.00474e-17
-3.21848e-17
-7.31678e-18
-2.4785e-17
-1.08817e-17
-1.84675e-17
-1.1156e-17
-3.71006e-17
-1.23687e-17
-3.21596e-17
-7.67771e-18
-2.47389e-17
-1.07848e-17
-1.85343e-17
-1.12121e-17
-3.70322e-17
-1.25968e-17
-3.18086e-17
-7.36477e-18
-2.45259e-17
-1.0488e-17
-1.84684e-17
-1.10573e-17
-3.73373e-17
-1.24589e-17
-3.24406e-17
-7.60535e-18
-2.47704e-17
-1.05657e-17
-1.87274e-17
-1.15909e-17
-3.69586e-17
-1.23154e-17
-3.20864e-17
-7.46876e-18
-2.44072e-17
-1.04003e-17
-1.88085e-17
-1.09616e-17
-3.71561e-17
-1.25721e-17
-3.21355e-17
-7.42912e-18
-2.46114e-17
-1.0526e-17
-1.85966e-17
-1.13564e-17
-3.74334e-17
-1.23155e-17
-3.17978e-17
-7.29115e-18
-2.49746e-17
-1.06727e-17
-1.82857e-17
-1.09184e-17
-3.75471e-17
-1.25713e-17
-3.19838e-17
-7.14608e-18
-2.47755e-17
-1.05538e-17
-1.85602e-17
-1.12996e-17
-3.72821e-17
-1.22686e-17
-3.18906e-17
-7.46276e-18
-2.42107e-17
-1.03078e-17
-1.8166e-17
-1.10577e-17
-3.76177e-17
-1.23969e-17
-3.19346e-17
-7.31271e-18
-2.46244e-17
-1.07087e-17
-1.8443e-17
-1.16503e-17
-3.78061e-17
-1.25872e-17
-3.1762e-17
-7.17436e-18
-2.46934e-17
-1.05143e-17
-1.79589e-17
-1.14148e-17
-3.76127e-17
-1.23178e-17
-3.17747e-17
-7.11589e-18
-2.46291e-17
-1.03097e-17
-1.81419e-17
-1.1759e-17
-3.78618e-17
-1.27394e-17
-3.24016e-17
-7.18659e-18
-2.4815e-17
-1.03122e-17
-1.834e-17
-1.10927e-17
-3.76044e-17
-1.24813e-17
-3.19327e-17
-7.09356e-18
-2.47207e-17
-1.05436e-17
-1.82286e-17
-1.16818e-17
-3.74078e-17
-1.40448e-17
-2.71634e-17
-1.71457e-17
-7.34418e-18
-3.27656e-17
-8.70795e-18
-3.00232e-17
-6.44433e-18
-2.4754e-17
-1.04755e-17
-1.79144e-17
-1.18657e-17
-3.78266e-17
-1.25775e-17
-3.17292e-17
-7.05033e-18
-2.47708e-17
-1.03776e-17
-1.79873e-17
-1.19259e-17
-3.78167e-17
-1.23373e-17
-3.16408e-17
-6.75448e-18
-2.49866e-17
-1.04548e-17
-1.80562e-17
-1.17445e-17
-3.78237e-17
-1.25388e-17
-3.14787e-17
-6.75727e-18
-2.46795e-17
-1.02085e-17
-1.79287e-17
-1.16291e-17
-3.83511e-17
-1.26161e-17
-3.15966e-17
-6.95995e-18
-2.51054e-17
-1.02044e-17
-1.7926e-17
-1.15686e-17
-3.82335e-17
-1.25514e-17
-3.20323e-17
-6.73161e-18
-2.51946e-17
-1.05088e-17
-1.7782e-17
-1.17428e-17
-3.80502e-17
-1.22919e-17
-3.16887e-17
-6.76713e-18
-2.47673e-17
-1.03921e-17
-1.79907e-17
-1.17546e-17
-3.85941e-17
-1.30045e-17
-3.12139e-17
-8.41531e-18
-2.20883e-17
-1.39016e-17
-2.23635e-17
-7.16185e-18
-1.56426e-17
-9.46781e-18
-1.23646e-17
-3.9035e-18
-2.44159e-17
-1.09872e-17
-2.21999e-17
-7.47849e-18
-1.56622e-17
-9.37925e-18
-1.21054e-17
-3.94196e-18
-2.41948e-17
-1.09618e-17
-2.20313e-17
-7.05268e-18
-1.56197e-17
-9.29198e-18
-1.21787e-17
-4.03651e-18
-2.43015e-17
-1.08955e-17
-2.22102e-17
-7.14843e-18
-1.56544e-17
-9.52486e-18
-1.21025e-17
-4.13202e-18
-2.44435e-17
-1.08233e-17
-2.22195e-17
-7.15735e-18
-1.56276e-17
-9.417e-18
-1.21898e-17
-4.10739e-18
-2.44616e-17
-1.11038e-17
-2.22979e-17
-7.08156e-18
-1.55297e-17
-9.36176e-18
-1.2269e-17
-4.15823e-18
-2.44054e-17
-1.08974e-17
-2.20955e-17
-7.0178e-18
-1.56743e-17
-9.3527e-18
-1.19268e-17
-4.17702e-18
-2.46338e-17
-1.10804e-17
-2.19989e-17
-7.00404e-18
-1.56254e-17
-9.33462e-18
-1.19494e-17
-4.1249e-18
-2.45652e-17
-1.08988e-17
-2.21231e-17
-6.92346e-18
-1.55275e-17
-9.28813e-18
-1.19768e-17
-4.05405e-18
-2.47289e-17
-1.09696e-17
-2.22456e-17
-7.02372e-18
-1.56557e-17
-9.58723e-18
-1.19614e-17
-4.25302e-18
-2.47008e-17
-1.10048e-17
-2.18912e-17
-6.9247e-18
-1.5634e-17
-9.32535e-18
-1.15972e-17
-4.43025e-18
-2.4755e-17
-1.08965e-17
-2.18744e-17
-6.66547e-18
-1.55607e-17
-9.34249e-18
-1.17586e-17
-4.30118e-18
-2.49688e-17
-1.11668e-17
-2.22419e-17
-6.94352e-18
-1.56122e-17
-9.27439e-18
-1.18792e-17
-4.24328e-18
-2.47885e-17
-1.1055e-17
-2.19504e-17
-6.7927e-18
-1.56236e-17
-9.35228e-18
-1.15984e-17
-4.61434e-18
-2.43094e-17
-1.26824e-17
-1.74279e-17
-1.5803e-17
-2.58695e-18
-2.05897e-17
-7.20652e-18
-2.01739e-17
-5.90102e-18
-1.56627e-17
-9.34959e-18
-1.17412e-17
-4.59775e-18
-2.53355e-17
-1.11175e-17
-2.19722e-17
-6.81811e-18
-1.57676e-17
-9.3796e-18
-1.15656e-17
-4.53529e-18
-2.49817e-17
-1.09415e-17
-2.18736e-17
-6.53562e-18
-1.57115e-17
-9.30437e-18
-1.1461e-17
-4.62504e-18
-2.50903e-17
-1.10267e-17
-2.18016e-17
-6.55506e-18
-1.57232e-17
-9.233e-18
-1.13341e-17
-4.52703e-18
-2.52598e-17
-1.09996e-17
-2.18519e-17
-6.66339e-18
-1.58159e-17
-9.141e-18
-1.1429e-17
-4.74097e-18
-2.51923e-17
-1.09614e-17
-2.1982e-17
-6.49881e-18
-1.58819e-17
-9.27331e-18
-1.1453e-17
-4.77462e-18
-2.53778e-17
-1.09318e-17
-2.19421e-17
-6.48486e-18
-1.57374e-17
-9.40824e-18
-1.15665e-17
-4.63445e-18
-2.53534e-17
-1.12192e-17
-2.14485e-17
-7.8639e-18
-1.36523e-17
-1.12074e-17
-1.02e-17
-2.75027e-17
-1.33464e-17
-2.1197e-17
-1.32816e-17
-4.02503e-17
-1.53689e-17
-3.50577e-17
-1.07526e-17
-2.73845e-17
-1.30245e-17
-2.11862e-17
-1.3223e-17
-3.94179e-17
-1.51938e-17
-3.43768e-17
-9.80444e-18
-2.77206e-17
-1.33316e-17
-2.09539e-17
-1.37531e-17
-3.98317e-17
-1.50784e-17
-3.43802e-17
-9.96863e-18
-2.72202e-17
-1.35921e-17
-2.10173e-17
-1.35875e-17
-4.0296e-17
-1.49167e-17
-3.50733e-17
-1.02626e-17
-2.75657e-17
-1.3426e-17
-2.11239e-17
-1.38709e-17
-4.00959e-17
-1.54146e-17
-3.49822e-17
-1.00275e-17
-2.70602e-17
-1.31865e-17
-2.14082e-17
-1.40636e-17
-4.00435e-17
-1.52954e-17
-3.45037e-17
-9.908e-18
-2.73088e-17
-1.31829e-17
-2.10605e-17
-1.41698e-17
-4.02832e-17
-1.53315e-17
-3.48863e-17
-1.01052e-17
-2.69217e-17
-1.30613e-17
-2.06604e-17
-1.39418e-17
-4.01424e-17
-1.52052e-17
-3.47596e-17
-9.83528e-18
-2.7465e-17
-1.32053e-17
-2.13018e-17
-1.34415e-17
-4.0036e-17
-1.51511e-17
-3.49796e-17
-1.00088e-17
-2.77845e-17
-1.35697e-17
-2.12381e-17
-1.39922e-17
-4.00985e-17
-1.52488e-17
-3.43896e-17
-9.91958e-18
-2.7655e-17
-1.3126e-17
-2.08093e-17
-1.4032e-17
-4.04036e-17
-1.50894e-17
-3.44956e-17
-9.46014e-18
-2.73334e-17
-1.3357e-17
-2.07239e-17
-1.4068e-17
-4.08861e-17
-1.5376e-17
-3.48434e-17
-1.01211e-17
-2.75439e-17
-1.31503e-17
-2.10905e-17
-1.38056e-17
-4.02931e-17
-1.54194e-17
-3.45358e-17
-9.71338e-18
-2.73903e-17
-1.30944e-17
-2.07066e-17
-1.48022e-17
-3.9618e-17
-1.7666e-17
-2.85116e-17
-2.16537e-17
-1.02363e-17
-3.34597e-17
-9.31997e-18
-3.16548e-17
-8.10698e-18
-2.74563e-17
-1.32698e-17
-2.11334e-17
-1.40386e-17
-4.10181e-17
-1.54365e-17
-3.48112e-17
-9.85582e-18
-2.7555e-17
-1.3366e-17
-2.05217e-17
-1.3918e-17
-4.03325e-17
-1.51867e-17
-3.43128e-17
-9.52313e-18
-2.72164e-17
-1.31476e-17
-2.04627e-17
-1.45071e-17
-4.06592e-17
-1.52339e-17
-3.44185e-17
-9.5203e-18
-2.76178e-17
-1.33093e-17
-2.00973e-17
-1.4252e-17
-4.07604e-17
-1.50076e-17
-3.46489e-17
-9.73696e-18
-2.73894e-17
-1.2854e-17
-2.04688e-17
-1.45523e-17
-4.04592e-17
-1.49444e-17
-3.44926e-17
-9.34555e-18
-2.77741e-17
-1.31502e-17
-2.06842e-17
-1.47545e-17
-4.09975e-17
-1.51793e-17
-3.4583e-17
-9.37575e-18
-2.7587e-17
-1.34598e-17
-2.05537e-17
-1.445e-17
-4.09316e-17
-1.53366e-17
-3.39527e-17
-1.09465e-17
-2.48073e-17
-1.6777e-17
-2.42384e-17
-1.77767e-17
-2.09495e-17
-1.23847e-17
-3.29088e-17
-1.94812e-17
-3.07245e-17
-1.59621e-17
-2.4159e-17
-1.76964e-17
-2.05286e-17
-1.23376e-17
-3.27156e-17
-1.95038e-17
-3.0669e-17
-1.55823e-17
-2.4166e-17
-1.7966e-17
-2.06391e-17
-1.25459e-17
-3.27504e-17
-1.93735e-17
-3.05267e-17
-1.55538e-17
-2.42286e-17
-1.818e-17
-2.05044e-17
-1.24902e-17
-3.28377e-17
-1.94118e-17
-3.05955e-17
-1.56286e-17
-2.41263e-17
-1.79939e-17
-2.05422e-17
-1.27361e-17
-3.30666e-17
-1.9592e-17
-3.08525e-17
-1.57099e-17
-2.40123e-17
-1.79467e-17
-2.086e-17
-1.25062e-17
-3.29841e-17
-1.94943e-17
-3.05905e-17
-1.53133e-17
-2.39956e-17
-1.79206e-17
-2.06637e-17
-1.2773e-17
-3.32176e-17
-1.94472e-17
-3.06196e-17
-1.54595e-17
-2.4022e-17
-1.76751e-17
-2.03503e-17
-1.26954e-17
-3.30952e-17
-1.95225e-17
-3.06072e-17
-1.54116e-17
-2.41955e-17
-1.7745e-17
-2.03931e-17
-1.24684e-17
-3.32946e-17
-1.96155e-17
-3.09486e-17
-1.54748e-17
-2.41928e-17
-1.80502e-17
-2.05092e-17
-1.27382e-17
-3.30856e-17
-1.95432e-17
-3.05553e-17
-1.54819e-17
-2.403e-17
-1.7825e-17
-2.01467e-17
-1.26902e-17
-3.32256e-17
-1.94788e-17
-3.0699e-17
-1.51686e-17
-2.41408e-17
-1.78434e-17
-2.04109e-17
-1.28358e-17
-3.36612e-17
-1.9712e-17
-3.07547e-17
-1.54902e-17
-2.43194e-17
-1.79388e-17
-2.05347e-17
-1.27281e-17
-3.32276e-17
-1.96016e-17
-3.05242e-17
-1.52876e-17
-2.41486e-17
-1.7843e-17
-1.99874e-17
-1.34188e-17
-3.18821e-17
-2.35151e-17
-2.13311e-17
-2.98873e-17
-9.71693e-18
-2.26128e-17
-9.67057e-18
-2.52056e-17
-1.27003e-17
-2.33839e-17
-1.76921e-17
-2.011e-17
-1.2991e-17
-3.38082e-17
-1.96751e-17
-3.05522e-17
-1.53273e-17
-2.4231e-17
-1.78369e-17
-2.00972e-17
-1.28903e-17
-3.34542e-17
-1.9503e-17
-3.0427e-17
-1.49503e-17
-2.41447e-17
-1.78178e-17
-2.01635e-17
-1.33028e-17
-3.36992e-17
-1.9557e-17
-3.04616e-17
-1.51717e-17
-2.43457e-17
-1.78432e-17
-1.98588e-17
-1.31564e-17
-3.3709e-17
-1.9461e-17
-3.0385e-17
-1.52356e-17
-2.41734e-17
-1.76937e-17
-1.9768e-17
-1.32321e-17
-3.3566e-17
-1.93374e-17
-3.05878e-17
-1.5133e-17