/*--------------------------------*- C++ -*----------------------------------*\
| =========                 |                                                 |
| \\      /  F ield         | OpenFOAM: The Open Source CFD Toolbox           |
|  \\    /   O peration     | Version:  2512                                  |
|   \\  /    A nd           | Website:  www.openfoam.com                      |
|    \\/     M anipulation  |                                                 |
\*---------------------------------------------------------------------------*/
FoamFile
{
    version     2.0;
    format      ascii;
    arch        "LSB;label=32;scalar=64";
    class       volScalarField;
    location    "0.005";
    object      alphat;
}
// * * * * * * * * * * * * * * * * * * * * * * * * * * * * * * * * * * * * * //

dimensions      [1 -1 -1 0 0 0 0];

internalField   nonuniform List<scalar> 
100000
(
1.33795e-07
2.62319e-08
1.08011e-08
5.89924e-09
3.81266e-09
2.75938e-09
2.16462e-09
1.80221e-09
1.56748e-09
1.40737e-09
1.29331e-09
1.20902e-09
1.14473e-09
1.09436e-09
1.05395e-09
1.02088e-09
9.93368e-10
9.7015e-10
9.50332e-10
9.33257e-10
9.18431e-10
9.05477e-10
8.94102e-10
8.84071e-10
8.75195e-10
8.6732e-10
8.60319e-10
8.54084e-10
8.48525e-10
8.43566e-10
8.39142e-10
8.35195e-10
8.31677e-10
8.28546e-10
8.25763e-10
8.23296e-10
8.21116e-10
8.19198e-10
8.17518e-10
8.16055e-10
8.14791e-10
8.1371e-10
8.12797e-10
8.12037e-10
8.11419e-10
8.10931e-10
8.10563e-10
8.10306e-10
8.10152e-10
8.10092e-10
8.1012e-10
8.10229e-10
8.10413e-10
8.10668e-10
8.10987e-10
8.11366e-10
8.11801e-10
8.12288e-10
8.12824e-10
8.13404e-10
8.14027e-10
8.14688e-10
8.15386e-10
8.16117e-10
8.1688e-10
8.17672e-10
8.1849e-10
8.19334e-10
8.202e-10
8.21086e-10
8.21991e-10
8.22913e-10
8.23849e-10
8.24797e-10
8.25756e-10
8.26725e-10
8.27702e-10
8.28685e-10
8.29674e-10
8.30668e-10
8.31668e-10
8.32671e-10
8.33679e-10
8.34691e-10
8.35706e-10
8.36726e-10
8.37749e-10
8.38775e-10
8.39806e-10
8.40839e-10
8.41876e-10
8.42916e-10
8.43959e-10
8.45005e-10
8.46054e-10
8.47105e-10
8.4816e-10
8.49217e-10
8.50276e-10
8.51338e-10
8.52403e-10
8.5347e-10
8.54539e-10
8.55611e-10
8.56686e-10
8.57762e-10
8.58841e-10
8.59923e-10
8.61006e-10
8.62091e-10
8.63178e-10
8.64267e-10
8.65356e-10
8.66446e-10
8.67537e-10
8.68627e-10
8.69717e-10
8.70807e-10
8.71896e-10
8.72983e-10
8.7407e-10
8.75156e-10
8.76241e-10
8.77325e-10
8.78408e-10
8.7949e-10
8.80572e-10
8.81653e-10
8.82734e-10
8.83814e-10
8.84895e-10
8.85975e-10
8.87055e-10
8.88135e-10
8.89215e-10
8.90296e-10
8.91377e-10
8.92457e-10
8.93539e-10
8.94621e-10
8.95703e-10
8.96785e-10
8.97868e-10
8.98952e-10
9.00035e-10
9.0112e-10
9.02204e-10
9.03289e-10
9.04373e-10
9.05458e-10
9.06543e-10
9.07627e-10
9.08711e-10
9.09795e-10
9.10879e-10
9.11962e-10
9.13044e-10
9.14126e-10
9.15208e-10
9.16289e-10
9.1737e-10
9.18451e-10
9.19531e-10
9.2061e-10
9.21689e-10
9.22768e-10
9.23847e-10
9.24925e-10
9.26003e-10
9.27081e-10
9.28158e-10
9.29235e-10
9.30312e-10
9.31388e-10
9.32465e-10
9.33541e-10
9.34616e-10
9.35692e-10
9.36766e-10
9.37841e-10
9.38915e-10
9.39988e-10
9.41061e-10
9.42133e-10
9.43205e-10
9.44276e-10
9.45346e-10
9.46416e-10
9.47484e-10
9.48553e-10
9.49621e-10
9.50688e-10
9.51755e-10
9.52822e-10
9.53888e-10
9.54954e-10
9.56019e-10
9.57084e-10
9.58149e-10
9.59214e-10
9.60278e-10
9.61342e-10
9.62406e-10
9.63469e-10
9.64531e-10
9.65593e-10
9.66655e-10
9.67716e-10
9.68776e-10
9.69836e-10
9.70894e-10
9.71953e-10
9.7301e-10
9.74066e-10
9.75122e-10
9.76177e-10
9.77231e-10
9.78284e-10
9.79336e-10
9.80387e-10
9.81438e-10
9.82487e-10
9.83536e-10
9.84584e-10
9.8563e-10
9.86677e-10
9.87722e-10
9.88766e-10
9.8981e-10
9.90853e-10
9.91895e-10
9.92936e-10
9.93977e-10
9.95017e-10
9.96056e-10
9.97094e-10
9.98132e-10
9.99168e-10
1.0002e-09
1.00124e-09
1.00227e-09
1.00331e-09
1.00434e-09
1.00537e-09
1.0064e-09
1.00743e-09
1.00846e-09
1.00949e-09
1.01051e-09
1.01154e-09
1.01256e-09
1.01359e-09
1.01461e-09
1.01563e-09
1.01665e-09
1.01767e-09
1.01869e-09
1.01971e-09
1.02073e-09
1.02175e-09
1.02276e-09
1.02377e-09
1.02479e-09
1.0258e-09
1.02681e-09
1.02782e-09
1.02883e-09
1.02984e-09
1.03084e-09
1.03185e-09
1.03285e-09
1.03386e-09
1.03486e-09
1.03586e-09
1.03686e-09
1.03786e-09
1.03885e-09
1.03985e-09
1.04084e-09
1.04184e-09
1.04283e-09
1.04382e-09
1.04481e-09
1.0458e-09
1.04679e-09
1.04778e-09
1.04876e-09
1.04974e-09
1.05073e-09
1.05171e-09
1.05269e-09
1.05367e-09
1.05465e-09
1.05562e-09
1.0566e-09
1.05757e-09
1.05854e-09
1.05951e-09
1.06048e-09
1.06145e-09
1.06242e-09
1.06338e-09
1.06435e-09
1.06531e-09
1.06627e-09
1.06723e-09
1.06819e-09
1.06915e-09
1.0701e-09
1.07106e-09
1.07201e-09
1.07296e-09
1.07391e-09
1.07486e-09
1.0758e-09
1.07675e-09
1.07769e-09
1.07864e-09
1.07958e-09
1.08052e-09
1.08146e-09
1.08239e-09
1.08333e-09
1.08426e-09
1.08519e-09
1.08612e-09
1.08705e-09
1.08798e-09
1.0889e-09
1.08983e-09
1.09075e-09
1.09167e-09
1.09259e-09
1.09351e-09
1.09443e-09
1.09534e-09
1.09625e-09
1.09717e-09
1.09807e-09
1.09898e-09
1.09989e-09
1.10079e-09
1.1017e-09
1.1026e-09
1.1035e-09
1.1044e-09
1.10529e-09
1.10619e-09
1.10708e-09
1.10797e-09
1.10886e-09
1.10975e-09
1.11064e-09
1.11152e-09
1.11241e-09
1.11329e-09
1.11417e-09
1.11505e-09
1.11592e-09
1.1168e-09
1.11767e-09
1.11854e-09
1.11941e-09
1.12028e-09
1.12114e-09
1.12201e-09
1.12287e-09
1.12373e-09
1.12459e-09
1.12544e-09
1.1263e-09
1.12715e-09
1.128e-09
1.12885e-09
1.1297e-09
1.13054e-09
1.13139e-09
1.13223e-09
1.13307e-09
1.13391e-09
1.13475e-09
1.13558e-09
1.13641e-09
1.13724e-09
1.13807e-09
1.1389e-09
1.13972e-09
1.14055e-09
1.14137e-09
1.14219e-09
1.14301e-09
1.14382e-09
1.14463e-09
1.14545e-09
1.14626e-09
1.14706e-09
1.14787e-09
1.14867e-09
1.14948e-09
1.15028e-09
1.15107e-09
1.15187e-09
1.15266e-09
1.15346e-09
1.15425e-09
1.15503e-09
1.15582e-09
1.1566e-09
1.15739e-09
1.15817e-09
1.15894e-09
1.15972e-09
1.16049e-09
1.16127e-09
1.16204e-09
1.1628e-09
1.16357e-09
1.16433e-09
1.16509e-09
1.16585e-09
1.16661e-09
1.16737e-09
1.16812e-09
1.16887e-09
1.16962e-09
1.17037e-09
1.17111e-09
1.17186e-09
1.1726e-09
1.17334e-09
1.17407e-09
1.17481e-09
1.17554e-09
1.17627e-09
1.177e-09
1.17773e-09
1.17845e-09
1.17917e-09
1.17989e-09
1.18061e-09
1.18133e-09
1.18204e-09
1.18275e-09
1.18346e-09
1.18417e-09
1.18487e-09
1.18557e-09
1.18627e-09
1.18697e-09
1.18767e-09
1.18836e-09
1.18905e-09
1.18974e-09
1.19043e-09
1.19112e-09
1.1918e-09
1.19248e-09
1.19316e-09
1.19383e-09
1.19451e-09
1.19518e-09
1.19585e-09
1.19652e-09
1.19718e-09
1.19785e-09
1.19851e-09
1.19916e-09
1.19982e-09
1.20048e-09
1.20113e-09
1.20178e-09
1.20242e-09
1.20307e-09
1.20371e-09
1.20435e-09
1.20499e-09
1.20563e-09
1.20626e-09
1.20689e-09
1.20752e-09
1.20815e-09
1.20877e-09
1.2094e-09
1.21002e-09
1.21063e-09
1.21125e-09
1.21186e-09
1.21247e-09
1.21308e-09
1.21369e-09
1.21429e-09
1.2149e-09
1.2155e-09
1.21609e-09
1.21669e-09
1.21728e-09
1.21787e-09
1.21846e-09
1.21904e-09
1.21963e-09
1.22021e-09
1.22079e-09
1.22136e-09
1.22194e-09
1.22251e-09
1.22308e-09
1.22365e-09
1.22421e-09
1.22478e-09
1.22534e-09
1.22589e-09
1.22645e-09
1.227e-09
1.22755e-09
1.2281e-09
1.22865e-09
1.22919e-09
1.22973e-09
1.23027e-09
1.23081e-09
1.23134e-09
1.23188e-09
1.23241e-09
1.23293e-09
1.23346e-09
1.23398e-09
1.2345e-09
1.23502e-09
1.23554e-09
1.23605e-09
1.23656e-09
1.23707e-09
1.23757e-09
1.23808e-09
1.23858e-09
1.23908e-09
1.23958e-09
1.24007e-09
1.24056e-09
1.24105e-09
1.24154e-09
1.24202e-09
1.24251e-09
1.24299e-09
1.24347e-09
1.24394e-09
1.24441e-09
1.24488e-09
1.24535e-09
1.24582e-09
1.24628e-09
1.24674e-09
1.2472e-09
1.24766e-09
1.24811e-09
1.24857e-09
1.24902e-09
1.24946e-09
1.24991e-09
1.25035e-09
1.25079e-09
1.25123e-09
1.25166e-09
1.25209e-09
1.25253e-09
1.25295e-09
1.25338e-09
1.2538e-09
1.25422e-09
1.25464e-09
1.25506e-09
1.25547e-09
1.25588e-09
1.25629e-09
1.2567e-09
1.2571e-09
1.25751e-09
1.25791e-09
1.2583e-09
1.2587e-09
1.25909e-09
1.25948e-09
1.25987e-09
1.26025e-09
1.26064e-09
1.26102e-09
1.2614e-09
1.26177e-09
1.26215e-09
1.26252e-09
1.26289e-09
1.26325e-09
1.26362e-09
1.26398e-09
1.26434e-09
1.2647e-09
1.26505e-09
1.26541e-09
1.26576e-09
1.2661e-09
1.26645e-09
1.26679e-09
1.26713e-09
1.26747e-09
1.26781e-09
1.26814e-09
1.26847e-09
1.2688e-09
1.26913e-09
1.26945e-09
1.26978e-09
1.2701e-09
1.27041e-09
1.27073e-09
1.27104e-09
1.27135e-09
1.27166e-09
1.27197e-09
1.27227e-09
1.27257e-09
1.27287e-09
1.27317e-09
1.27346e-09
1.27375e-09
1.27404e-09
1.27433e-09
1.27462e-09
1.2749e-09
1.27518e-09
1.27546e-09
1.27574e-09
1.27601e-09
1.27628e-09
1.27655e-09
1.27682e-09
1.27708e-09
1.27734e-09
1.27761e-09
1.27786e-09
1.27812e-09
1.27837e-09
1.27862e-09
1.27887e-09
1.27912e-09
1.27936e-09
1.27961e-09
1.27985e-09
1.28008e-09
1.28032e-09
1.28055e-09
1.28078e-09
1.28101e-09
1.28124e-09
1.28146e-09
1.28168e-09
1.2819e-09
1.28212e-09
1.28234e-09
1.28255e-09
1.28276e-09
1.28297e-09
1.28318e-09
1.28338e-09
1.28358e-09
1.28378e-09
1.28398e-09
1.28418e-09
1.28437e-09
1.28456e-09
1.28475e-09
1.28494e-09
1.28512e-09
1.28531e-09
1.28549e-09
1.28567e-09
1.28584e-09
1.28602e-09
1.28619e-09
1.28636e-09
1.28652e-09
1.28669e-09
1.28685e-09
1.28702e-09
1.28717e-09
1.28733e-09
1.28749e-09
1.28764e-09
1.28779e-09
1.28794e-09
1.28809e-09
1.28823e-09
1.28837e-09
1.28851e-09
1.28865e-09
1.28879e-09
1.28892e-09
1.28905e-09
1.28918e-09
1.28931e-09
1.28944e-09
1.28956e-09
1.28968e-09
1.2898e-09
1.28992e-09
1.29004e-09
1.29015e-09
1.29026e-09
1.29037e-09
1.29048e-09
1.29058e-09
1.29069e-09
1.29079e-09
1.29089e-09
1.29099e-09
1.29108e-09
1.29118e-09
1.29127e-09
1.29136e-09
1.29144e-09
1.29153e-09
1.29161e-09
1.2917e-09
1.29178e-09
1.29185e-09
1.29193e-09
1.292e-09
1.29208e-09
1.29215e-09
1.29221e-09
1.29228e-09
1.29235e-09
1.29241e-09
1.29247e-09
1.29253e-09
1.29259e-09
1.29264e-09
1.29269e-09
1.29275e-09
1.29279e-09
1.29284e-09
1.29289e-09
1.29293e-09
1.29297e-09
1.29301e-09
1.29305e-09
1.29309e-09
1.29312e-09
1.29316e-09
1.29319e-09
1.29322e-09
1.29325e-09
1.29327e-09
1.2933e-09
1.29332e-09
1.29334e-09
1.29336e-09
1.29337e-09
1.29339e-09
1.2934e-09
1.29341e-09
1.29342e-09
1.29343e-09
1.29344e-09
1.29344e-09
1.29345e-09
1.29345e-09
1.29345e-09
1.29345e-09
1.29344e-09
1.29344e-09
1.29343e-09
1.29342e-09
1.29341e-09
1.2934e-09
1.29338e-09
1.29337e-09
1.29335e-09
1.29333e-09
1.29331e-09
1.29329e-09
1.29327e-09
1.29324e-09
1.29322e-09
1.29319e-09
1.29316e-09
1.29313e-09
1.29309e-09
1.29306e-09
1.29302e-09
1.29298e-09
1.29294e-09
1.2929e-09
1.29286e-09
1.29282e-09
1.29277e-09
1.29272e-09
1.29268e-09
1.29263e-09
1.29257e-09
1.29252e-09
1.29247e-09
1.29241e-09
1.29235e-09
1.29229e-09
1.29223e-09
1.29217e-09
1.29211e-09
1.29204e-09
1.29198e-09
1.29191e-09
1.29184e-09
1.29177e-09
1.2917e-09
1.29163e-09
1.29155e-09
1.29147e-09
1.2914e-09
1.29132e-09
1.29124e-09
1.29116e-09
1.29107e-09
1.29099e-09
1.2909e-09
1.29082e-09
1.29073e-09
1.29064e-09
1.29055e-09
1.29046e-09
1.29036e-09
1.29027e-09
1.29017e-09
1.29007e-09
1.28998e-09
1.28988e-09
1.28977e-09
1.28967e-09
1.28957e-09
1.28946e-09
1.28936e-09
1.28925e-09
1.28914e-09
1.28903e-09
1.28892e-09
1.28881e-09
1.2887e-09
1.28858e-09
1.28847e-09
1.28835e-09
1.28823e-09
1.28811e-09
1.28799e-09
1.28787e-09
1.28775e-09
1.28762e-09
1.2875e-09
1.28737e-09
1.28725e-09
1.28712e-09
1.28699e-09
1.28686e-09
1.28673e-09
1.2866e-09
1.28646e-09
1.28633e-09
1.28619e-09
1.28606e-09
1.28592e-09
1.28578e-09
1.28564e-09
1.2855e-09
1.28536e-09
1.28522e-09
1.28507e-09
1.28493e-09
1.28479e-09
1.28464e-09
1.28449e-09
1.28434e-09
1.2842e-09
1.28405e-09
1.28389e-09
1.28374e-09
1.28359e-09
1.28344e-09
1.28328e-09
1.28313e-09
1.28297e-09
1.28281e-09
1.28266e-09
1.2825e-09
1.28234e-09
1.28218e-09
1.28202e-09
1.28186e-09
1.28169e-09
1.28153e-09
1.28137e-09
1.2812e-09
1.28104e-09
1.28087e-09
1.2807e-09
1.28054e-09
1.28037e-09
1.2802e-09
1.28003e-09
1.27986e-09
1.27969e-09
1.27952e-09
1.27935e-09
1.27917e-09
1.279e-09
1.27883e-09
1.27865e-09
1.27848e-09
1.2783e-09
1.27813e-09
1.27795e-09
1.27777e-09
1.2776e-09
1.27742e-09
1.27724e-09
1.27706e-09
1.27688e-09
1.2767e-09
1.27652e-09
1.27634e-09
1.27617e-09
1.27599e-09
1.27581e-09
1.27563e-09
1.27544e-09
1.27526e-09
1.27508e-09
1.2749e-09
1.27472e-09
1.27454e-09
1.27436e-09
1.27418e-09
1.27401e-09
1.27383e-09
1.27365e-09
1.27347e-09
1.27329e-09
1.27312e-09
1.27294e-09
1.27277e-09
1.27259e-09
1.27242e-09
1.27225e-09
1.27208e-09
1.27191e-09
1.27174e-09
1.27158e-09
1.27141e-09
1.27125e-09
1.27109e-09
1.27094e-09
1.27078e-09
1.27063e-09
1.27049e-09
1.27034e-09
1.2702e-09
1.27007e-09
1.26994e-09
1.26981e-09
1.26969e-09
1.26957e-09
1.26947e-09
1.26936e-09
1.26927e-09
1.26918e-09
1.26911e-09
1.26904e-09
1.26898e-09
1.26894e-09
1.26891e-09
1.26889e-09
1.26888e-09
1.2689e-09
1.26893e-09
1.26898e-09
1.26905e-09
1.26915e-09
1.26927e-09
1.26943e-09
1.26962e-09
1.26984e-09
1.27011e-09
1.27043e-09
1.2708e-09
1.27125e-09
1.27179e-09
1.27245e-09
1.27326e-09
1.27431e-09
1.27567e-09
1.27744e-09
1.27988e-09
1.28384e-09
1.28992e-09
2.4635e-06
3.9966e-07
1.05572e-07
4.09529e-08
2.18136e-08
1.46558e-08
1.15188e-08
9.99636e-09
9.20562e-09
8.77412e-09
8.52875e-09
8.38349e-09
8.29357e-09
8.23498e-09
8.19458e-09
8.16509e-09
8.1424e-09
8.1242e-09
8.1091e-09
8.09629e-09
8.08525e-09
8.07563e-09
8.0672e-09
8.05976e-09
8.05317e-09
8.04734e-09
8.04215e-09
8.03754e-09
8.03344e-09
8.0298e-09
8.02656e-09
8.02368e-09
8.02114e-09
8.01889e-09
8.01691e-09
8.01517e-09
8.01366e-09
8.01235e-09
8.01122e-09
8.01027e-09
8.00947e-09
8.00881e-09
8.00829e-09
8.00788e-09
8.00759e-09
8.0074e-09
8.0073e-09
8.00729e-09
8.00737e-09
8.00751e-09
8.00773e-09
8.00801e-09
8.00835e-09
8.00875e-09
8.0092e-09
8.0097e-09
8.01024e-09
8.01082e-09
8.01144e-09
8.0121e-09
8.01278e-09
8.01351e-09
8.01425e-09
8.01503e-09
8.01583e-09
8.01665e-09
8.01749e-09
8.01835e-09
8.01923e-09
8.02012e-09
8.02102e-09
8.02194e-09
8.02286e-09
8.02379e-09
8.02473e-09
8.02567e-09
8.02662e-09
8.02757e-09
8.02852e-09
8.02948e-09
8.03045e-09
8.03142e-09
8.03239e-09
8.03337e-09
8.03435e-09
8.03534e-09
8.03633e-09
8.03732e-09
8.03832e-09
8.03932e-09
8.04033e-09
8.04133e-09
8.04234e-09
8.04336e-09
8.04438e-09
8.0454e-09
8.04642e-09
8.04745e-09
8.04847e-09
8.04951e-09
8.05054e-09
8.05158e-09
8.05261e-09
8.05366e-09
8.0547e-09
8.05575e-09
8.05679e-09
8.05784e-09
8.05889e-09
8.05995e-09
8.061e-09
8.06205e-09
8.06311e-09
8.06416e-09
8.06522e-09
8.06627e-09
8.06732e-09
8.06837e-09
8.06943e-09
8.07048e-09
8.07153e-09
8.07257e-09
8.07362e-09
8.07467e-09
8.07572e-09
8.07676e-09
8.07781e-09
8.07886e-09
8.07991e-09
8.08096e-09
8.082e-09
8.08305e-09
8.0841e-09
8.08515e-09
8.0862e-09
8.08725e-09
8.0883e-09
8.08935e-09
8.0904e-09
8.09146e-09
8.09251e-09
8.09356e-09
8.09462e-09
8.09567e-09
8.09673e-09
8.09778e-09
8.09884e-09
8.09989e-09
8.10095e-09
8.102e-09
8.10306e-09
8.10411e-09
8.10517e-09
8.10622e-09
8.10728e-09
8.10833e-09
8.10938e-09
8.11044e-09
8.11149e-09
8.11254e-09
8.1136e-09
8.11465e-09
8.1157e-09
8.11676e-09
8.11781e-09
8.11886e-09
8.11991e-09
8.12096e-09
8.12202e-09
8.12307e-09
8.12412e-09
8.12517e-09
8.12622e-09
8.12727e-09
8.12833e-09
8.12938e-09
8.13043e-09
8.13148e-09
8.13253e-09
8.13358e-09
8.13463e-09
8.13568e-09
8.13673e-09
8.13777e-09
8.13882e-09
8.13987e-09
8.14092e-09
8.14196e-09
8.14301e-09
8.14405e-09
8.1451e-09
8.14615e-09
8.14719e-09
8.14824e-09
8.14928e-09
8.15033e-09
8.15137e-09
8.15242e-09
8.15346e-09
8.1545e-09
8.15555e-09
8.15659e-09
8.15764e-09
8.15868e-09
8.15972e-09
8.16077e-09
8.16181e-09
8.16285e-09
8.16389e-09
8.16493e-09
8.16597e-09
8.16701e-09
8.16805e-09
8.16909e-09
8.17012e-09
8.17116e-09
8.1722e-09
8.17323e-09
8.17427e-09
8.1753e-09
8.17633e-09
8.17737e-09
8.1784e-09
8.17943e-09
8.18046e-09
8.18149e-09
8.18252e-09
8.18355e-09
8.18458e-09
8.18561e-09
8.18663e-09
8.18766e-09
8.18869e-09
8.18971e-09
8.19074e-09
8.19176e-09
8.19279e-09
8.19381e-09
8.19483e-09
8.19586e-09
8.19688e-09
8.1979e-09
8.19892e-09
8.19994e-09
8.20096e-09
8.20197e-09
8.20299e-09
8.20401e-09
8.20502e-09
8.20604e-09
8.20705e-09
8.20807e-09
8.20908e-09
8.21009e-09
8.2111e-09
8.21212e-09
8.21313e-09
8.21413e-09
8.21514e-09
8.21615e-09
8.21716e-09
8.21816e-09
8.21917e-09
8.22017e-09
8.22118e-09
8.22218e-09
8.22318e-09
8.22418e-09
8.22518e-09
8.22618e-09
8.22718e-09
8.22817e-09
8.22917e-09
8.23017e-09
8.23116e-09
8.23215e-09
8.23315e-09
8.23414e-09
8.23513e-09
8.23612e-09
8.23711e-09
8.23809e-09
8.23908e-09
8.24007e-09
8.24105e-09
8.24203e-09
8.24302e-09
8.244e-09
8.24498e-09
8.24596e-09
8.24694e-09
8.24791e-09
8.24889e-09
8.24987e-09
8.25084e-09
8.25181e-09
8.25279e-09
8.25376e-09
8.25473e-09
8.25569e-09
8.25666e-09
8.25763e-09
8.25859e-09
8.25956e-09
8.26052e-09
8.26148e-09
8.26244e-09
8.2634e-09
8.26436e-09
8.26532e-09
8.26627e-09
8.26723e-09
8.26818e-09
8.26913e-09
8.27009e-09
8.27104e-09
8.27198e-09
8.27293e-09
8.27388e-09
8.27482e-09
8.27577e-09
8.27671e-09
8.27765e-09
8.27859e-09
8.27953e-09
8.28047e-09
8.2814e-09
8.28234e-09
8.28327e-09
8.2842e-09
8.28513e-09
8.28606e-09
8.28699e-09
8.28792e-09
8.28884e-09
8.28977e-09
8.29069e-09
8.29161e-09
8.29253e-09
8.29345e-09
8.29437e-09
8.29529e-09
8.2962e-09
8.29711e-09
8.29803e-09
8.29894e-09
8.29985e-09
8.30075e-09
8.30166e-09
8.30256e-09
8.30347e-09
8.30437e-09
8.30527e-09
8.30617e-09
8.30707e-09
8.30796e-09
8.30886e-09
8.30975e-09
8.31064e-09
8.31153e-09
8.31242e-09
8.31331e-09
8.3142e-09
8.31508e-09
8.31596e-09
8.31684e-09
8.31772e-09
8.3186e-09
8.31948e-09
8.32035e-09
8.32123e-09
8.3221e-09
8.32297e-09
8.32384e-09
8.32471e-09
8.32557e-09
8.32644e-09
8.3273e-09
8.32816e-09
8.32902e-09
8.32988e-09
8.33074e-09
8.33159e-09
8.33244e-09
8.3333e-09
8.33415e-09
8.33499e-09
8.33584e-09
8.33669e-09
8.33753e-09
8.33837e-09
8.33921e-09
8.34005e-09
8.34089e-09
8.34172e-09
8.34256e-09
8.34339e-09
8.34422e-09
8.34505e-09
8.34587e-09
8.3467e-09
8.34752e-09
8.34834e-09
8.34916e-09
8.34998e-09
8.3508e-09
8.35162e-09
8.35243e-09
8.35324e-09
8.35405e-09
8.35486e-09
8.35566e-09
8.35647e-09
8.35727e-09
8.35807e-09
8.35887e-09
8.35967e-09
8.36047e-09
8.36126e-09
8.36205e-09
8.36284e-09
8.36363e-09
8.36442e-09
8.36521e-09
8.36599e-09
8.36677e-09
8.36755e-09
8.36833e-09
8.3691e-09
8.36988e-09
8.37065e-09
8.37142e-09
8.37219e-09
8.37296e-09
8.37372e-09
8.37449e-09
8.37525e-09
8.37601e-09
8.37677e-09
8.37752e-09
8.37828e-09
8.37903e-09
8.37978e-09
8.38053e-09
8.38128e-09
8.38202e-09
8.38277e-09
8.38351e-09
8.38425e-09
8.38499e-09
8.38572e-09
8.38645e-09
8.38719e-09
8.38792e-09
8.38865e-09
8.38937e-09
8.3901e-09
8.39082e-09
8.39154e-09
8.39226e-09
8.39297e-09
8.39369e-09
8.3944e-09
8.39511e-09
8.39582e-09
8.39653e-09
8.39724e-09
8.39794e-09
8.39864e-09
8.39934e-09
8.40004e-09
8.40073e-09
8.40143e-09
8.40212e-09
8.40281e-09
8.4035e-09
8.40418e-09
8.40486e-09
8.40555e-09
8.40623e-09
8.4069e-09
8.40758e-09
8.40825e-09
8.40893e-09
8.4096e-09
8.41027e-09
8.41093e-09
8.4116e-09
8.41226e-09
8.41292e-09
8.41358e-09
8.41423e-09
8.41489e-09
8.41554e-09
8.41619e-09
8.41684e-09
8.41748e-09
8.41813e-09
8.41877e-09
8.41941e-09
8.42005e-09
8.42068e-09
8.42132e-09
8.42195e-09
8.42258e-09
8.42321e-09
8.42384e-09
8.42446e-09
8.42508e-09
8.4257e-09
8.42632e-09
8.42694e-09
8.42755e-09
8.42816e-09
8.42877e-09
8.42938e-09
8.42999e-09
8.43059e-09
8.43119e-09
8.43179e-09
8.43239e-09
8.43298e-09
8.43358e-09
8.43417e-09
8.43476e-09
8.43535e-09
8.43593e-09
8.43652e-09
8.4371e-09
8.43768e-09
8.43825e-09
8.43883e-09
8.4394e-09
8.43997e-09
8.44054e-09
8.44111e-09
8.44167e-09
8.44224e-09
8.4428e-09
8.44336e-09
8.44391e-09
8.44447e-09
8.44502e-09
8.44557e-09
8.44612e-09
8.44667e-09
8.44721e-09
8.44775e-09
8.44829e-09
8.44883e-09
8.44937e-09
8.4499e-09
8.45044e-09
8.45097e-09
8.45149e-09
8.45202e-09
8.45254e-09
8.45307e-09
8.45359e-09
8.4541e-09
8.45462e-09
8.45513e-09
8.45564e-09
8.45615e-09
8.45666e-09
8.45717e-09
8.45767e-09
8.45817e-09
8.45867e-09
8.45917e-09
8.45966e-09
8.46016e-09
8.46065e-09
8.46114e-09
8.46162e-09
8.46211e-09
8.46259e-09
8.46307e-09
8.46355e-09
8.46403e-09
8.4645e-09
8.46497e-09
8.46544e-09
8.46591e-09
8.46638e-09
8.46684e-09
8.4673e-09
8.46777e-09
8.46822e-09
8.46868e-09
8.46913e-09
8.46959e-09
8.47004e-09
8.47048e-09
8.47093e-09
8.47137e-09
8.47182e-09
8.47226e-09
8.47269e-09
8.47313e-09
8.47356e-09
8.47399e-09
8.47442e-09
8.47485e-09
8.47528e-09
8.4757e-09
8.47612e-09
8.47654e-09
8.47696e-09
8.47738e-09
8.47779e-09
8.4782e-09
8.47861e-09
8.47902e-09
8.47942e-09
8.47983e-09
8.48023e-09
8.48063e-09
8.48103e-09
8.48142e-09
8.48181e-09
8.48221e-09
8.4826e-09
8.48298e-09
8.48337e-09
8.48375e-09
8.48413e-09
8.48451e-09
8.48489e-09
8.48527e-09
8.48564e-09
8.48601e-09
8.48638e-09
8.48675e-09
8.48711e-09
8.48748e-09
8.48784e-09
8.4882e-09
8.48856e-09
8.48891e-09
8.48927e-09
8.48962e-09
8.48997e-09
8.49032e-09
8.49066e-09
8.49101e-09
8.49135e-09
8.49169e-09
8.49203e-09
8.49237e-09
8.4927e-09
8.49303e-09
8.49336e-09
8.49369e-09
8.49402e-09
8.49434e-09
8.49467e-09
8.49499e-09
8.49531e-09
8.49563e-09
8.49594e-09
8.49625e-09
8.49657e-09
8.49688e-09
8.49718e-09
8.49749e-09
8.49779e-09
8.4981e-09
8.4984e-09
8.4987e-09
8.49899e-09
8.49929e-09
8.49958e-09
8.49987e-09
8.50016e-09
8.50045e-09
8.50073e-09
8.50102e-09
8.5013e-09
8.50158e-09
8.50186e-09
8.50213e-09
8.50241e-09
8.50268e-09
8.50295e-09
8.50322e-09
8.50349e-09
8.50375e-09
8.50402e-09
8.50428e-09
8.50454e-09
8.5048e-09
8.50505e-09
8.50531e-09
8.50556e-09
8.50581e-09
8.50606e-09
8.50631e-09
8.50655e-09
8.5068e-09
8.50704e-09
8.50728e-09
8.50752e-09
8.50776e-09
8.50799e-09
8.50823e-09
8.50846e-09
8.50869e-09
8.50892e-09
8.50914e-09
8.50937e-09
8.50959e-09
8.50981e-09
8.51003e-09
8.51025e-09
8.51047e-09
8.51068e-09
8.5109e-09
8.51111e-09
8.51132e-09
8.51153e-09
8.51173e-09
8.51194e-09
8.51214e-09
8.51234e-09
8.51254e-09
8.51274e-09
8.51294e-09
8.51313e-09
8.51333e-09
8.51352e-09
8.51371e-09
8.5139e-09
8.51408e-09
8.51427e-09
8.51445e-09
8.51463e-09
8.51481e-09
8.51499e-09
8.51517e-09
8.51535e-09
8.51552e-09
8.51569e-09
8.51586e-09
8.51603e-09
8.5162e-09
8.51637e-09
8.51653e-09
8.5167e-09
8.51686e-09
8.51702e-09
8.51718e-09
8.51733e-09
8.51749e-09
8.51764e-09
8.5178e-09
8.51795e-09
8.5181e-09
8.51825e-09
8.51839e-09
8.51854e-09
8.51868e-09
8.51883e-09
8.51897e-09
8.51911e-09
8.51924e-09
8.51938e-09
8.51952e-09
8.51965e-09
8.51978e-09
8.51991e-09
8.52004e-09
8.52017e-09
8.5203e-09
8.52042e-09
8.52055e-09
8.52067e-09
8.52079e-09
8.52091e-09
8.52103e-09
8.52115e-09
8.52126e-09
8.52138e-09
8.52149e-09
8.5216e-09
8.52171e-09
8.52182e-09
8.52193e-09
8.52204e-09
8.52214e-09
8.52224e-09
8.52235e-09
8.52245e-09
8.52255e-09
8.52265e-09
8.52275e-09
8.52284e-09
8.52294e-09
8.52303e-09
8.52312e-09
8.52321e-09
8.5233e-09
8.52339e-09
8.52348e-09
8.52357e-09
8.52365e-09
8.52374e-09
8.52382e-09
8.5239e-09
8.52398e-09
8.52406e-09
8.52414e-09
8.52421e-09
8.52429e-09
8.52437e-09
8.52444e-09
8.52451e-09
8.52458e-09
8.52465e-09
8.52472e-09
8.52479e-09
8.52486e-09
8.52492e-09
8.52499e-09
8.52505e-09
8.52511e-09
8.52517e-09
8.52523e-09
8.52529e-09
8.52535e-09
8.52541e-09
8.52546e-09
8.52552e-09
8.52557e-09
8.52562e-09
8.52568e-09
8.52573e-09
8.52578e-09
8.52583e-09
8.52587e-09
8.52592e-09
8.52597e-09
8.52601e-09
8.52606e-09
8.5261e-09
8.52614e-09
8.52618e-09
8.52622e-09
8.52626e-09
8.5263e-09
8.52634e-09
8.52637e-09
8.52641e-09
8.52644e-09
8.52648e-09
8.52651e-09
8.52654e-09
8.52657e-09
8.5266e-09
8.52663e-09
8.52666e-09
8.52669e-09
8.52672e-09
8.52674e-09
8.52677e-09
8.52679e-09
8.52682e-09
8.52684e-09
8.52686e-09
8.52688e-09
8.5269e-09
8.52692e-09
8.52694e-09
8.52696e-09
8.52698e-09
8.52699e-09
8.52701e-09
8.52703e-09
8.52704e-09
8.52705e-09
8.52707e-09
8.52708e-09
8.52709e-09
8.5271e-09
8.52711e-09
8.52712e-09
8.52713e-09
8.52714e-09
8.52715e-09
8.52716e-09
8.52716e-09
8.52717e-09
8.52717e-09
8.52718e-09
8.52718e-09
8.52719e-09
8.52719e-09
8.52719e-09
8.5272e-09
8.5272e-09
8.5272e-09
8.5272e-09
8.5272e-09
8.5272e-09
8.5272e-09
8.5272e-09
8.52719e-09
8.52719e-09
8.52719e-09
8.52719e-09
8.52718e-09
8.52718e-09
8.52718e-09
8.52717e-09
8.52717e-09
8.52716e-09
8.52716e-09
8.52715e-09
8.52715e-09
8.52714e-09
8.52713e-09
8.52713e-09
8.52712e-09
8.52711e-09
8.52711e-09
8.5271e-09
8.52709e-09
8.52709e-09
8.52708e-09
8.52707e-09
8.52707e-09
8.52706e-09
8.52706e-09
8.52705e-09
8.52705e-09
8.52704e-09
8.52704e-09
8.52703e-09
8.52703e-09
8.52703e-09
8.52702e-09
8.52702e-09
8.52702e-09
8.52702e-09
8.52702e-09
8.52703e-09
8.52703e-09
8.52703e-09
8.52704e-09
8.52705e-09
8.52706e-09
8.52707e-09
8.52709e-09
8.5271e-09
8.52712e-09
8.52714e-09
8.52717e-09
8.5272e-09
8.52723e-09
8.52726e-09
8.5273e-09
8.52734e-09
8.52739e-09
8.52744e-09
8.5275e-09
8.52757e-09
8.52764e-09
8.52771e-09
8.5278e-09
8.52789e-09
8.52799e-09
8.52811e-09
8.52823e-09
8.52836e-09
8.52851e-09
8.52866e-09
8.52884e-09
8.52903e-09
8.52923e-09
8.52946e-09
8.5297e-09
8.52997e-09
8.53026e-09
8.53058e-09
8.53093e-09
8.53131e-09
8.53173e-09
8.53218e-09
8.53268e-09
8.53323e-09
8.53383e-09
8.5345e-09
8.53527e-09
8.53617e-09
8.53725e-09
8.53861e-09
8.54035e-09
8.54276e-09
8.54643e-09
8.55097e-09
1.74841e-05
3.78159e-06
1.32883e-06
6.03696e-07
3.44575e-07
2.39206e-07
1.92082e-07
1.69585e-07
1.58408e-07
1.52746e-07
1.49871e-07
1.48431e-07
1.47732e-07
1.47412e-07
1.47283e-07
1.47247e-07
1.47252e-07
1.47274e-07
1.47301e-07
1.47328e-07
1.47353e-07
1.47375e-07
1.47394e-07
1.4741e-07
1.47425e-07
1.47437e-07
1.47448e-07
1.47458e-07
1.47467e-07
1.47474e-07
1.47481e-07
1.47488e-07
1.47493e-07
1.47499e-07
1.47503e-07
1.47508e-07
1.47512e-07
1.47516e-07
1.47519e-07
1.47523e-07
1.47526e-07
1.47529e-07
1.47532e-07
1.47534e-07
1.47537e-07
1.47539e-07
1.47541e-07
1.47544e-07
1.47546e-07
1.47548e-07
1.4755e-07
1.47551e-07
1.47553e-07
1.47555e-07
1.47557e-07
1.47558e-07
1.4756e-07
1.47561e-07
1.47563e-07
1.47564e-07
1.47566e-07
1.47567e-07
1.47569e-07
1.4757e-07
1.47571e-07
1.47572e-07
1.47574e-07
1.47575e-07
1.47576e-07
1.47577e-07
1.47578e-07
1.47579e-07
1.4758e-07
1.4758e-07
1.47581e-07
1.47582e-07
1.47582e-07
1.47583e-07
1.47584e-07
1.47584e-07
1.47585e-07
1.47585e-07
1.47586e-07
1.47587e-07
1.47587e-07
1.47588e-07
1.47589e-07
1.4759e-07
1.4759e-07
1.47591e-07
1.47592e-07
1.47593e-07
1.47594e-07
1.47594e-07
1.47595e-07
1.47596e-07
1.47597e-07
1.47598e-07
1.47599e-07
1.47599e-07
1.476e-07
1.47601e-07
1.47602e-07
1.47603e-07
1.47604e-07
1.47605e-07
1.47606e-07
1.47607e-07
1.47607e-07
1.47608e-07
1.47609e-07
1.4761e-07
1.47611e-07
1.47612e-07
1.47613e-07
1.47613e-07
1.47614e-07
1.47615e-07
1.47616e-07
1.47616e-07
1.47617e-07
1.47618e-07
1.47619e-07
1.4762e-07
1.4762e-07
1.47621e-07
1.47622e-07
1.47623e-07
1.47624e-07
1.47624e-07
1.47625e-07
1.47626e-07
1.47627e-07
1.47628e-07
1.47629e-07
1.4763e-07
1.4763e-07
1.47631e-07
1.47632e-07
1.47633e-07
1.47634e-07
1.47635e-07
1.47636e-07
1.47637e-07
1.47637e-07
1.47638e-07
1.47639e-07
1.4764e-07
1.47641e-07
1.47642e-07
1.47643e-07
1.47644e-07
1.47644e-07
1.47645e-07
1.47646e-07
1.47647e-07
1.47648e-07
1.47649e-07
1.4765e-07
1.4765e-07
1.47651e-07
1.47652e-07
1.47653e-07
1.47654e-07
1.47655e-07
1.47656e-07
1.47657e-07
1.47657e-07
1.47658e-07
1.47659e-07
1.4766e-07
1.47661e-07
1.47662e-07
1.47663e-07
1.47664e-07
1.47664e-07
1.47665e-07
1.47666e-07
1.47667e-07
1.47668e-07
1.47669e-07
1.4767e-07
1.47671e-07
1.47671e-07
1.47672e-07
1.47673e-07
1.47674e-07
1.47675e-07
1.47676e-07
1.47677e-07
1.47678e-07
1.47678e-07
1.47679e-07
1.4768e-07
1.47681e-07
1.47682e-07
1.47683e-07
1.47684e-07
1.47685e-07
1.47686e-07
1.47687e-07
1.47687e-07
1.47688e-07
1.47689e-07
1.4769e-07
1.47691e-07
1.47692e-07
1.47693e-07
1.47694e-07
1.47695e-07
1.47695e-07
1.47696e-07
1.47697e-07
1.47698e-07
1.47699e-07
1.477e-07
1.47701e-07
1.47702e-07
1.47703e-07
1.47703e-07
1.47704e-07
1.47705e-07
1.47706e-07
1.47707e-07
1.47708e-07
1.47709e-07
1.4771e-07
1.47711e-07
1.47711e-07
1.47712e-07
1.47713e-07
1.47714e-07
1.47715e-07
1.47716e-07
1.47717e-07
1.47718e-07
1.47719e-07
1.47719e-07
1.4772e-07
1.47721e-07
1.47722e-07
1.47723e-07
1.47724e-07
1.47725e-07
1.47726e-07
1.47727e-07
1.47728e-07
1.47728e-07
1.47729e-07
1.4773e-07
1.47731e-07
1.47732e-07
1.47733e-07
1.47734e-07
1.47735e-07
1.47736e-07
1.47737e-07
1.47737e-07
1.47738e-07
1.47739e-07
1.4774e-07
1.47741e-07
1.47742e-07
1.47743e-07
1.47744e-07
1.47745e-07
1.47745e-07
1.47746e-07
1.47747e-07
1.47748e-07
1.47749e-07
1.4775e-07
1.47751e-07
1.47752e-07
1.47753e-07
1.47754e-07
1.47754e-07
1.47755e-07
1.47756e-07
1.47757e-07
1.47758e-07
1.47759e-07
1.4776e-07
1.47761e-07
1.47762e-07
1.47763e-07
1.47763e-07
1.47764e-07
1.47765e-07
1.47766e-07
1.47767e-07
1.47768e-07
1.47769e-07
1.4777e-07
1.47771e-07
1.47771e-07
1.47772e-07
1.47773e-07
1.47774e-07
1.47775e-07
1.47776e-07
1.47777e-07
1.47778e-07
1.47779e-07
1.4778e-07
1.4778e-07
1.47781e-07
1.47782e-07
1.47783e-07
1.47784e-07
1.47785e-07
1.47786e-07
1.47787e-07
1.47788e-07
1.47788e-07
1.47789e-07
1.4779e-07
1.47791e-07
1.47792e-07
1.47793e-07
1.47794e-07
1.47795e-07
1.47796e-07
1.47796e-07
1.47797e-07
1.47798e-07
1.47799e-07
1.478e-07
1.47801e-07
1.47802e-07
1.47803e-07
1.47804e-07
1.47804e-07
1.47805e-07
1.47806e-07
1.47807e-07
1.47808e-07
1.47809e-07
1.4781e-07
1.47811e-07
1.47812e-07
1.47812e-07
1.47813e-07
1.47814e-07
1.47815e-07
1.47816e-07
1.47817e-07
1.47818e-07
1.47819e-07
1.4782e-07
1.4782e-07
1.47821e-07
1.47822e-07
1.47823e-07
1.47824e-07
1.47825e-07
1.47826e-07
1.47827e-07
1.47828e-07
1.47828e-07
1.47829e-07
1.4783e-07
1.47831e-07
1.47832e-07
1.47833e-07
1.47834e-07
1.47835e-07
1.47836e-07
1.47836e-07
1.47837e-07
1.47838e-07
1.47839e-07
1.4784e-07
1.47841e-07
1.47842e-07
1.47843e-07
1.47843e-07
1.47844e-07
1.47845e-07
1.47846e-07
1.47847e-07
1.47848e-07
1.47849e-07
1.4785e-07
1.4785e-07
1.47851e-07
1.47852e-07
1.47853e-07
1.47854e-07
1.47855e-07
1.47856e-07
1.47857e-07
1.47857e-07
1.47858e-07
1.47859e-07
1.4786e-07
1.47861e-07
1.47862e-07
1.47863e-07
1.47864e-07
1.47864e-07
1.47865e-07
1.47866e-07
1.47867e-07
1.47868e-07
1.47869e-07
1.4787e-07
1.47871e-07
1.47871e-07
1.47872e-07
1.47873e-07
1.47874e-07
1.47875e-07
1.47876e-07
1.47877e-07
1.47877e-07
1.47878e-07
1.47879e-07
1.4788e-07
1.47881e-07
1.47882e-07
1.47883e-07
1.47884e-07
1.47884e-07
1.47885e-07
1.47886e-07
1.47887e-07
1.47888e-07
1.47889e-07
1.4789e-07
1.4789e-07
1.47891e-07
1.47892e-07
1.47893e-07
1.47894e-07
1.47895e-07
1.47896e-07
1.47896e-07
1.47897e-07
1.47898e-07
1.47899e-07
1.479e-07
1.47901e-07
1.47902e-07