/*--------------------------------*- C++ -*----------------------------------*\
| =========                 |                                                 |
| \\      /  F ield         | OpenFOAM: The Open Source CFD Toolbox           |
|  \\    /   O peration     | Version:  2512                                  |
|   \\  /    A nd           | Website:  www.openfoam.com                      |
|    \\/     M anipulation  |                                                 |
\*---------------------------------------------------------------------------*/
FoamFile
{
    version     2.0;
    format      ascii;
    arch        "LSB;label=32;scalar=64";
    class       volVectorField;
    location    "0.005";
    object      B;
}
// * * * * * * * * * * * * * * * * * * * * * * * * * * * * * * * * * * * * * //

dimensions      [1 0 -2 0 0 -1 0];

internalField   nonuniform List<vector> 
100000
(
(0.192134 20.0567 0)
(0.187884 20.0331 0)
(0.177304 20.0369 0)
(0.167027 20.0334 0)
(0.158637 20.0283 0)
(0.151881 20.0239 0)
(0.14637 20.0202 0)
(0.141815 20.0169 0)
(0.138008 20.0142 0)
(0.134796 20.0119 0)
(0.132062 20.0099 0)
(0.129721 20.0083 0)
(0.127706 20.0069 0)
(0.125962 20.0058 0)
(0.124448 20.0049 0)
(0.123128 20.0042 0)
(0.121973 20.0036 0)
(0.120959 20.0031 0)
(0.120066 20.0026 0)
(0.119277 20.0023 0)
(0.118578 20.002 0)
(0.117959 20.0017 0)
(0.117407 20.0015 0)
(0.116917 20.0013 0)
(0.116479 20.0011 0)
(0.116089 20.0009 0)
(0.115741 20.0008 0)
(0.115429 20.0007 0)
(0.115152 20.0006 0)
(0.114904 20.0005 0)
(0.114684 20.0004 0)
(0.114487 20.0003 0)
(0.114313 20.0003 0)
(0.114159 20.0002 0)
(0.114023 20.0001 0)
(0.113904 20.0001 0)
(0.1138 20 0)
(0.113709 20 0)
(0.113632 20 0)
(0.113566 19.9999 0)
(0.11351 19.9999 0)
(0.113465 19.9998 0)
(0.113428 19.9998 0)
(0.1134 19.9998 0)
(0.113379 19.9998 0)
(0.113365 19.9997 0)
(0.113358 19.9997 0)
(0.113357 19.9997 0)
(0.113361 19.9997 0)
(0.113371 19.9997 0)
(0.113385 19.9997 0)
(0.113404 19.9996 0)
(0.113427 19.9996 0)
(0.113454 19.9996 0)
(0.113484 19.9996 0)
(0.113517 19.9996 0)
(0.113554 19.9996 0)
(0.113593 19.9996 0)
(0.113635 19.9996 0)
(0.113679 19.9996 0)
(0.113725 19.9995 0)
(0.113774 19.9995 0)
(0.113824 19.9995 0)
(0.113877 19.9995 0)
(0.113931 19.9995 0)
(0.113986 19.9995 0)
(0.114043 19.9995 0)
(0.114101 19.9995 0)
(0.114161 19.9995 0)
(0.114221 19.9995 0)
(0.114283 19.9995 0)
(0.114345 19.9995 0)
(0.114409 19.9995 0)
(0.114473 19.9995 0)
(0.114539 19.9995 0)
(0.114605 19.9995 0)
(0.114671 19.9995 0)
(0.114738 19.9995 0)
(0.114806 19.9995 0)
(0.114875 19.9995 0)
(0.114943 19.9995 0)
(0.115013 19.9995 0)
(0.115082 19.9995 0)
(0.115152 19.9995 0)
(0.115222 19.9995 0)
(0.115293 19.9995 0)
(0.115363 19.9995 0)
(0.115434 19.9995 0)
(0.115506 19.9995 0)
(0.115577 19.9995 0)
(0.115649 19.9995 0)
(0.11572 19.9995 0)
(0.115792 19.9995 0)
(0.115864 19.9995 0)
(0.115936 19.9995 0)
(0.116009 19.9995 0)
(0.116081 19.9995 0)
(0.116154 19.9995 0)
(0.116226 19.9995 0)
(0.116299 19.9995 0)
(0.116372 19.9995 0)
(0.116445 19.9995 0)
(0.116518 19.9995 0)
(0.116591 19.9995 0)
(0.116664 19.9995 0)
(0.116737 19.9995 0)
(0.116811 19.9995 0)
(0.116884 19.9995 0)
(0.116958 19.9995 0)
(0.117031 19.9995 0)
(0.117105 19.9995 0)
(0.117179 19.9995 0)
(0.117252 19.9995 0)
(0.117326 19.9995 0)
(0.1174 19.9995 0)
(0.117474 19.9995 0)
(0.117548 19.9995 0)
(0.117622 19.9995 0)
(0.117696 19.9995 0)
(0.11777 19.9995 0)
(0.117843 19.9995 0)
(0.117917 19.9995 0)
(0.117991 19.9995 0)
(0.118065 19.9995 0)
(0.118139 19.9995 0)
(0.118213 19.9995 0)
(0.118287 19.9995 0)
(0.11836 19.9995 0)
(0.118434 19.9995 0)
(0.118508 19.9995 0)
(0.118582 19.9995 0)
(0.118655 19.9995 0)
(0.118729 19.9995 0)
(0.118803 19.9995 0)
(0.118877 19.9995 0)
(0.11895 19.9995 0)
(0.119024 19.9995 0)
(0.119098 19.9995 0)
(0.119171 19.9995 0)
(0.119245 19.9995 0)
(0.119319 19.9995 0)
(0.119392 19.9995 0)
(0.119466 19.9995 0)
(0.11954 19.9995 0)
(0.119613 19.9995 0)
(0.119687 19.9995 0)
(0.119761 19.9995 0)
(0.119835 19.9995 0)
(0.119908 19.9995 0)
(0.119982 19.9995 0)
(0.120056 19.9995 0)
(0.12013 19.9995 0)
(0.120204 19.9995 0)
(0.120277 19.9995 0)
(0.120351 19.9995 0)
(0.120425 19.9995 0)
(0.120499 19.9995 0)
(0.120572 19.9995 0)
(0.120646 19.9995 0)
(0.12072 19.9995 0)
(0.120794 19.9995 0)
(0.120867 19.9995 0)
(0.120941 19.9995 0)
(0.121015 19.9995 0)
(0.121088 19.9995 0)
(0.121162 19.9995 0)
(0.121236 19.9995 0)
(0.121309 19.9995 0)
(0.121383 19.9995 0)
(0.121457 19.9995 0)
(0.12153 19.9995 0)
(0.121604 19.9995 0)
(0.121677 19.9995 0)
(0.121751 19.9995 0)
(0.121825 19.9995 0)
(0.121898 19.9995 0)
(0.121972 19.9995 0)
(0.122045 19.9995 0)
(0.122119 19.9995 0)
(0.122192 19.9995 0)
(0.122266 19.9995 0)
(0.122339 19.9995 0)
(0.122413 19.9995 0)
(0.122486 19.9995 0)
(0.12256 19.9995 0)
(0.122633 19.9995 0)
(0.122707 19.9995 0)
(0.12278 19.9995 0)
(0.122853 19.9995 0)
(0.122927 19.9995 0)
(0.123 19.9995 0)
(0.123074 19.9995 0)
(0.123147 19.9995 0)
(0.123221 19.9995 0)
(0.123294 19.9995 0)
(0.123367 19.9995 0)
(0.123441 19.9995 0)
(0.123514 19.9995 0)
(0.123588 19.9995 0)
(0.123661 19.9995 0)
(0.123734 19.9995 0)
(0.123808 19.9995 0)
(0.123881 19.9995 0)
(0.123954 19.9995 0)
(0.124028 19.9995 0)
(0.124101 19.9995 0)
(0.124174 19.9995 0)
(0.124248 19.9995 0)
(0.124321 19.9995 0)
(0.124394 19.9995 0)
(0.124468 19.9995 0)
(0.124541 19.9995 0)
(0.124614 19.9995 0)
(0.124687 19.9995 0)
(0.124761 19.9995 0)
(0.124834 19.9995 0)
(0.124907 19.9995 0)
(0.12498 19.9995 0)
(0.125054 19.9995 0)
(0.125127 19.9995 0)
(0.1252 19.9995 0)
(0.125273 19.9995 0)
(0.125346 19.9995 0)
(0.125419 19.9995 0)
(0.125492 19.9995 0)
(0.125565 19.9995 0)
(0.125639 19.9995 0)
(0.125712 19.9995 0)
(0.125785 19.9995 0)
(0.125858 19.9995 0)
(0.125931 19.9995 0)
(0.126004 19.9995 0)
(0.126077 19.9995 0)
(0.12615 19.9995 0)
(0.126223 19.9995 0)
(0.126296 19.9995 0)
(0.126369 19.9995 0)
(0.126442 19.9995 0)
(0.126515 19.9995 0)
(0.126588 19.9995 0)
(0.12666 19.9995 0)
(0.126733 19.9995 0)
(0.126806 19.9995 0)
(0.126879 19.9995 0)
(0.126952 19.9995 0)
(0.127025 19.9995 0)
(0.127098 19.9995 0)
(0.127171 19.9995 0)
(0.127244 19.9995 0)
(0.127316 19.9995 0)
(0.127389 19.9995 0)
(0.127462 19.9995 0)
(0.127535 19.9995 0)
(0.127608 19.9995 0)
(0.12768 19.9995 0)
(0.127753 19.9995 0)
(0.127826 19.9995 0)
(0.127899 19.9995 0)
(0.127971 19.9995 0)
(0.128044 19.9995 0)
(0.128117 19.9995 0)
(0.12819 19.9995 0)
(0.128262 19.9995 0)
(0.128335 19.9995 0)
(0.128408 19.9995 0)
(0.12848 19.9995 0)
(0.128553 19.9995 0)
(0.128626 19.9995 0)
(0.128698 19.9995 0)
(0.128771 19.9995 0)
(0.128843 19.9995 0)
(0.128916 19.9995 0)
(0.128989 19.9995 0)
(0.129061 19.9995 0)
(0.129134 19.9995 0)
(0.129206 19.9995 0)
(0.129279 19.9995 0)
(0.129351 19.9995 0)
(0.129424 19.9995 0)
(0.129496 19.9995 0)
(0.129569 19.9995 0)
(0.129641 19.9995 0)
(0.129713 19.9995 0)
(0.129786 19.9995 0)
(0.129858 19.9995 0)
(0.129931 19.9995 0)
(0.130003 19.9995 0)
(0.130075 19.9995 0)
(0.130148 19.9995 0)
(0.13022 19.9995 0)
(0.130292 19.9995 0)
(0.130365 19.9995 0)
(0.130437 19.9995 0)
(0.130509 19.9995 0)
(0.130581 19.9995 0)
(0.130654 19.9995 0)
(0.130726 19.9995 0)
(0.130798 19.9995 0)
(0.13087 19.9995 0)
(0.130942 19.9995 0)
(0.131015 19.9995 0)
(0.131087 19.9995 0)
(0.131159 19.9995 0)
(0.131231 19.9995 0)
(0.131303 19.9995 0)
(0.131375 19.9995 0)
(0.131447 19.9995 0)
(0.131519 19.9995 0)
(0.131591 19.9995 0)
(0.131663 19.9995 0)
(0.131735 19.9995 0)
(0.131807 19.9995 0)
(0.131879 19.9995 0)
(0.131951 19.9995 0)
(0.132023 19.9995 0)
(0.132095 19.9995 0)
(0.132167 19.9995 0)
(0.132239 19.9995 0)
(0.132311 19.9995 0)
(0.132383 19.9995 0)
(0.132454 19.9995 0)
(0.132526 19.9995 0)
(0.132598 19.9995 0)
(0.13267 19.9995 0)
(0.132742 19.9995 0)
(0.132813 19.9995 0)
(0.132885 19.9995 0)
(0.132957 19.9995 0)
(0.133029 19.9995 0)
(0.1331 19.9995 0)
(0.133172 19.9995 0)
(0.133244 19.9995 0)
(0.133315 19.9995 0)
(0.133387 19.9995 0)
(0.133459 19.9995 0)
(0.13353 19.9995 0)
(0.133602 19.9995 0)
(0.133673 19.9995 0)
(0.133745 19.9995 0)
(0.133816 19.9995 0)
(0.133888 19.9995 0)
(0.133959 19.9995 0)
(0.134031 19.9995 0)
(0.134102 19.9995 0)
(0.134174 19.9995 0)
(0.134245 19.9995 0)
(0.134317 19.9995 0)
(0.134388 19.9995 0)
(0.134459 19.9995 0)
(0.134531 19.9995 0)
(0.134602 19.9995 0)
(0.134673 19.9995 0)
(0.134745 19.9995 0)
(0.134816 19.9995 0)
(0.134887 19.9995 0)
(0.134958 19.9995 0)
(0.13503 19.9995 0)
(0.135101 19.9995 0)
(0.135172 19.9995 0)
(0.135243 19.9995 0)
(0.135314 19.9995 0)
(0.135386 19.9995 0)
(0.135457 19.9995 0)
(0.135528 19.9995 0)
(0.135599 19.9995 0)
(0.13567 19.9995 0)
(0.135741 19.9995 0)
(0.135812 19.9995 0)
(0.135883 19.9995 0)
(0.135954 19.9995 0)
(0.136025 19.9995 0)
(0.136096 19.9995 0)
(0.136167 19.9995 0)
(0.136238 19.9995 0)
(0.136309 19.9995 0)
(0.13638 19.9995 0)
(0.136451 19.9995 0)
(0.136522 19.9995 0)
(0.136592 19.9995 0)
(0.136663 19.9995 0)
(0.136734 19.9995 0)
(0.136805 19.9995 0)
(0.136876 19.9995 0)
(0.136946 19.9995 0)
(0.137017 19.9995 0)
(0.137088 19.9995 0)
(0.137159 19.9995 0)
(0.137229 19.9995 0)
(0.1373 19.9995 0)
(0.137371 19.9995 0)
(0.137441 19.9995 0)
(0.137512 19.9995 0)
(0.137582 19.9995 0)
(0.137653 19.9995 0)
(0.137723 19.9995 0)
(0.137794 19.9995 0)
(0.137865 19.9995 0)
(0.137935 19.9995 0)
(0.138006 19.9995 0)
(0.138076 19.9995 0)
(0.138146 19.9995 0)
(0.138217 19.9995 0)
(0.138287 19.9995 0)
(0.138358 19.9995 0)
(0.138428 19.9995 0)
(0.138498 19.9995 0)
(0.138569 19.9995 0)
(0.138639 19.9995 0)
(0.138709 19.9995 0)
(0.13878 19.9995 0)
(0.13885 19.9995 0)
(0.13892 19.9995 0)
(0.13899 19.9995 0)
(0.139061 19.9995 0)
(0.139131 19.9995 0)
(0.139201 19.9995 0)
(0.139271 19.9995 0)
(0.139341 19.9995 0)
(0.139411 19.9995 0)
(0.139481 19.9995 0)
(0.139551 19.9995 0)
(0.139621 19.9995 0)
(0.139692 19.9995 0)
(0.139762 19.9995 0)
(0.139832 19.9995 0)
(0.139902 19.9995 0)
(0.139971 19.9995 0)
(0.140041 19.9995 0)
(0.140111 19.9995 0)
(0.140181 19.9995 0)
(0.140251 19.9995 0)
(0.140321 19.9995 0)
(0.140391 19.9995 0)
(0.140461 19.9995 0)
(0.14053 19.9995 0)
(0.1406 19.9995 0)
(0.14067 19.9995 0)
(0.14074 19.9995 0)
(0.14081 19.9995 0)
(0.140879 19.9995 0)
(0.140949 19.9995 0)
(0.141019 19.9995 0)
(0.141088 19.9995 0)
(0.141158 19.9995 0)
(0.141228 19.9995 0)
(0.141297 19.9995 0)
(0.141367 19.9995 0)
(0.141436 19.9995 0)
(0.141506 19.9995 0)
(0.141575 19.9995 0)
(0.141645 19.9995 0)
(0.141714 19.9995 0)
(0.141784 19.9995 0)
(0.141853 19.9995 0)
(0.141923 19.9995 0)
(0.141992 19.9995 0)
(0.142061 19.9995 0)
(0.142131 19.9995 0)
(0.1422 19.9995 0)
(0.14227 19.9995 0)
(0.142339 19.9995 0)
(0.142408 19.9995 0)
(0.142477 19.9995 0)
(0.142547 19.9995 0)
(0.142616 19.9995 0)
(0.142685 19.9995 0)
(0.142754 19.9995 0)
(0.142823 19.9995 0)
(0.142893 19.9995 0)
(0.142962 19.9995 0)
(0.143031 19.9995 0)
(0.1431 19.9995 0)
(0.143169 19.9995 0)
(0.143238 19.9995 0)
(0.143307 19.9995 0)
(0.143376 19.9995 0)
(0.143445 19.9995 0)
(0.143514 19.9995 0)
(0.143583 19.9995 0)
(0.143652 19.9995 0)
(0.143721 19.9995 0)
(0.14379 19.9995 0)
(0.143859 19.9995 0)
(0.143928 19.9995 0)
(0.143996 19.9995 0)
(0.144065 19.9995 0)
(0.144134 19.9995 0)
(0.144203 19.9995 0)
(0.144272 19.9995 0)
(0.14434 19.9995 0)
(0.144409 19.9995 0)
(0.144478 19.9995 0)
(0.144547 19.9995 0)
(0.144615 19.9995 0)
(0.144684 19.9995 0)
(0.144752 19.9995 0)
(0.144821 19.9995 0)
(0.14489 19.9995 0)
(0.144958 19.9995 0)
(0.145027 19.9995 0)
(0.145095 19.9995 0)
(0.145164 19.9995 0)
(0.145232 19.9995 0)
(0.145301 19.9995 0)
(0.145369 19.9995 0)
(0.145438 19.9995 0)
(0.145506 19.9995 0)
(0.145575 19.9995 0)
(0.145643 19.9995 0)
(0.145711 19.9995 0)
(0.14578 19.9995 0)
(0.145848 19.9995 0)
(0.145916 19.9995 0)
(0.145985 19.9995 0)
(0.146053 19.9995 0)
(0.146121 19.9995 0)
(0.146189 19.9995 0)
(0.146257 19.9995 0)
(0.146326 19.9995 0)
(0.146394 19.9995 0)
(0.146462 19.9995 0)
(0.14653 19.9995 0)
(0.146598 19.9995 0)
(0.146666 19.9995 0)
(0.146734 19.9995 0)
(0.146802 19.9995 0)
(0.14687 19.9995 0)
(0.146938 19.9995 0)
(0.147006 19.9995 0)
(0.147074 19.9995 0)
(0.147142 19.9995 0)
(0.14721 19.9995 0)
(0.147278 19.9995 0)
(0.147346 19.9995 0)
(0.147414 19.9995 0)
(0.147482 19.9995 0)
(0.14755 19.9995 0)
(0.147617 19.9995 0)
(0.147685 19.9995 0)
(0.147753 19.9995 0)
(0.147821 19.9995 0)
(0.147888 19.9995 0)
(0.147956 19.9995 0)
(0.148024 19.9995 0)
(0.148091 19.9995 0)
(0.148159 19.9995 0)
(0.148227 19.9995 0)
(0.148294 19.9995 0)
(0.148362 19.9995 0)
(0.14843 19.9995 0)
(0.148497 19.9995 0)
(0.148565 19.9995 0)
(0.148632 19.9995 0)
(0.1487 19.9995 0)
(0.148767 19.9995 0)
(0.148835 19.9995 0)
(0.148902 19.9995 0)
(0.14897 19.9995 0)
(0.149037 19.9995 0)
(0.149104 19.9995 0)
(0.149172 19.9995 0)
(0.149239 19.9995 0)
(0.149306 19.9995 0)
(0.149374 19.9995 0)
(0.149441 19.9995 0)
(0.149508 19.9995 0)
(0.149575 19.9995 0)
(0.149643 19.9995 0)
(0.14971 19.9995 0)
(0.149777 19.9995 0)
(0.149844 19.9995 0)
(0.149911 19.9995 0)
(0.149979 19.9995 0)
(0.150046 19.9995 0)
(0.150113 19.9995 0)
(0.15018 19.9995 0)
(0.150247 19.9995 0)
(0.150314 19.9995 0)
(0.150381 19.9995 0)
(0.150448 19.9995 0)
(0.150515 19.9995 0)
(0.150582 19.9995 0)
(0.150649 19.9995 0)
(0.150716 19.9995 0)
(0.150783 19.9995 0)
(0.15085 19.9995 0)
(0.150916 19.9995 0)
(0.150983 19.9995 0)
(0.15105 19.9995 0)
(0.151117 19.9995 0)
(0.151184 19.9995 0)
(0.151251 19.9995 0)
(0.151317 19.9995 0)
(0.151384 19.9995 0)
(0.151451 19.9995 0)
(0.151517 19.9995 0)
(0.151584 19.9995 0)
(0.151651 19.9995 0)
(0.151717 19.9995 0)
(0.151784 19.9995 0)
(0.151851 19.9995 0)
(0.151917 19.9995 0)
(0.151984 19.9995 0)
(0.15205 19.9995 0)
(0.152117 19.9995 0)
(0.152183 19.9995 0)
(0.15225 19.9995 0)
(0.152316 19.9995 0)
(0.152383 19.9995 0)
(0.152449 19.9995 0)
(0.152516 19.9995 0)
(0.152582 19.9995 0)
(0.152648 19.9995 0)
(0.152715 19.9995 0)
(0.152781 19.9995 0)
(0.152847 19.9995 0)
(0.152914 19.9995 0)
(0.15298 19.9995 0)
(0.153046 19.9995 0)
(0.153113 19.9995 0)
(0.153179 19.9995 0)
(0.153245 19.9995 0)
(0.153311 19.9995 0)
(0.153377 19.9995 0)
(0.153444 19.9995 0)
(0.15351 19.9995 0)
(0.153576 19.9995 0)
(0.153642 19.9995 0)
(0.153708 19.9995 0)
(0.153774 19.9995 0)
(0.15384 19.9995 0)
(0.153906 19.9995 0)
(0.153972 19.9995 0)
(0.154038 19.9995 0)
(0.154104 19.9995 0)
(0.15417 19.9995 0)
(0.154236 19.9995 0)
(0.154302 19.9995 0)
(0.154368 19.9995 0)
(0.154434 19.9995 0)
(0.1545 19.9995 0)
(0.154565 19.9995 0)
(0.154631 19.9995 0)
(0.154697 19.9995 0)
(0.154763 19.9995 0)
(0.154829 19.9995 0)
(0.154894 19.9995 0)
(0.15496 19.9995 0)
(0.155026 19.9995 0)
(0.155092 19.9995 0)
(0.155157 19.9995 0)
(0.155223 19.9995 0)
(0.155289 19.9995 0)
(0.155354 19.9995 0)
(0.15542 19.9995 0)
(0.155486 19.9995 0)
(0.155551 19.9995 0)
(0.155617 19.9995 0)
(0.155682 19.9995 0)
(0.155748 19.9995 0)
(0.155813 19.9995 0)
(0.155879 19.9995 0)
(0.155944 19.9995 0)
(0.15601 19.9995 0)
(0.156075 19.9995 0)
(0.156141 19.9995 0)
(0.156206 19.9995 0)
(0.156271 19.9995 0)
(0.156337 19.9995 0)
(0.156402 19.9995 0)
(0.156468 19.9995 0)
(0.156533 19.9995 0)
(0.156598 19.9995 0)
(0.156663 19.9995 0)
(0.156729 19.9995 0)
(0.156794 19.9995 0)
(0.156859 19.9995 0)
(0.156924 19.9995 0)
(0.15699 19.9995 0)
(0.157055 19.9995 0)
(0.15712 19.9995 0)
(0.157185 19.9995 0)
(0.15725 19.9995 0)
(0.157315 19.9995 0)
(0.157381 19.9995 0)
(0.157446 19.9995 0)
(0.157511 19.9995 0)
(0.157576 19.9995 0)
(0.157641 19.9995 0)
(0.157706 19.9995 0)
(0.157771 19.9995 0)
(0.157836 19.9995 0)
(0.157901 19.9995 0)
(0.157966 19.9995 0)
(0.158031 19.9995 0)
(0.158096 19.9995 0)
(0.158161 19.9995 0)
(0.158225 19.9995 0)
(0.15829 19.9995 0)
(0.158355 19.9995 0)
(0.15842 19.9995 0)
(0.158485 19.9995 0)
(0.15855 19.9995 0)
(0.158614 19.9995 0)
(0.158679 19.9995 0)
(0.158744 19.9995 0)
(0.158809 19.9995 0)
(0.158873 19.9995 0)
(0.158938 19.9995 0)
(0.159003 19.9995 0)
(0.159068 19.9995 0)
(0.159132 19.9995 0)
(0.159197 19.9995 0)
(0.159262 19.9995 0)
(0.159326 19.9995 0)
(0.159391 19.9995 0)
(0.159455 19.9995 0)
(0.15952 19.9995 0)
(0.159584 19.9995 0)
(0.159649 19.9995 0)
(0.159714 19.9995 0)
(0.159778 19.9995 0)
(0.159843 19.9995 0)
(0.159907 19.9995 0)
(0.159971 19.9995 0)
(0.160036 19.9995 0)
(0.1601 19.9995 0)
(0.160165 19.9995 0)
(0.160229 19.9995 0)
(0.160294 19.9995 0)
(0.160358 19.9995 0)
(0.160422 19.9995 0)
(0.160487 19.9995 0)
(0.160551 19.9995 0)
(0.160615 19.9995 0)
(0.16068 19.9995 0)
(0.160744 19.9995 0)
(0.160808 19.9995 0)
(0.160872 19.9995 0)
(0.160937 19.9995 0)
(0.161001 19.9995 0)
(0.161065 19.9995 0)
(0.161129 19.9995 0)
(0.161193 19.9995 0)
(0.161258 19.9995 0)
(0.161322 19.9995 0)
(0.161386 19.9995 0)
(0.16145 19.9995 0)
(0.161514 19.9995 0)
(0.161578 19.9995 0)
(0.161642 19.9995 0)
(0.161706 19.9995 0)
(0.16177 19.9995 0)
(0.161834 19.9995 0)
(0.161898 19.9995 0)
(0.161962 19.9995 0)
(0.162026 19.9995 0)
(0.16209 19.9995 0)
(0.162154 19.9995 0)
(0.162218 19.9995 0)
(0.162282 19.9995 0)
(0.162346 19.9995 0)
(0.16241 19.9995 0)
(0.162474 19.9995 0)
(0.162538 19.9995 0)
(0.162602 19.9995 0)
(0.162666 19.9995 0)
(0.162729 19.9995 0)
(0.162793 19.9995 0)
(0.162857 19.9995 0)
(0.162921 19.9995 0)
(0.162985 19.9995 0)
(0.163048 19.9995 0)
(0.163112 19.9995 0)
(0.163176 19.9995 0)
(0.16324 19.9995 0)
(0.163303 19.9995 0)
(0.163367 19.9995 0)
(0.163431 19.9995 0)
(0.163494 19.9995 0)
(0.163558 19.9995 0)
(0.163622 19.9995 0)
(0.163685 19.9995 0)
(0.163749 19.9995 0)
(0.163813 19.9995 0)
(0.163876 19.9995 0)
(0.16394 19.9995 0)
(0.164003 19.9995 0)
(0.164067 19.9995 0)
(0.164131 19.9995 0)
(0.164194 19.9995 0)
(0.164258 19.9995 0)
(0.164321 19.9995 0)
(0.164385 19.9995 0)
(0.164448 19.9995 0)
(0.164512 19.9995 0)
(0.164575 19.9995 0)
(0.164639 19.9995 0)
(0.164702 19.9995 0)
(0.164765 19.9995 0)
(0.164829 19.9995 0)
(0.164892 19.9995 0)
(0.164956 19.9995 0)
(0.165019 19.9995 0)
(0.165082 19.9995 0)
(0.165146 19.9995 0)
(0.165209 19.9995 0)
(0.165272 19.9995 0)
(0.165336 19.9995 0)
(0.165399 19.9995 0)
(0.165462 19.9995 0)
(0.165526 19.9995 0)
(0.165589 19.9995 0)
(0.165652 19.9995 0)
(0.165715 19.9995 0)
(0.165779 19.9995 0)
(0.165842 19.9995 0)
(0.165905 19.9995 0)
(0.165968 19.9995 0)
(0.166031 19.9995 0)
(0.166095 19.9995 0)
(0.166158 19.9995 0)
(0.166221 19.9995 0)
(0.166284 19.9995 0)
(0.166347 19.9995 0)
(0.16641 19.9995 0)
(0.166473 19.9995 0)
(0.166536 19.9995 0)
(0.1666 19.9995 0)
(0.166663 19.9995 0)
(0.166726 19.9995 0)
(0.166789 19.9995 0)
(0.166852 19.9995 0)
(0.166915 19.9995 0)
(0.166978 19.9995 0)
(0.167041 19.9995 0)
(0.167104 19.9995 0)
(0.167167 19.9995 0)
(0.16723 19.9995 0)
(0.167293 19.9995 0)
(0.167356 19.9995 0)
(0.167419 19.9995 0)
(0.167482 19.9995 0)
(0.167545 19.9995 0)
(0.167608 19.9995 0)
(0.16767 19.9995 0)
(0.167733 19.9995 0)
(0.167796 19.9995 0)
(0.167859 19.9995 0)
(0.167922 19.9995 0)
(0.167985 19.9995 0)
(0.168048 19.9995 0)
(0.168111 19.9995 0)
(0.168173 19.9995 0)
(0.168236 19.9995 0)
(0.168299 19.9995 0)
(0.168362 19.9995 0)
(0.168425 19.9995 0)
(0.168487 19.9995 0)
(0.16855 19.9995 0)
(0.168613 19.9995 0)
(0.168676 19.9995 0)
(0.168739 19.9995 0)
(0.168801 19.9995 0)
(0.168864 19.9995 0)
(0.168927 19.9995 0)
(0.168989 19.9995 0)
(0.169052 19.9995 0)
(0.169115 19.9995 0)
(0.169178 19.9995 0)
(0.16924 19.9995 0)
(0.169303 19.9995 0)
(0.169366 19.9995 0)
(0.169428 19.9995 0)
(0.169491 19.9995 0)
(0.169554 19.9995 0)
(0.169616 19.9995 0)
(0.169679 19.9995 0)
(0.169741 19.9995 0)
(0.169804 19.9995 0)
(0.169867 19.9995 0)
(0.169929 19.9995 0)
(0.169992 19.9995 0)
(0.170054 19.9995 0)
(0.170117 19.9995 0)
(0.170179 19.9995 0)
(0.170242 19.9995 0)
(0.170305 19.9995 0)
(0.170367 19.9995 0)
(0.17043 19.9995 0)
(0.170492 19.9995 0)
(0.170555 19.9995 0)
(0.170617 19.9995 0)
(0.17068 19.9995 0)
(0.170742 19.9995 0)
(0.170805 19.9995 0)
(0.170867 19.9995 0)
(0.17093 19.9995 0)
(0.170992 19.9995 0)
(0.171055 19.9995 0)
(0.171117 19.9995 0)
(0.17118 19.9995 0)
(0.171242 19.9995 0)
(0.171305 19.9995 0)
(0.171367 19.9995 0)
(0.17143 19.9995 0)
(0.171492 19.9995 0)
(0.171555 19.9995 0)
(0.171617 19.9995 0)
(0.171679 19.9995 0)
(0.171742 19.9995 0)
(0.171804 19.9995 0)
(0.171867 19.9995 0)
(0.171929 19.9995 0)
(0.171992 19.9995 0)
(0.172054 19.9995 0)
(0.172117 19.9995 0)
(0.172179 19.9995 0)
(0.172242 19.9995 0)
(0.172304 19.9995 0)
(0.172367 19.9995 0)
(0.172429 19.9995 0)
(0.172492 19.9995 0)
(0.172554 19.9995 0)
(0.172617 19.9995 0)
(0.172679 19.9995 0)
(0.172742 19.9995 0)
(0.172804 19.9995 0)
(0.172867 19.9995 0)
(0.172929 19.9995 0)
(0.172992 19.9995 0)
(0.173055 19.9995 0)
(0.173117 19.9995 0)
(0.17318 19.9995 0)
(0.173243 19.9995 0)
(0.173305 19.9995 0)
(0.173368 19.9995 0)
(0.173431 19.9995 0)
(0.173494 19.9995 0)
(0.173557 19.9995 0)
(0.17362 19.9995 0)
(0.173682 19.9995 0)
(0.173745 19.9995 0)
(0.173808 19.9995 0)
(0.173872 19.9995 0)
(0.173935 19.9995 0)
(0.173998 19.9995 0)
(0.174061 19.9995 0)
(0.174125 19.9995 0)
(0.174188 19.9995 0)
(0.174252 19.9995 0)
(0.174315 19.9995 0)
(0.174379 19.9995 0)
(0.174443 19.9995 0)
(0.174507 19.9995 0)
(0.174571 19.9995 0)
(0.174635 19.9995 0)
(0.174699 19.9995 0)
(0.174764 19.9995 0)
(0.174829 19.9995 0)
(0.174893 19.9995 0)
(0.174958 19.9995 0)
(0.175024 19.9995 0)
(0.175089 19.9995 0)
(0.175155 19.9995 0)
(0.175221 19.9995 0)
(0.175287 19.9995 0)
(0.175354 19.9995 0)
(0.175421 19.9995 0)
(0.175488 19.9995 0)
(0.175555 19.9995 0)
(0.175623 19.9995 0)
(0.175692 19.9995 0)
(0.175761 19.9995 0)
(0.17583 19.9995 0)
(0.1759 19.9995 0)
(0.175971 19.9995 0)
(0.176042 19.9995 0)
(0.176114 19.9995 0)
(0.176186 19.9995 0)
(0.17626 19.9995 0)
(0.176334 19.9995 0)
(0.17641 19.9995 0)
(0.176486 19.9995 0)
(0.176564 19.9995 0)
(0.176643 19.9995 0)
(0.176723 19.9995 0)
(0.176806 19.9995 0)
(0.17689 19.9995 0)
(0.176976 19.9995 0)
(0.177064 19.9995 0)
(0.177156 19.9995 0)
(0.177251 19.9994 0)
(0.177351 19.9994 0)
(0.177456 19.9994 0)
(0.177567 19.9994 0)
(0.177683 19.9994 0)
(0.177806 19.9994 0)
(0.177934 19.9994 0)
(0.178045 19.9994 0)
(0.231736 20.0365 0)
(0.245756 20.0409 0)
(0.262922 20.0578 0)
(0.275247 20.0643 0)
(0.282105 20.0629 0)
(0.284953 20.0579 0)
(0.28519 20.0514 0)
(0.283833 20.0447 0)
(0.281573 20.0383 0)
(0.278864 20.0326 0)
(0.275995 20.0276 0)
(0.273146 20.0233 0)
(0.270421 20.0197 0)
(0.267878 20.0166 0)
(0.265542 20.0141 0)
(0.263418 20.0121 0)
(0.261501 20.0103 0)
(0.259778 20.0089 0)
(0.258234 20.0077 0)
(0.256851 20.0066 0)
(0.255615 20.0058 0)
(0.254508 20.005 0)
(0.253518 20.0044 0)
(0.252633 20.0038 0)
(0.25184 20.0033 0)
(0.251131 20.0029 0)
(0.250497 20.0025 0)
(0.24993 20.0021 0)
(0.249423 20.0018 0)
(0.248972 20.0016 0)
(0.248569 20.0013 0)
(0.248211 20.0011 0)
(0.247894 20.0009 0)
(0.247614 20.0007 0)
(0.247367 20.0005 0)
(0.247151 20.0004 0)
(0.246963 20.0003 0)
(0.246801 20.0001 0)
(0.246662 20 0)
(0.246545 19.9999 0)
(0.246448 19.9998 0)
(0.246369 19.9997 0)
(0.246307 19.9996 0)
(0.24626 19.9996 0)
(0.246227 19.9995 0)
(0.246208 19.9994 0)
(0.246201 19.9994 0)
(0.246205 19.9993 0)
(0.246219 19.9993 0)
(0.246243 19.9992 0)
(0.246276 19.9992 0)
(0.246317 19.9991 0)
(0.246366 19.9991 0)
(0.246422 19.999 0)
(0.246484 19.999 0)
(0.246553 19.999 0)
(0.246627 19.999 0)
(0.246706 19.9989 0)
(0.24679 19.9989 0)
(0.246878 19.9989 0)
(0.246971 19.9989 0)
(0.247067 19.9988 0)
(0.247167 19.9988 0)
(0.247271 19.9988 0)
(0.247377 19.9988 0)
(0.247486 19.9988 0)
(0.247598 19.9988 0)
(0.247712 19.9987 0)
(0.247829 19.9987 0)
(0.247948 19.9987 0)
(0.248069 19.9987 0)
(0.248192 19.9987 0)
(0.248317 19.9987 0)
(0.248444 19.9987 0)
(0.248573 19.9987 0)
(0.248703 19.9987 0)
(0.248835 19.9987 0)
(0.248969 19.9987 0)
(0.249104 19.9987 0)
(0.24924 19.9987 0)
(0.249377 19.9987 0)
(0.249516 19.9987 0)
(0.249655 19.9987 0)
(0.249795 19.9987 0)
(0.249936 19.9987 0)
(0.250078 19.9987 0)
(0.25022 19.9987 0)
(0.250363 19.9987 0)
(0.250506 19.9987 0)
(0.25065 19.9987 0)
(0.250794 19.9987 0)
(0.250939 19.9987 0)
(0.251084 19.9987 0)
(0.251229 19.9987 0)
(0.251374 19.9987 0)
(0.25152 19.9987 0)
(0.251666 19.9987 0)
(0.251812 19.9987 0)
(0.251958 19.9987 0)
(0.252105 19.9987 0)
(0.252251 19.9987 0)
(0.252398 19.9987 0)
(0.252545 19.9987 0)
(0.252692 19.9987 0)
(0.25284 19.9987 0)
(0.252987 19.9987 0)
(0.253134 19.9987 0)
(0.253282 19.9987 0)
(0.25343 19.9987 0)
(0.253577 19.9987 0)
(0.253725 19.9987 0)
(0.253873 19.9987 0)
(0.254022 19.9987 0)
(0.25417 19.9987 0)
(0.254318 19.9987 0)
(0.254467 19.9987 0)
(0.254615 19.9987 0)
(0.254764 19.9987 0)
(0.254913 19.9987 0)
(0.255062 19.9987 0)
(0.255211 19.9987 0)
(0.25536 19.9987 0)
(0.25551 19.9987 0)
(0.255659 19.9987 0)
(0.255808 19.9987 0)
(0.255957 19.9987 0)
(0.256107 19.9987 0)
(0.256256 19.9987 0)
(0.256405 19.9987 0)
(0.256554 19.9987 0)
(0.256704 19.9987 0)
(0.256853 19.9987 0)
(0.257002 19.9987 0)
(0.257151 19.9987 0)
(0.2573 19.9987 0)
(0.257449 19.9987 0)
(0.257598 19.9987 0)
(0.257748 19.9987 0)
(0.257897 19.9987 0)
(0.258046 19.9987 0)
(0.258195 19.9987 0)
(0.258344 19.9987 0)
(0.258493 19.9987 0)
(0.258642 19.9987 0)
(0.258791 19.9987 0)
(0.258941 19.9987 0)
(0.25909 19.9987 0)
(0.259239 19.9987 0)
(0.259388 19.9987 0)
(0.259538 19.9987 0)
(0.259687 19.9987 0)
(0.259836 19.9987 0)
(0.259986 19.9987 0)
(0.260135 19.9987 0)
(0.260285 19.9987 0)
(0.260434 19.9987 0)
(0.260584 19.9987 0)
(0.260733 19.9987 0)
(0.260883 19.9987 0)
(0.261032 19.9987 0)
(0.261182 19.9987 0)
(0.261331 19.9987 0)
(0.261481 19.9987 0)
(0.26163 19.9987 0)
(0.26178 19.9987 0)
(0.261929 19.9987 0)
(0.262079 19.9987 0)
(0.262228 19.9987 0)
(0.262378 19.9987 0)
(0.262527 19.9987 0)
(0.262677 19.9987 0)
(0.262826 19.9987 0)
(0.262975 19.9987 0)
(0.263125 19.9987 0)
(0.263274 19.9987 0)
(0.263424 19.9987 0)
(0.263573 19.9987 0)
(0.263722 19.9987 0)
(0.263872 19.9987 0)
(0.264021 19.9987 0)
(0.26417 19.9987 0)
(0.26432 19.9987 0)
(0.264469 19.9987 0)
(0.264619 19.9987 0)
(0.264768 19.9987 0)
(0.264917 19.9987 0)
(0.265067 19.9987 0)
(0.265216 19.9987 0)
(0.265366 19.9987 0)
(0.265515 19.9987 0)
(0.265665 19.9987 0)
(0.265814 19.9987 0)
(0.265964 19.9987 0)
(0.266113 19.9987 0)
(0.266263 19.9987 0)
(0.266412 19.9987 0)
(0.266562 19.9987 0)
(0.266711 19.9987 0)
(0.266861 19.9987 0)
(0.26701 19.9987 0)
(0.26716 19.9987 0)
(0.26731 19.9987 0)
(0.267459 19.9987 0)
(0.267609 19.9987 0)
(0.267758 19.9987 0)
(0.267908 19.9987 0)
(0.268057 19.9987 0)
(0.268207 19.9987 0)
(0.268356 19.9987 0)
(0.268506 19.9987 0)
(0.268655 19.9987 0)
(0.268805 19.9987 0)
(0.268954 19.9987 0)
(0.269104 19.9987 0)
(0.269254 19.9987 0)
(0.269403 19.9987 0)
(0.269553 19.9987 0)
(0.269702 19.9987 0)
(0.269852 19.9987 0)
(0.270001 19.9987 0)
(0.270151 19.9987 0)
(0.2703 19.9987 0)
(0.27045 19.9987 0)
(0.2706 19.9987 0)
(0.270749 19.9987 0)
(0.270899 19.9987 0)
(0.271048 19.9987 0)
(0.271198 19.9987 0)
(0.271347 19.9987 0)
(0.271497 19.9987 0)
(0.271646 19.9987 0)
(0.271796 19.9987 0)
(0.271945 19.9987 0)
(0.272095 19.9987 0)
(0.272244 19.9987 0)
(0.272394 19.9987 0)
(0.272544 19.9987 0)
(0.272693 19.9987 0)
(0.272843 19.9987 0)
(0.272992 19.9987 0)
(0.273142 19.9987 0)
(0.273291 19.9987 0)
(0.273441 19.9987 0)
(0.27359 19.9987 0)
(0.27374 19.9987 0)
(0.27389 19.9987 0)
(0.274039 19.9987 0)
(0.274189 19.9987 0)
(0.274338 19.9987 0)
(0.274488 19.9987 0)
(0.274638 19.9987 0)
(0.274787 19.9987 0)
(0.274937 19.9987 0)
(0.275086 19.9987 0)
(0.275236 19.9987 0)
(0.275386 19.9987 0)
(0.275535 19.9987 0)
(0.275685 19.9987 0)
(0.275835 19.9987 0)
(0.275984 19.9987 0)
(0.276134 19.9987 0)
(0.276283 19.9987 0)
(0.276433 19.9987 0)
(0.276583 19.9987 0)
(0.276732 19.9987 0)
(0.276882 19.9987 0)
(0.277032 19.9987 0)
(0.277181 19.9987 0)
(0.277331 19.9987 0)
(0.277481 19.9987 0)
(0.27763 19.9987 0)
(0.27778 19.9987 0)
(0.277929 19.9987 0)
(0.278079 19.9987 0)
(0.278229 19.9987 0)
(0.278378 19.9987 0)
(0.278528 19.9987 0)
(0.278678 19.9987 0)
(0.278827 19.9987 0)
(0.278977 19.9987 0)
(0.279127 19.9987 0)
(0.279276 19.9987 0)
(0.279426 19.9987 0)
(0.279576 19.9987 0)
(0.279725 19.9987 0)
(0.279875 19.9987 0)
(0.280024 19.9987 0)
(0.280174 19.9987 0)
(0.280324 19.9987 0)
(0.280473 19.9987 0)
(0.280623 19.9987 0)
(0.280773 19.9987 0)
(0.280922 19.9987 0)
(0.281072 19.9987 0)
(0.281222 19.9987 0)
(0.281371 19.9987 0)
(0.281521 19.9987 0)
(0.281671 19.9987 0)
(0.28182 19.9987 0)
(0.28197 19.9987 0)
(0.28212 19.9987 0)
(0.282269 19.9987 0)
(0.282419 19.9987 0)
(0.282568 19.9987 0)
(0.282718 19.9987 0)
(0.282868 19.9987 0)
(0.283017 19.9987 0)
(0.283167 19.9987 0)
(0.283317 19.9987 0)
(0.283466 19.9987 0)
(0.283616 19.9987 0)
(0.283765 19.9987 0)
(0.283915 19.9987 0)
(0.284065 19.9987 0)
(0.284214 19.9987 0)
(0.284364 19.9987 0)
(0.284513 19.9987 0)
(0.284663 19.9987 0)
(0.284813 19.9987 0)
(0.284962 19.9987 0)
(0.285112 19.9987 0)
(0.285262 19.9987 0)
(0.285411 19.9987 0)
(0.285561 19.9987 0)
(0.28571 19.9987 0)
(0.28586 19.9987 0)
(0.28601 19.9987 0)
(0.286159 19.9987 0)
(0.286309 19.9987 0)
(0.286458 19.9987 0)
(0.286608 19.9987 0)
(0.286757 19.9987 0)
(0.286907 19.9987 0)
(0.287057 19.9987 0)
(0.287206 19.9987 0)
(0.287356 19.9987 0)
(0.287505 19.9987 0)
(0.287655 19.9987 0)
(0.287804 19.9987 0)
(0.287954 19.9987 0)
(0.288104 19.9987 0)
(0.288253 19.9987 0)
(0.288403 19.9987 0)
(0.288552 19.9987 0)
(0.288702 19.9987 0)
(0.288851 19.9987 0)
(0.289001 19.9987 0)
(0.289151 19.9987 0)
(0.2893 19.9987 0)
(0.28945 19.9987 0)
(0.289599 19.9987 0)
(0.289749 19.9987 0)
(0.289898 19.9987 0)
(0.290048 19.9987 0)
(0.290197 19.9987 0)
(0.290347 19.9987 0)
(0.290496 19.9987 0)
(0.290646 19.9987 0)
(0.290795 19.9987 0)
(0.290945 19.9987 0)
(0.291095 19.9987 0)
(0.291244 19.9987 0)
(0.291394 19.9987 0)
(0.291543 19.9987 0)
(0.291693 19.9987 0)
(0.291842 19.9987 0)
(0.291992 19.9987 0)
(0.292141 19.9987 0)
(0.292291 19.9987 0)
(0.29244 19.9987 0)
(0.29259 19.9987 0)
(0.292739 19.9987 0)
(0.292889 19.9987 0)
(0.293038 19.9987 0)
(0.293188 19.9987 0)
(0.293337 19.9987 0)
(0.293487 19.9987 0)
(0.293636 19.9987 0)
(0.293786 19.9987 0)
(0.293935 19.9987 0)
(0.294085 19.9987 0)
(0.294234 19.9987 0)
(0.294384 19.9987 0)
(0.294533 19.9987 0)
(0.294683 19.9987 0)
(0.294832 19.9987 0)
(0.294981 19.9987 0)
(0.295131 19.9987 0)
(0.29528 19.9987 0)
(0.29543 19.9987 0)
(0.295579 19.9987 0)
(0.295729 19.9987 0)
(0.295878 19.9987 0)
(0.296028 19.9987 0)