/*--------------------------------*- C++ -*----------------------------------*\
| =========                 |                                                 |
| \\      /  F ield         | OpenFOAM: The Open Source CFD Toolbox           |
|  \\    /   O peration     | Version:  2512                                  |
|   \\  /    A nd           | Website:  www.openfoam.com                      |
|    \\/     M anipulation  |                                                 |
\*---------------------------------------------------------------------------*/
FoamFile
{
    version     2.0;
    format      ascii;
    arch        "LSB;label=32;scalar=64";
    class       volScalarField;
    location    "0.005";
    object      k;
}
// * * * * * * * * * * * * * * * * * * * * * * * * * * * * * * * * * * * * * //

dimensions      [0 2 -2 0 0 0 0];

internalField   nonuniform List<scalar> 
100000
(
0.113736
0.0222994
0.00918198
0.00501492
0.00324113
0.00234575
0.00184014
0.00153206
0.00133252
0.00119641
0.00109944
0.00102778
0.000973135
0.00093031
0.000895958
0.000867849
0.000844458
0.000824721
0.000807874
0.000793358
0.000780754
0.000769742
0.000760072
0.000751544
0.000743999
0.000737304
0.000731352
0.000726052
0.000721327
0.000717111
0.00071335
0.000709995
0.000707004
0.000704342
0.000701976
0.000699879
0.000698026
0.000696395
0.000694967
0.000693723
0.000692649
0.00069173
0.000690954
0.000690308
0.000689782
0.000689367
0.000689055
0.000688836
0.000688705
0.000688654
0.000688678
0.000688771
0.000688928
0.000689144
0.000689415
0.000689737
0.000690107
0.000690521
0.000690976
0.00069147
0.000691999
0.000692561
0.000693154
0.000693776
0.000694425
0.000695098
0.000695794
0.000696511
0.000697247
0.000698001
0.00069877
0.000699553
0.000700349
0.000701155
0.000701971
0.000702794
0.000703624
0.00070446
0.000705301
0.000706146
0.000706996
0.000707849
0.000708706
0.000709566
0.000710429
0.000711296
0.000712165
0.000713038
0.000713914
0.000714792
0.000715674
0.000716558
0.000717445
0.000718334
0.000719225
0.000720119
0.000721016
0.000721914
0.000722815
0.000723718
0.000724623
0.00072553
0.000726439
0.00072735
0.000728264
0.000729179
0.000730096
0.000731015
0.000731936
0.000732859
0.000733783
0.000734708
0.000735634
0.000736561
0.000737488
0.000738415
0.000739342
0.000740268
0.000741194
0.000742118
0.000743042
0.000743965
0.000744887
0.000745809
0.00074673
0.00074765
0.000748569
0.000749488
0.000750407
0.000751326
0.000752244
0.000753162
0.000754081
0.000754999
0.000755917
0.000756836
0.000757754
0.000758673
0.000759593
0.000760512
0.000761432
0.000762352
0.000763273
0.000764194
0.000765115
0.000766037
0.000766959
0.000767881
0.000768803
0.000769725
0.000770647
0.000771569
0.000772491
0.000773412
0.000774333
0.000775254
0.000776174
0.000777094
0.000778014
0.000778933
0.000779852
0.00078077
0.000781688
0.000782606
0.000783524
0.000784441
0.000785358
0.000786274
0.000787191
0.000788107
0.000789023
0.000789938
0.000790854
0.000791769
0.000792684
0.000793598
0.000794513
0.000795427
0.000796341
0.000797254
0.000798167
0.000799079
0.000799991
0.000800903
0.000801814
0.000802724
0.000803634
0.000804543
0.000805452
0.00080636
0.000807268
0.000808175
0.000809083
0.000809989
0.000810896
0.000811802
0.000812707
0.000813613
0.000814518
0.000815423
0.000816328
0.000817233
0.000818137
0.00081904
0.000819944
0.000820846
0.000821749
0.000822651
0.000823552
0.000824453
0.000825353
0.000826253
0.000827151
0.00082805
0.000828947
0.000829844
0.00083074
0.000831635
0.000832529
0.000833423
0.000834316
0.000835208
0.000836099
0.00083699
0.00083788
0.000838769
0.000839658
0.000840546
0.000841433
0.00084232
0.000843206
0.000844091
0.000844976
0.00084586
0.000846743
0.000847626
0.000848507
0.000849389
0.000850269
0.000851149
0.000852028
0.000852906
0.000853784
0.000854661
0.000855537
0.000856412
0.000857286
0.00085816
0.000859033
0.000859905
0.000860777
0.000861647
0.000862517
0.000863386
0.000864254
0.000865121
0.000865988
0.000866853
0.000867718
0.000868582
0.000869445
0.000870307
0.000871168
0.000872028
0.000872888
0.000873746
0.000874604
0.00087546
0.000876316
0.000877171
0.000878024
0.000878877
0.000879729
0.000880579
0.000881429
0.000882278
0.000883126
0.000883973
0.000884818
0.000885663
0.000886507
0.00088735
0.000888191
0.000889032
0.000889872
0.00089071
0.000891548
0.000892384
0.00089322
0.000894054
0.000894887
0.000895719
0.00089655
0.00089738
0.000898209
0.000899036
0.000899863
0.000900688
0.000901512
0.000902335
0.000903157
0.000903978
0.000904797
0.000905616
0.000906433
0.000907249
0.000908064
0.000908877
0.00090969
0.000910501
0.000911311
0.000912119
0.000912927
0.000913733
0.000914538
0.000915342
0.000916144
0.000916946
0.000917746
0.000918544
0.000919342
0.000920138
0.000920933
0.000921726
0.000922518
0.000923309
0.000924099
0.000924887
0.000925674
0.00092646
0.000927244
0.000928027
0.000928809
0.000929589
0.000930368
0.000931146
0.000931922
0.000932697
0.00093347
0.000934242
0.000935013
0.000935782
0.00093655
0.000937317
0.000938082
0.000938846
0.000939608
0.000940369
0.000941128
0.000941886
0.000942643
0.000943398
0.000944151
0.000944904
0.000945654
0.000946404
0.000947151
0.000947898
0.000948642
0.000949386
0.000950128
0.000950868
0.000951607
0.000952344
0.00095308
0.000953814
0.000954547
0.000955279
0.000956008
0.000956736
0.000957463
0.000958188
0.000958912
0.000959634
0.000960354
0.000961073
0.000961791
0.000962506
0.000963221
0.000963933
0.000964644
0.000965354
0.000966062
0.000966768
0.000967472
0.000968175
0.000968877
0.000969577
0.000970275
0.000970971
0.000971666
0.00097236
0.000973051
0.000973741
0.00097443
0.000975116
0.000975801
0.000976485
0.000977167
0.000977847
0.000978525
0.000979202
0.000979877
0.00098055
0.000981222
0.000981892
0.00098256
0.000983226
0.000983891
0.000984554
0.000985216
0.000985876
0.000986533
0.00098719
0.000987844
0.000988497
0.000989148
0.000989797
0.000990445
0.000991091
0.000991735
0.000992377
0.000993018
0.000993657
0.000994294
0.000994929
0.000995562
0.000996194
0.000996824
0.000997452
0.000998078
0.000998703
0.000999326
0.000999947
0.00100057
0.00100118
0.0010018
0.00100241
0.00100302
0.00100363
0.00100424
0.00100485
0.00100545
0.00100606
0.00100666
0.00100726
0.00100785
0.00100845
0.00100904
0.00100963
0.00101022
0.00101081
0.0010114
0.00101198
0.00101257
0.00101315
0.00101373
0.0010143
0.00101488
0.00101545
0.00101602
0.00101659
0.00101716
0.00101772
0.00101829
0.00101885
0.00101941
0.00101997
0.00102052
0.00102108
0.00102163
0.00102218
0.00102273
0.00102327
0.00102382
0.00102436
0.0010249
0.00102544
0.00102598
0.00102651
0.00102705
0.00102758
0.00102811
0.00102863
0.00102916
0.00102968
0.0010302
0.00103072
0.00103124
0.00103176
0.00103227
0.00103278
0.00103329
0.0010338
0.00103431
0.00103481
0.00103531
0.00103581
0.00103631
0.00103681
0.0010373
0.00103779
0.00103828
0.00103877
0.00103926
0.00103974
0.00104022
0.0010407
0.00104118
0.00104166
0.00104213
0.0010426
0.00104307
0.00104354
0.00104401
0.00104447
0.00104494
0.0010454
0.00104585
0.00104631
0.00104677
0.00104722
0.00104767
0.00104812
0.00104856
0.00104901
0.00104945
0.00104989
0.00105033
0.00105076
0.0010512
0.00105163
0.00105206
0.00105249
0.00105292
0.00105334
0.00105376
0.00105418
0.0010546
0.00105502
0.00105543
0.00105585
0.00105626
0.00105666
0.00105707
0.00105747
0.00105788
0.00105828
0.00105867
0.00105907
0.00105947
0.00105986
0.00106025
0.00106064
0.00106102
0.00106141
0.00106179
0.00106217
0.00106255
0.00106292
0.0010633
0.00106367
0.00106404
0.00106441
0.00106477
0.00106514
0.0010655
0.00106586
0.00106622
0.00106657
0.00106693
0.00106728
0.00106763
0.00106798
0.00106832
0.00106867
0.00106901
0.00106935
0.00106968
0.00107002
0.00107035
0.00107069
0.00107102
0.00107134
0.00107167
0.00107199
0.00107231
0.00107263
0.00107295
0.00107327
0.00107358
0.00107389
0.0010742
0.00107451
0.00107482
0.00107512
0.00107542
0.00107572
0.00107602
0.00107632
0.00107661
0.0010769
0.00107719
0.00107748
0.00107776
0.00107805
0.00107833
0.00107861
0.00107889
0.00107916
0.00107944
0.00107971
0.00107998
0.00108025
0.00108051
0.00108078
0.00108104
0.0010813
0.00108156
0.00108182
0.00108207
0.00108232
0.00108257
0.00108282
0.00108307
0.00108331
0.00108355
0.00108379
0.00108403
0.00108427
0.00108451
0.00108474
0.00108497
0.0010852
0.00108542
0.00108565
0.00108587
0.00108609
0.00108631
0.00108653
0.00108675
0.00108696
0.00108717
0.00108738
0.00108759
0.0010878
0.001088
0.0010882
0.0010884
0.0010886
0.0010888
0.00108899
0.00108918
0.00108937
0.00108956
0.00108975
0.00108993
0.00109012
0.0010903
0.00109048
0.00109066
0.00109083
0.00109101
0.00109118
0.00109135
0.00109152
0.00109168
0.00109185
0.00109201
0.00109217
0.00109233
0.00109249
0.00109264
0.0010928
0.00109295
0.0010931
0.00109324
0.00109339
0.00109354
0.00109368
0.00109382
0.00109396
0.00109409
0.00109423
0.00109436
0.0010945
0.00109463
0.00109475
0.00109488
0.001095
0.00109513
0.00109525
0.00109537
0.00109549
0.0010956
0.00109572
0.00109583
0.00109594
0.00109605
0.00109615
0.00109626
0.00109636
0.00109646
0.00109656
0.00109666
0.00109676
0.00109685
0.00109695
0.00109704
0.00109713
0.00109722
0.0010973
0.00109739
0.00109747
0.00109755
0.00109763
0.00109771
0.00109779
0.00109786
0.00109793
0.00109801
0.00109807
0.00109814
0.00109821
0.00109827
0.00109834
0.0010984
0.00109846
0.00109852
0.00109857
0.00109863
0.00109868
0.00109873
0.00109878
0.00109883
0.00109888
0.00109892
0.00109897
0.00109901
0.00109905
0.00109909
0.00109913
0.00109916
0.0010992
0.00109923
0.00109926
0.00109929
0.00109932
0.00109934
0.00109937
0.00109939
0.00109942
0.00109944
0.00109945
0.00109947
0.00109949
0.0010995
0.00109952
0.00109953
0.00109954
0.00109955
0.00109955
0.00109956
0.00109956
0.00109956
0.00109957
0.00109957
0.00109956
0.00109956
0.00109956
0.00109955
0.00109954
0.00109953
0.00109952
0.00109951
0.0010995
0.00109948
0.00109947
0.00109945
0.00109943
0.00109941
0.00109939
0.00109937
0.00109934
0.00109932
0.00109929
0.00109926
0.00109923
0.0010992
0.00109917
0.00109914
0.0010991
0.00109907
0.00109903
0.00109899
0.00109895
0.00109891
0.00109887
0.00109882
0.00109878
0.00109873
0.00109868
0.00109864
0.00109859
0.00109853
0.00109848
0.00109843
0.00109837
0.00109832
0.00109826
0.0010982
0.00109814
0.00109808
0.00109802
0.00109795
0.00109789
0.00109782
0.00109776
0.00109769
0.00109762
0.00109755
0.00109748
0.0010974
0.00109733
0.00109726
0.00109718
0.0010971
0.00109702
0.00109694
0.00109686
0.00109678
0.0010967
0.00109662
0.00109653
0.00109644
0.00109636
0.00109627
0.00109618
0.00109609
0.001096
0.00109591
0.00109581
0.00109572
0.00109562
0.00109553
0.00109543
0.00109533
0.00109523
0.00109513
0.00109503
0.00109493
0.00109483
0.00109472
0.00109462
0.00109451
0.0010944
0.0010943
0.00109419
0.00109408
0.00109397
0.00109386
0.00109374
0.00109363
0.00109352
0.0010934
0.00109329
0.00109317
0.00109305
0.00109293
0.00109281
0.00109269
0.00109257
0.00109245
0.00109233
0.0010922
0.00109208
0.00109195
0.00109183
0.0010917
0.00109157
0.00109145
0.00109132
0.00109119
0.00109106
0.00109093
0.00109079
0.00109066
0.00109053
0.0010904
0.00109026
0.00109012
0.00108999
0.00108985
0.00108971
0.00108958
0.00108944
0.0010893
0.00108916
0.00108902
0.00108888
0.00108873
0.00108859
0.00108845
0.00108831
0.00108816
0.00108802
0.00108787
0.00108773
0.00108758
0.00108743
0.00108729
0.00108714
0.00108699
0.00108684
0.00108669
0.00108654
0.00108639
0.00108624
0.00108609
0.00108594
0.00108579
0.00108564
0.00108549
0.00108533
0.00108518
0.00108503
0.00108488
0.00108472
0.00108457
0.00108442
0.00108427
0.00108411
0.00108396
0.00108381
0.00108365
0.0010835
0.00108335
0.00108319
0.00108304
0.00108289
0.00108274
0.00108259
0.00108244
0.00108229
0.00108214
0.00108199
0.00108184
0.00108169
0.00108155
0.0010814
0.00108126
0.00108112
0.00108098
0.00108084
0.0010807
0.00108057
0.00108043
0.0010803
0.00108018
0.00108005
0.00107993
0.00107981
0.00107969
0.00107958
0.00107948
0.00107937
0.00107928
0.00107918
0.0010791
0.00107902
0.00107894
0.00107888
0.00107882
0.00107877
0.00107874
0.00107871
0.00107869
0.00107869
0.0010787
0.00107873
0.00107877
0.00107883
0.00107892
0.00107902
0.00107915
0.00107931
0.0010795
0.00107973
0.00108
0.00108032
0.0010807
0.00108116
0.00108172
0.00108241
0.0010833
0.00108445
0.00108597
0.00108804
0.0010914
0.00109658
0.299
0.0576785
0.0154612
0.00600567
0.00319904
0.00214914
0.00168902
0.00146571
0.00134973
0.00128643
0.00125044
0.00122913
0.00121594
0.00120734
0.00120141
0.00119708
0.00119375
0.00119108
0.00118887
0.00118699
0.00118537
0.00118396
0.00118272
0.00118163
0.00118066
0.0011798
0.00117904
0.00117837
0.00117776
0.00117723
0.00117675
0.00117633
0.00117596
0.00117563
0.00117534
0.00117508
0.00117486
0.00117467
0.0011745
0.00117436
0.00117425
0.00117415
0.00117407
0.00117401
0.00117397
0.00117394
0.00117393
0.00117393
0.00117394
0.00117396
0.00117399
0.00117403
0.00117408
0.00117414
0.00117421
0.00117428
0.00117436
0.00117444
0.00117453
0.00117463
0.00117473
0.00117484
0.00117495
0.00117506
0.00117518
0.0011753
0.00117542
0.00117555
0.00117568
0.00117581
0.00117594
0.00117607
0.00117621
0.00117634
0.00117648
0.00117662
0.00117676
0.0011769
0.00117704
0.00117718
0.00117732
0.00117746
0.00117761
0.00117775
0.00117789
0.00117804
0.00117818
0.00117833
0.00117847
0.00117862
0.00117877
0.00117892
0.00117906
0.00117921
0.00117936
0.00117951
0.00117966
0.00117981
0.00117996
0.00118011
0.00118027
0.00118042
0.00118057
0.00118072
0.00118088
0.00118103
0.00118118
0.00118134
0.00118149
0.00118164
0.0011818
0.00118195
0.00118211
0.00118226
0.00118242
0.00118257
0.00118273
0.00118288
0.00118303
0.00118319
0.00118334
0.0011835
0.00118365
0.0011838
0.00118396
0.00118411
0.00118426
0.00118442
0.00118457
0.00118472
0.00118488
0.00118503
0.00118519
0.00118534
0.00118549
0.00118565
0.0011858
0.00118596
0.00118611
0.00118626
0.00118642
0.00118657
0.00118673
0.00118688
0.00118704
0.00118719
0.00118735
0.0011875
0.00118766
0.00118781
0.00118797
0.00118812
0.00118827
0.00118843
0.00118858
0.00118874
0.00118889
0.00118905
0.0011892
0.00118936
0.00118951
0.00118966
0.00118982
0.00118997
0.00119013
0.00119028
0.00119044
0.00119059
0.00119074
0.0011909
0.00119105
0.00119121
0.00119136
0.00119152
0.00119167
0.00119182
0.00119198
0.00119213
0.00119229
0.00119244
0.00119259
0.00119275
0.0011929
0.00119306
0.00119321
0.00119336
0.00119352
0.00119367
0.00119382
0.00119398
0.00119413
0.00119428
0.00119444
0.00119459
0.00119474
0.0011949
0.00119505
0.0011952
0.00119535
0.00119551
0.00119566
0.00119581
0.00119597
0.00119612
0.00119627
0.00119643
0.00119658
0.00119673
0.00119688
0.00119704
0.00119719
0.00119734
0.00119749
0.00119765
0.0011978
0.00119795
0.0011981
0.00119825
0.00119841
0.00119856
0.00119871
0.00119886
0.00119901
0.00119916
0.00119931
0.00119946
0.00119962
0.00119977
0.00119992
0.00120007
0.00120022
0.00120037
0.00120052
0.00120067
0.00120082
0.00120097
0.00120112
0.00120127
0.00120142
0.00120157
0.00120172
0.00120187
0.00120202
0.00120217
0.00120232
0.00120247
0.00120262
0.00120277
0.00120291
0.00120306
0.00120321
0.00120336
0.00120351
0.00120366
0.00120381
0.00120395
0.0012041
0.00120425
0.0012044
0.00120455
0.00120469
0.00120484
0.00120499
0.00120514
0.00120528
0.00120543
0.00120558
0.00120572
0.00120587
0.00120602
0.00120616
0.00120631
0.00120646
0.0012066
0.00120675
0.00120689
0.00120704
0.00120718
0.00120733
0.00120747
0.00120762
0.00120776
0.00120791
0.00120805
0.0012082
0.00120834
0.00120849
0.00120863
0.00120877
0.00120892
0.00120906
0.0012092
0.00120935
0.00120949
0.00120963
0.00120977
0.00120992
0.00121006
0.0012102
0.00121034
0.00121049
0.00121063
0.00121077
0.00121091
0.00121105
0.00121119
0.00121133
0.00121147
0.00121161
0.00121175
0.00121189
0.00121203
0.00121217
0.00121231
0.00121245
0.00121259
0.00121273
0.00121287
0.00121301
0.00121315
0.00121329
0.00121342
0.00121356
0.0012137
0.00121384
0.00121398
0.00121411
0.00121425
0.00121439
0.00121452
0.00121466
0.0012148
0.00121493
0.00121507
0.0012152
0.00121534
0.00121547
0.00121561
0.00121575
0.00121588
0.00121601
0.00121615
0.00121628
0.00121642
0.00121655
0.00121668
0.00121682
0.00121695
0.00121708
0.00121722
0.00121735
0.00121748
0.00121761
0.00121774
0.00121788
0.00121801
0.00121814
0.00121827
0.0012184
0.00121853
0.00121866
0.00121879
0.00121892
0.00121905
0.00121918
0.00121931
0.00121944
0.00121957
0.0012197
0.00121982
0.00121995
0.00122008
0.00122021
0.00122034
0.00122046
0.00122059
0.00122072
0.00122084
0.00122097
0.00122109
0.00122122
0.00122135
0.00122147
0.0012216
0.00122172
0.00122185
0.00122197
0.00122209
0.00122222
0.00122234
0.00122247
0.00122259
0.00122271
0.00122283
0.00122296
0.00122308
0.0012232
0.00122332
0.00122344
0.00122357
0.00122369
0.00122381
0.00122393
0.00122405
0.00122417
0.00122429
0.00122441
0.00122453
0.00122465
0.00122476
0.00122488
0.001225
0.00122512
0.00122524
0.00122535
0.00122547
0.00122559
0.00122571
0.00122582
0.00122594
0.00122605
0.00122617
0.00122628
0.0012264
0.00122651
0.00122663
0.00122674
0.00122686
0.00122697
0.00122709
0.0012272
0.00122731
0.00122742
0.00122754
0.00122765
0.00122776
0.00122787
0.00122798
0.0012281
0.00122821
0.00122832
0.00122843
0.00122854
0.00122865
0.00122876
0.00122887
0.00122897
0.00122908
0.00122919
0.0012293
0.00122941
0.00122952
0.00122962
0.00122973
0.00122984
0.00122994
0.00123005
0.00123016
0.00123026
0.00123037
0.00123047
0.00123058
0.00123068
0.00123079
0.00123089
0.00123099
0.0012311
0.0012312
0.0012313
0.0012314
0.00123151
0.00123161
0.00123171
0.00123181
0.00123191
0.00123201
0.00123211
0.00123221
0.00123231
0.00123241
0.00123251
0.00123261
0.00123271
0.00123281
0.00123291
0.00123301
0.0012331
0.0012332
0.0012333
0.0012334
0.00123349
0.00123359
0.00123368
0.00123378
0.00123388
0.00123397
0.00123407
0.00123416
0.00123425
0.00123435
0.00123444
0.00123453
0.00123463
0.00123472
0.00123481
0.0012349
0.001235
0.00123509
0.00123518
0.00123527
0.00123536
0.00123545
0.00123554
0.00123563
0.00123572
0.00123581
0.0012359
0.00123599
0.00123607
0.00123616
0.00123625
0.00123634
0.00123642
0.00123651
0.0012366
0.00123668
0.00123677
0.00123686
0.00123694
0.00123703
0.00123711
0.00123719
0.00123728
0.00123736
0.00123745
0.00123753
0.00123761
0.00123769
0.00123778
0.00123786
0.00123794
0.00123802
0.0012381
0.00123818
0.00123826
0.00123834
0.00123842
0.0012385
0.00123858
0.00123866
0.00123874
0.00123882
0.0012389
0.00123897
0.00123905
0.00123913
0.00123921
0.00123928
0.00123936
0.00123943
0.00123951
0.00123959
0.00123966
0.00123974
0.00123981
0.00123988
0.00123996
0.00124003
0.0012401
0.00124018
0.00124025
0.00124032
0.00124039
0.00124047
0.00124054
0.00124061
0.00124068
0.00124075
0.00124082
0.00124089
0.00124096
0.00124103
0.0012411
0.00124117
0.00124123
0.0012413
0.00124137
0.00124144
0.0012415
0.00124157
0.00124164
0.0012417
0.00124177
0.00124184
0.0012419
0.00124197
0.00124203
0.0012421
0.00124216
0.00124222
0.00124229
0.00124235
0.00124241
0.00124248
0.00124254
0.0012426
0.00124266
0.00124272
0.00124279
0.00124285
0.00124291
0.00124297
0.00124303
0.00124309
0.00124315
0.00124321
0.00124327
0.00124332
0.00124338
0.00124344
0.0012435
0.00124356
0.00124361
0.00124367
0.00124373
0.00124378
0.00124384
0.00124389
0.00124395
0.001244
0.00124406
0.00124411
0.00124417
0.00124422
0.00124428
0.00124433
0.00124438
0.00124443
0.00124449
0.00124454
0.00124459
0.00124464
0.00124469
0.00124474
0.0012448
0.00124485
0.0012449
0.00124495
0.001245
0.00124505
0.00124509
0.00124514
0.00124519
0.00124524
0.00124529
0.00124534
0.00124538
0.00124543
0.00124548
0.00124552
0.00124557
0.00124562
0.00124566
0.00124571
0.00124575
0.0012458
0.00124584
0.00124589
0.00124593
0.00124597
0.00124602
0.00124606
0.0012461
0.00124615
0.00124619
0.00124623
0.00124627
0.00124631
0.00124636
0.0012464
0.00124644
0.00124648
0.00124652
0.00124656
0.0012466
0.00124664
0.00124668
0.00124672
0.00124675
0.00124679
0.00124683
0.00124687
0.00124691
0.00124694
0.00124698
0.00124702
0.00124705
0.00124709
0.00124713
0.00124716
0.0012472
0.00124723
0.00124727
0.0012473
0.00124734
0.00124737
0.00124741
0.00124744
0.00124747
0.00124751
0.00124754
0.00124757
0.0012476
0.00124764
0.00124767
0.0012477
0.00124773
0.00124776
0.00124779
0.00124782
0.00124786
0.00124789
0.00124792
0.00124795
0.00124797
0.001248
0.00124803
0.00124806
0.00124809
0.00124812
0.00124815
0.00124817
0.0012482
0.00124823
0.00124826
0.00124828
0.00124831
0.00124834
0.00124836
0.00124839
0.00124842
0.00124844
0.00124847
0.00124849
0.00124852
0.00124854
0.00124857
0.00124859
0.00124861
0.00124864
0.00124866
0.00124868
0.00124871
0.00124873
0.00124875
0.00124877
0.0012488
0.00124882
0.00124884
0.00124886
0.00124888
0.0012489
0.00124893
0.00124895
0.00124897
0.00124899
0.00124901
0.00124903
0.00124905
0.00124907
0.00124909
0.0012491
0.00124912
0.00124914
0.00124916
0.00124918
0.0012492
0.00124921
0.00124923
0.00124925
0.00124927
0.00124928
0.0012493
0.00124932
0.00124933
0.00124935
0.00124937
0.00124938
0.0012494
0.00124941
0.00124943
0.00124944
0.00124946
0.00124947
0.00124949
0.0012495
0.00124951
0.00124953
0.00124954
0.00124956
0.00124957
0.00124958
0.0012496
0.00124961
0.00124962
0.00124963
0.00124965
0.00124966
0.00124967
0.00124968
0.00124969
0.00124971
0.00124972
0.00124973
0.00124974
0.00124975
0.00124976
0.00124977
0.00124978
0.00124979
0.0012498
0.00124981
0.00124982
0.00124983
0.00124984
0.00124985
0.00124986
0.00124987
0.00124987
0.00124988
0.00124989
0.0012499
0.00124991
0.00124992
0.00124992
0.00124993
0.00124994
0.00124995
0.00124995
0.00124996
0.00124997
0.00124997
0.00124998
0.00124999
0.00124999
0.00125
0.00125001
0.00125001
0.00125002
0.00125002
0.00125003
0.00125003
0.00125004
0.00125004
0.00125005
0.00125005
0.00125006
0.00125006
0.00125007
0.00125007
0.00125008
0.00125008
0.00125008
0.00125009
0.00125009
0.0012501
0.0012501
0.0012501
0.00125011
0.00125011
0.00125011
0.00125011
0.00125012
0.00125012
0.00125012
0.00125012
0.00125013
0.00125013
0.00125013
0.00125013
0.00125014
0.00125014
0.00125014
0.00125014
0.00125014
0.00125014
0.00125015
0.00125015
0.00125015
0.00125015
0.00125015
0.00125015
0.00125015
0.00125015
0.00125015
0.00125015
0.00125015
0.00125015
0.00125015
0.00125015
0.00125015
0.00125016
0.00125016
0.00125016
0.00125015
0.00125015
0.00125015
0.00125015
0.00125015
0.00125015
0.00125015
0.00125015
0.00125015
0.00125015
0.00125015
0.00125015
0.00125015
0.00125015
0.00125015
0.00125015
0.00125015
0.00125014
0.00125014
0.00125014
0.00125014
0.00125014
0.00125014
0.00125014
0.00125014
0.00125014
0.00125014
0.00125014
0.00125013
0.00125013
0.00125013
0.00125013
0.00125013
0.00125013
0.00125013
0.00125013
0.00125013
0.00125013
0.00125013
0.00125013
0.00125013
0.00125013
0.00125013
0.00125013
0.00125013
0.00125013
0.00125014
0.00125014
0.00125014
0.00125014
0.00125014
0.00125015
0.00125015
0.00125016
0.00125016
0.00125016
0.00125017
0.00125018
0.00125018
0.00125019
0.0012502
0.00125021
0.00125022
0.00125023
0.00125024
0.00125026
0.00125027
0.00125029
0.00125031
0.00125033
0.00125035
0.00125037
0.0012504
0.00125042
0.00125045
0.00125049
0.00125052
0.00125056
0.0012506
0.00125065
0.0012507
0.00125076
0.00125082
0.00125089
0.00125096
0.00125104
0.00125113
0.00125123
0.00125134
0.00125147
0.00125163
0.00125183
0.00125208
0.00125244
0.00125297
0.00125364
0.527204
0.173592
0.0653166
0.0300719
0.0172106
0.0119534
0.00959847
0.00847351
0.00791434
0.00763094
0.00748693
0.00741468
0.00737954
0.00736344
0.00735688
0.00735496
0.00735515
0.0073562
0.0073575
0.00735881
0.00736
0.00736106
0.00736198
0.00736278
0.00736348
0.00736409
0.00736463
0.0073651
0.00736552
0.0073659
0.00736624
0.00736655
0.00736683
0.00736708
0.00736732
0.00736753
0.00736773
0.00736792
0.00736809
0.00736826
0.00736841
0.00736855
0.00736869
0.00736882
0.00736894
0.00736905
0.00736916
0.00736927
0.00736937
0.00736947
0.00736956
0.00736966
0.00736974
0.00736983
0.00736991
0.00736999
0.00737007
0.00737015
0.00737022
0.00737029
0.00737037
0.00737043
0.0073705
0.00737057
0.00737063
0.00737069
0.00737075
0.00737081
0.00737086
0.00737091
0.00737096
0.007371
0.00737104
0.00737108
0.00737112
0.00737115
0.00737119
0.00737122
0.00737125
0.00737128
0.00737131
0.00737134
0.00737137
0.00737141
0.00737144
0.00737148
0.00737151
0.00737155
0.00737159
0.00737163
0.00737167
0.0073717
0.00737174
0.00737179
0.00737183
0.00737187
0.00737191
0.00737195
0.007372
0.00737204
0.00737208
0.00737213
0.00737217
0.00737222
0.00737226
0.00737231
0.00737235
0.0073724
0.00737244
0.00737248
0.00737253
0.00737257
0.00737261
0.00737265
0.00737269
0.00737273
0.00737277
0.00737281
0.00737285
0.00737289
0.00737293
0.00737297
0.00737301
0.00737305
0.00737309
0.00737313
0.00737317
0.00737321
0.00737325
0.00737329
0.00737333
0.00737337
0.00737342
0.00737346
0.0073735
0.00737354
0.00737359
0.00737363
0.00737367
0.00737372
0.00737376
0.00737381
0.00737385
0.0073739
0.00737394
0.00737398
0.00737403
0.00737407
0.00737411
0.00737416
0.0073742
0.00737424
0.00737429
0.00737433
0.00737437
0.00737442
0.00737446
0.0073745
0.00737455
0.00737459
0.00737463
0.00737467
0.00737472
0.00737476
0.00737481
0.00737485
0.00737489
0.00737494
0.00737498
0.00737502
0.00737507
0.00737511
0.00737516
0.0073752
0.00737524
0.00737529
0.00737533
0.00737538
0.00737542
0.00737546
0.00737551
0.00737555
0.0073756
0.00737564
0.00737568
0.00737573
0.00737577
0.00737581
0.00737586
0.0073759
0.00737595
0.00737599
0.00737603
0.00737608
0.00737612
0.00737617
0.00737621
0.00737626
0.0073763
0.00737635
0.00737639
0.00737644
0.00737648
0.00737653
0.00737657
0.00737662
0.00737666
0.0073767
0.00737675
0.00737679
0.00737684
0.00737688
0.00737693
0.00737697
0.00737701
0.00737706
0.0073771
0.00737715
0.00737719
0.00737724
0.00737728
0.00737732
0.00737737
0.00737741
0.00737746
0.0073775
0.00737755
0.00737759
0.00737763
0.00737768
0.00737772
0.00737777
0.00737781
0.00737786
0.0073779
0.00737795
0.00737799
0.00737804
0.00737808
0.00737813
0.00737817
0.00737822
0.00737826
0.00737831
0.00737835
0.0073784
0.00737844
0.00737848
0.00737853
0.00737857
0.00737862
0.00737866
0.00737871
0.00737875
0.0073788
0.00737884
0.00737889
0.00737893
0.00737898
0.00737902
0.00737907
0.00737911
0.00737916
0.0073792
0.00737925
0.00737929
0.00737934
0.00737938
0.00737943
0.00737947
0.00737952
0.00737956
0.00737961
0.00737965
0.0073797
0.00737974
0.00737978
0.00737983
0.00737987
0.00737992
0.00737996
0.00738001
0.00738005
0.0073801
0.00738014
0.00738019
0.00738023
0.00738028
0.00738032
0.00738037
0.00738041
0.00738046
0.0073805
0.00738055
0.00738059
0.00738064
0.00738068
0.00738073
0.00738077
0.00738081
0.00738086
0.0073809
0.00738095
0.00738099
0.00738104
0.00738108
0.00738113
0.00738117
0.00738122
0.00738126
0.00738131
0.00738135
0.0073814
0.00738144
0.00738148
0.00738153
0.00738157
0.00738162
0.00738166
0.00738171
0.00738175
0.0073818
0.00738184
0.00738189
0.00738193
0.00738198
0.00738202
0.00738206
0.00738211
0.00738215
0.0073822
0.00738224
0.00738229
0.00738233
0.00738238
0.00738242
0.00738246
0.00738251
0.00738255
0.0073826
0.00738264
0.00738269
0.00738273
0.00738278
0.00738282
0.00738286
0.00738291
0.00738295
0.007383
0.00738304
0.00738309
0.00738313
0.00738317
0.00738322
0.00738326
0.00738331
0.00738335
0.0073834
0.00738344
0.00738348
0.00738353
0.00738357
0.00738362
0.00738366
0.00738371
0.00738375
0.00738379
0.00738384
0.00738388
0.00738393
0.00738397
0.00738401
0.00738406
0.0073841
0.00738415
0.00738419
0.00738423
0.00738428
0.00738432
0.00738437
0.00738441
0.00738445
0.0073845
0.00738454
0.00738459
0.00738463
0.00738467
0.00738472
0.00738476
0.0073848
0.00738485
0.00738489
0.00738494
0.00738498
0.00738502
0.00738507
0.00738511
0.00738515
0.0073852
0.00738524
0.00738528
0.00738533
0.00738537
0.00738542
0.00738546
0.0073855
0.00738555
0.00738559
0.00738563
0.00738568
0.00738572
0.00738576
0.00738581
0.00738585
0.00738589
0.00738594
0.00738598
0.00738602
0.00738607
0.00738611
0.00738615
0.0073862
0.00738624
0.00738628
0.00738633
0.00738637
0.00738641
0.00738646
0.0073865
0.00738654
0.00738658
0.00738663
0.00738667
0.00738671
0.00738676
0.0073868
0.00738684
0.00738689
0.00738693
0.00738697
0.00738701
0.00738706
0.0073871
0.00738714
0.00738718
0.00738723
0.00738727
0.00738731
0.00738736
0.0073874
0.00738744
0.00738748
0.00738753
0.00738757
0.00738761
0.00738765
0.0073877
0.00738774
0.00738778
0.00738782
0.00738787
0.00738791
0.00738795
0.00738799
0.00738804
0.00738808
0.00738812
0.00738816
0.00738821
0.00738825
0.00738829
0.00738833
0.00738837
0.00738842
0.00738846
0.0073885
0.00738854
0.00738858
0.00738863
0.00738867
0.00738871
0.00738875
0.00738879
0.00738884
0.00738888
0.00738892
0.00738896
0.007389
0.00738905
0.00738909
0.00738913
0.00738917
0.00738921
0.00738925
0.0073893
0.00738934
0.00738938
0.00738942
0.00738946
0.0073895
0.00738955
0.00738959
0.00738963
0.00738967
0.00738971
0.00738975
0.00738979
0.00738984
0.00738988
0.00738992
0.00738996
0.00739
0.00739004
0.00739008
0.00739013
0.00739017
0.00739021
0.00739025
0.00739029
0.00739033
0.00739037
0.00739041
0.00739045
0.0073905
0.00739054
0.00739058
0.00739062
0.00739066
0.0073907
0.00739074
0.00739078
0.00739082
0.00739086
0.0073909
0.00739094
0.00739099
0.00739103
0.00739107
0.00739111
0.00739115
0.00739119
0.00739123
0.00739127
0.00739131
0.00739135
0.00739139
0.00739143
0.00739147
0.00739151
0.00739155
0.00739159
0.00739163
0.00739167
0.00739172
0.00739176
0.0073918
0.00739184
0.00739188
0.00739192
0.00739196
0.007392
0.00739204
0.00739208
0.00739212
0.00739216
0.0073922
0.00739224
0.00739228
0.00739232
0.00739236
0.0073924
0.00739244
0.00739248
0.00739252
0.00739256
0.0073926
0.00739264
0.00739268
0.00739272
0.00739276
0.0073928
0.00739284
0.00739287
0.00739291
0.00739295
0.00739299
0.00739303
0.00739307
0.00739311
0.00739315
0.00739319
0.00739323
0.00739327
0.00739331
0.00739335
0.00739339
0.00739343
0.00739347
0.00739351
0.00739355
0.00739359
0.00739362
0.00739366
0.0073937
0.00739374
0.00739378
0.00739382
0.00739386
0.0073939
0.00739394
0.00739398
0.00739402
0.00739406
0.00739409
0.00739413
0.00739417
0.00739421
0.00739425
0.00739429
0.00739433
0.00739437
0.00739441
0.00739444
0.00739448
0.00739452
0.00739456
0.0073946
0.00739464
0.00739468
0.00739472
0.00739475
0.00739479
0.00739483