/*--------------------------------*- C++ -*----------------------------------*\
| =========                 |                                                 |
| \\      /  F ield         | OpenFOAM: The Open Source CFD Toolbox           |
|  \\    /   O peration     | Version:  2512                                  |
|   \\  /    A nd           | Website:  www.openfoam.com                      |
|    \\/     M anipulation  |                                                 |
\*---------------------------------------------------------------------------*/
FoamFile
{
    version     2.0;
    format      ascii;
    arch        "LSB;label=32;scalar=64";
    class       volScalarField;
    location    "0.005";
    object      nut;
}
// * * * * * * * * * * * * * * * * * * * * * * * * * * * * * * * * * * * * * //

dimensions      [0 2 -1 0 0 0 0];

internalField   nonuniform List<scalar> 
100000
(
1.37919e-07
2.70406e-08
1.11342e-08
6.08114e-09
3.93022e-09
2.84447e-09
2.23137e-09
1.85779e-09
1.61582e-09
1.45077e-09
1.33319e-09
1.2463e-09
1.18003e-09
1.1281e-09
1.08645e-09
1.05236e-09
1.024e-09
1.00006e-09
9.79635e-10
9.62033e-10
9.4675e-10
9.33397e-10
9.21671e-10
9.1133e-10
9.02181e-10
8.94063e-10
8.86846e-10
8.80418e-10
8.74688e-10
8.69577e-10
8.65016e-10
8.60947e-10
8.57321e-10
8.54093e-10
8.51224e-10
8.48681e-10
8.46434e-10
8.44457e-10
8.42725e-10
8.41217e-10
8.39914e-10
8.388e-10
8.37858e-10
8.37075e-10
8.36437e-10
8.35934e-10
8.35555e-10
8.35291e-10
8.35131e-10
8.3507e-10
8.35099e-10
8.35211e-10
8.35401e-10
8.35663e-10
8.35992e-10
8.36383e-10
8.36832e-10
8.37334e-10
8.37886e-10
8.38484e-10
8.39126e-10
8.39808e-10
8.40527e-10
8.41281e-10
8.42067e-10
8.42883e-10
8.43727e-10
8.44597e-10
8.45489e-10
8.46403e-10
8.47336e-10
8.48286e-10
8.49251e-10
8.50228e-10
8.51217e-10
8.52216e-10
8.53222e-10
8.54236e-10
8.55256e-10
8.56281e-10
8.57311e-10
8.58345e-10
8.59384e-10
8.60427e-10
8.61474e-10
8.62525e-10
8.63579e-10
8.64638e-10
8.657e-10
8.66765e-10
8.67834e-10
8.68906e-10
8.69981e-10
8.71059e-10
8.72141e-10
8.73225e-10
8.74312e-10
8.75401e-10
8.76493e-10
8.77588e-10
8.78686e-10
8.79786e-10
8.80888e-10
8.81993e-10
8.831e-10
8.8421e-10
8.85323e-10
8.86437e-10
8.87554e-10
8.88673e-10
8.89793e-10
8.90915e-10
8.92038e-10
8.93162e-10
8.94286e-10
8.9541e-10
8.96534e-10
8.97657e-10
8.98779e-10
8.99901e-10
9.01021e-10
9.0214e-10
9.03259e-10
9.04376e-10
9.05492e-10
9.06608e-10
9.07723e-10
9.08838e-10
9.09952e-10
9.11066e-10
9.12179e-10
9.13293e-10
9.14406e-10
9.1552e-10
9.16633e-10
9.17747e-10
9.18861e-10
9.19975e-10
9.2109e-10
9.22205e-10
9.23321e-10
9.24437e-10
9.25553e-10
9.2667e-10
9.27787e-10
9.28905e-10
9.30023e-10
9.31141e-10
9.32259e-10
9.33377e-10
9.34495e-10
9.35613e-10
9.3673e-10
9.37848e-10
9.38964e-10
9.40081e-10
9.41197e-10
9.42312e-10
9.43428e-10
9.44542e-10
9.45656e-10
9.4677e-10
9.47883e-10
9.48996e-10
9.50109e-10
9.51221e-10
9.52333e-10
9.53444e-10
9.54555e-10
9.55666e-10
9.56777e-10
9.57887e-10
9.58997e-10
9.60107e-10
9.61216e-10
9.62325e-10
9.63434e-10
9.64543e-10
9.65651e-10
9.66758e-10
9.67865e-10
9.68972e-10
9.70078e-10
9.71183e-10
9.72288e-10
9.73392e-10
9.74495e-10
9.75597e-10
9.76699e-10
9.77801e-10
9.78902e-10
9.80002e-10
9.81102e-10
9.82201e-10
9.833e-10
9.84399e-10
9.85497e-10
9.86595e-10
9.87693e-10
9.88791e-10
9.89888e-10
9.90984e-10
9.92081e-10
9.93177e-10
9.94272e-10
9.95367e-10
9.96461e-10
9.97555e-10
9.98647e-10
9.9974e-10
1.00083e-09
1.00192e-09
1.00301e-09
1.0041e-09
1.00519e-09
1.00628e-09
1.00736e-09
1.00845e-09
1.00953e-09
1.01062e-09
1.0117e-09
1.01278e-09
1.01386e-09
1.01494e-09
1.01602e-09
1.0171e-09
1.01818e-09
1.01925e-09
1.02033e-09
1.02141e-09
1.02248e-09
1.02355e-09
1.02463e-09
1.0257e-09
1.02677e-09
1.02784e-09
1.02891e-09
1.02998e-09
1.03104e-09
1.03211e-09
1.03318e-09
1.03424e-09
1.03531e-09
1.03637e-09
1.03743e-09
1.03849e-09
1.03955e-09
1.04061e-09
1.04167e-09
1.04273e-09
1.04379e-09
1.04484e-09
1.0459e-09
1.04695e-09
1.048e-09
1.04905e-09
1.0501e-09
1.05115e-09
1.0522e-09
1.05325e-09
1.0543e-09
1.05534e-09
1.05639e-09
1.05743e-09
1.05847e-09
1.05951e-09
1.06055e-09
1.06159e-09
1.06263e-09
1.06367e-09
1.0647e-09
1.06573e-09
1.06677e-09
1.0678e-09
1.06883e-09
1.06986e-09
1.07089e-09
1.07191e-09
1.07294e-09
1.07396e-09
1.07499e-09
1.07601e-09
1.07703e-09
1.07805e-09
1.07907e-09
1.08008e-09
1.0811e-09
1.08211e-09
1.08313e-09
1.08414e-09
1.08515e-09
1.08616e-09
1.08716e-09
1.08817e-09
1.08918e-09
1.09018e-09
1.09118e-09
1.09218e-09
1.09318e-09
1.09418e-09
1.09518e-09
1.09617e-09
1.09717e-09
1.09816e-09
1.09915e-09
1.10014e-09
1.10113e-09
1.10211e-09
1.1031e-09
1.10408e-09
1.10506e-09
1.10604e-09
1.10702e-09
1.108e-09
1.10898e-09
1.10995e-09
1.11092e-09
1.1119e-09
1.11287e-09
1.11384e-09
1.1148e-09
1.11577e-09
1.11673e-09
1.11769e-09
1.11865e-09
1.11961e-09
1.12057e-09
1.12153e-09
1.12248e-09
1.12343e-09
1.12438e-09
1.12533e-09
1.12628e-09
1.12723e-09
1.12817e-09
1.12912e-09
1.13006e-09
1.131e-09
1.13193e-09
1.13287e-09
1.13381e-09
1.13474e-09
1.13567e-09
1.1366e-09
1.13753e-09
1.13845e-09
1.13938e-09
1.1403e-09
1.14122e-09
1.14214e-09
1.14306e-09
1.14397e-09
1.14489e-09
1.1458e-09
1.14671e-09
1.14762e-09
1.14852e-09
1.14943e-09
1.15033e-09
1.15123e-09
1.15213e-09
1.15303e-09
1.15393e-09
1.15482e-09
1.15571e-09
1.1566e-09
1.15749e-09
1.15838e-09
1.15926e-09
1.16015e-09
1.16103e-09
1.16191e-09
1.16278e-09
1.16366e-09
1.16453e-09
1.16541e-09
1.16628e-09
1.16714e-09
1.16801e-09
1.16887e-09
1.16974e-09
1.1706e-09
1.17145e-09
1.17231e-09
1.17317e-09
1.17402e-09
1.17487e-09
1.17572e-09
1.17656e-09
1.17741e-09
1.17825e-09
1.17909e-09
1.17993e-09
1.18077e-09
1.1816e-09
1.18243e-09
1.18326e-09
1.18409e-09
1.18492e-09
1.18574e-09
1.18657e-09
1.18739e-09
1.18821e-09
1.18902e-09
1.18984e-09
1.19065e-09
1.19146e-09
1.19227e-09
1.19307e-09
1.19388e-09
1.19468e-09
1.19548e-09
1.19628e-09
1.19707e-09
1.19787e-09
1.19866e-09
1.19945e-09
1.20024e-09
1.20102e-09
1.2018e-09
1.20259e-09
1.20336e-09
1.20414e-09
1.20492e-09
1.20569e-09
1.20646e-09
1.20723e-09
1.20799e-09
1.20876e-09
1.20952e-09
1.21028e-09
1.21104e-09
1.21179e-09
1.21254e-09
1.21329e-09
1.21404e-09
1.21479e-09
1.21553e-09
1.21628e-09
1.21702e-09
1.21775e-09
1.21849e-09
1.21922e-09
1.21995e-09
1.22068e-09
1.22141e-09
1.22213e-09
1.22285e-09
1.22357e-09
1.22429e-09
1.22501e-09
1.22572e-09
1.22643e-09
1.22714e-09
1.22784e-09
1.22855e-09
1.22925e-09
1.22995e-09
1.23065e-09
1.23134e-09
1.23204e-09
1.23273e-09
1.23341e-09
1.2341e-09
1.23478e-09
1.23546e-09
1.23614e-09
1.23682e-09
1.23749e-09
1.23817e-09
1.23884e-09
1.2395e-09
1.24017e-09
1.24083e-09
1.24149e-09
1.24215e-09
1.2428e-09
1.24346e-09
1.24411e-09
1.24476e-09
1.2454e-09
1.24605e-09
1.24669e-09
1.24733e-09
1.24797e-09
1.2486e-09
1.24923e-09
1.24986e-09
1.25049e-09
1.25112e-09
1.25174e-09
1.25236e-09
1.25298e-09
1.25359e-09
1.25421e-09
1.25482e-09
1.25543e-09
1.25603e-09
1.25664e-09
1.25724e-09
1.25784e-09
1.25843e-09
1.25903e-09
1.25962e-09
1.26021e-09
1.2608e-09
1.26138e-09
1.26196e-09
1.26254e-09
1.26312e-09
1.2637e-09
1.26427e-09
1.26484e-09
1.26541e-09
1.26597e-09
1.26654e-09
1.2671e-09
1.26765e-09
1.26821e-09
1.26876e-09
1.26931e-09
1.26986e-09
1.27041e-09
1.27095e-09
1.27149e-09
1.27203e-09
1.27257e-09
1.2731e-09
1.27364e-09
1.27416e-09
1.27469e-09
1.27522e-09
1.27574e-09
1.27626e-09
1.27677e-09
1.27729e-09
1.2778e-09
1.27831e-09
1.27882e-09
1.27932e-09
1.27982e-09
1.28032e-09
1.28082e-09
1.28132e-09
1.28181e-09
1.2823e-09
1.28279e-09
1.28327e-09
1.28376e-09
1.28424e-09
1.28471e-09
1.28519e-09
1.28566e-09
1.28613e-09
1.2866e-09
1.28707e-09
1.28753e-09
1.28799e-09
1.28845e-09
1.28891e-09
1.28936e-09
1.28981e-09
1.29026e-09
1.29071e-09
1.29115e-09
1.29159e-09
1.29203e-09
1.29247e-09
1.2929e-09
1.29333e-09
1.29376e-09
1.29419e-09
1.29461e-09
1.29503e-09
1.29545e-09
1.29587e-09
1.29628e-09
1.2967e-09
1.29711e-09
1.29751e-09
1.29792e-09
1.29832e-09
1.29872e-09
1.29912e-09
1.29951e-09
1.29991e-09
1.3003e-09
1.30068e-09
1.30107e-09
1.30145e-09
1.30183e-09
1.30221e-09
1.30259e-09
1.30296e-09
1.30333e-09
1.3037e-09
1.30406e-09
1.30443e-09
1.30479e-09
1.30515e-09
1.3055e-09
1.30586e-09
1.30621e-09
1.30656e-09
1.3069e-09
1.30725e-09
1.30759e-09
1.30793e-09
1.30827e-09
1.3086e-09
1.30893e-09
1.30926e-09
1.30959e-09
1.30992e-09
1.31024e-09
1.31056e-09
1.31088e-09
1.31119e-09
1.3115e-09
1.31182e-09
1.31212e-09
1.31243e-09
1.31273e-09
1.31303e-09
1.31333e-09
1.31363e-09
1.31392e-09
1.31422e-09
1.31451e-09
1.31479e-09
1.31508e-09
1.31536e-09
1.31564e-09
1.31592e-09
1.31619e-09
1.31647e-09
1.31674e-09
1.317e-09
1.31727e-09
1.31753e-09
1.31779e-09
1.31805e-09
1.31831e-09
1.31856e-09
1.31882e-09
1.31907e-09
1.31931e-09
1.31956e-09
1.3198e-09
1.32004e-09
1.32028e-09
1.32052e-09
1.32075e-09
1.32098e-09
1.32121e-09
1.32144e-09
1.32166e-09
1.32188e-09
1.3221e-09
1.32232e-09
1.32254e-09
1.32275e-09
1.32296e-09
1.32317e-09
1.32337e-09
1.32358e-09
1.32378e-09
1.32398e-09
1.32418e-09
1.32437e-09
1.32456e-09
1.32475e-09
1.32494e-09
1.32513e-09
1.32531e-09
1.32549e-09
1.32567e-09
1.32585e-09
1.32603e-09
1.3262e-09
1.32637e-09
1.32654e-09
1.3267e-09
1.32687e-09
1.32703e-09
1.32719e-09
1.32735e-09
1.3275e-09
1.32766e-09
1.32781e-09
1.32796e-09
1.3281e-09
1.32825e-09
1.32839e-09
1.32853e-09
1.32867e-09
1.32881e-09
1.32894e-09
1.32907e-09
1.3292e-09
1.32933e-09
1.32945e-09
1.32958e-09
1.3297e-09
1.32982e-09
1.32994e-09
1.33005e-09
1.33016e-09
1.33027e-09
1.33038e-09
1.33049e-09
1.3306e-09
1.3307e-09
1.3308e-09
1.3309e-09
1.33099e-09
1.33109e-09
1.33118e-09
1.33127e-09
1.33136e-09
1.33145e-09
1.33153e-09
1.33161e-09
1.33169e-09
1.33177e-09
1.33185e-09
1.33192e-09
1.332e-09
1.33207e-09
1.33213e-09
1.3322e-09
1.33227e-09
1.33233e-09
1.33239e-09
1.33245e-09
1.3325e-09
1.33256e-09
1.33261e-09
1.33266e-09
1.33271e-09
1.33276e-09
1.33281e-09
1.33285e-09
1.33289e-09
1.33293e-09
1.33297e-09
1.333e-09
1.33304e-09
1.33307e-09
1.3331e-09
1.33313e-09
1.33316e-09
1.33318e-09
1.3332e-09
1.33322e-09
1.33324e-09
1.33326e-09
1.33328e-09
1.33329e-09
1.3333e-09
1.33331e-09
1.33332e-09
1.33333e-09
1.33333e-09
1.33334e-09
1.33334e-09
1.33334e-09
1.33334e-09
1.33333e-09
1.33333e-09
1.33332e-09
1.33331e-09
1.3333e-09
1.33329e-09
1.33327e-09
1.33326e-09
1.33324e-09
1.33322e-09
1.3332e-09
1.33318e-09
1.33315e-09
1.33313e-09
1.3331e-09
1.33307e-09
1.33304e-09
1.33301e-09
1.33297e-09
1.33294e-09
1.3329e-09
1.33286e-09
1.33282e-09
1.33278e-09
1.33273e-09
1.33269e-09
1.33264e-09
1.33259e-09
1.33254e-09
1.33249e-09
1.33244e-09
1.33238e-09
1.33233e-09
1.33227e-09
1.33221e-09
1.33215e-09
1.33209e-09
1.33202e-09
1.33196e-09
1.33189e-09
1.33182e-09
1.33175e-09
1.33168e-09
1.33161e-09
1.33153e-09
1.33146e-09
1.33138e-09
1.3313e-09
1.33122e-09
1.33114e-09
1.33106e-09
1.33098e-09
1.33089e-09
1.3308e-09
1.33072e-09
1.33063e-09
1.33054e-09
1.33044e-09
1.33035e-09
1.33025e-09
1.33016e-09
1.33006e-09
1.32996e-09
1.32986e-09
1.32976e-09
1.32966e-09
1.32955e-09
1.32945e-09
1.32934e-09
1.32923e-09
1.32912e-09
1.32901e-09
1.3289e-09
1.32879e-09
1.32867e-09
1.32856e-09
1.32844e-09
1.32832e-09
1.3282e-09
1.32808e-09
1.32796e-09
1.32784e-09
1.32771e-09
1.32759e-09
1.32746e-09
1.32734e-09
1.32721e-09
1.32708e-09
1.32695e-09
1.32681e-09
1.32668e-09
1.32655e-09
1.32641e-09
1.32628e-09
1.32614e-09
1.326e-09
1.32586e-09
1.32572e-09
1.32558e-09
1.32544e-09
1.32529e-09
1.32515e-09
1.325e-09
1.32486e-09
1.32471e-09
1.32456e-09
1.32441e-09
1.32426e-09
1.32411e-09
1.32395e-09
1.3238e-09
1.32365e-09
1.32349e-09
1.32333e-09
1.32318e-09
1.32302e-09
1.32286e-09
1.3227e-09
1.32254e-09
1.32238e-09
1.32222e-09
1.32205e-09
1.32189e-09
1.32172e-09
1.32156e-09
1.32139e-09
1.32122e-09
1.32105e-09
1.32089e-09
1.32072e-09
1.32055e-09
1.32037e-09
1.3202e-09
1.32003e-09
1.31986e-09
1.31968e-09
1.31951e-09
1.31933e-09
1.31916e-09
1.31898e-09
1.3188e-09
1.31862e-09
1.31845e-09
1.31827e-09
1.31809e-09
1.31791e-09
1.31773e-09
1.31754e-09
1.31736e-09
1.31718e-09
1.317e-09
1.31681e-09
1.31663e-09
1.31645e-09
1.31626e-09
1.31608e-09
1.31589e-09
1.31571e-09
1.31552e-09
1.31534e-09
1.31515e-09
1.31497e-09
1.31478e-09
1.3146e-09
1.31441e-09
1.31422e-09
1.31404e-09
1.31385e-09
1.31367e-09
1.31348e-09
1.3133e-09
1.31311e-09
1.31293e-09
1.31275e-09
1.31256e-09
1.31238e-09
1.3122e-09
1.31202e-09
1.31184e-09
1.31166e-09
1.31149e-09
1.31131e-09
1.31114e-09
1.31096e-09
1.31079e-09
1.31063e-09
1.31046e-09
1.3103e-09
1.31013e-09
1.30998e-09
1.30982e-09
1.30967e-09
1.30952e-09
1.30938e-09
1.30924e-09
1.3091e-09
1.30897e-09
1.30885e-09
1.30873e-09
1.30862e-09
1.30851e-09
1.30842e-09
1.30833e-09
1.30825e-09
1.30818e-09
1.30812e-09
1.30808e-09
1.30804e-09
1.30802e-09
1.30802e-09
1.30803e-09
1.30806e-09
1.30812e-09
1.30819e-09
1.30829e-09
1.30842e-09
1.30858e-09
1.30877e-09
1.30901e-09
1.30928e-09
1.30961e-09
1.31e-09
1.31046e-09
1.31101e-09
1.31169e-09
1.31253e-09
1.31361e-09
1.31501e-09
1.31684e-09
1.31936e-09
1.32344e-09
1.32971e-09
2.53943e-06
4.11981e-07
1.08827e-07
4.22156e-08
2.24862e-08
1.51076e-08
1.1874e-08
1.03046e-08
9.48946e-09
9.04466e-09
8.79172e-09
8.64198e-09
8.54929e-09
8.48888e-09
8.44724e-09
8.41683e-09
8.39345e-09
8.37468e-09
8.35912e-09
8.34591e-09
8.33453e-09
8.32462e-09
8.31592e-09
8.30825e-09
8.30146e-09
8.29545e-09
8.2901e-09
8.28535e-09
8.28112e-09
8.27736e-09
8.27402e-09
8.27106e-09
8.26844e-09
8.26612e-09
8.26408e-09
8.26229e-09
8.26073e-09
8.25938e-09
8.25822e-09
8.25723e-09
8.25641e-09
8.25573e-09
8.25519e-09
8.25477e-09
8.25447e-09
8.25427e-09
8.25418e-09
8.25417e-09
8.25424e-09
8.25439e-09
8.25462e-09
8.25491e-09
8.25526e-09
8.25567e-09
8.25613e-09
8.25664e-09
8.2572e-09
8.2578e-09
8.25844e-09
8.25912e-09
8.25983e-09
8.26057e-09
8.26134e-09
8.26214e-09
8.26296e-09
8.26381e-09
8.26468e-09
8.26557e-09
8.26647e-09
8.26739e-09
8.26832e-09
8.26926e-09
8.27021e-09
8.27117e-09
8.27214e-09
8.27311e-09
8.27408e-09
8.27507e-09
8.27605e-09
8.27704e-09
8.27804e-09
8.27904e-09
8.28004e-09
8.28105e-09
8.28206e-09
8.28308e-09
8.2841e-09
8.28512e-09
8.28615e-09
8.28718e-09
8.28822e-09
8.28926e-09
8.2903e-09
8.29134e-09
8.29239e-09
8.29344e-09
8.2945e-09
8.29556e-09
8.29662e-09
8.29768e-09
8.29875e-09
8.29981e-09
8.30089e-09
8.30196e-09
8.30303e-09
8.30411e-09
8.30519e-09
8.30627e-09
8.30736e-09
8.30844e-09
8.30953e-09
8.31062e-09
8.3117e-09
8.31279e-09
8.31388e-09
8.31496e-09
8.31605e-09
8.31713e-09
8.31821e-09
8.3193e-09
8.32038e-09
8.32146e-09
8.32254e-09
8.32362e-09
8.3247e-09
8.32578e-09
8.32686e-09
8.32794e-09
8.32902e-09
8.3301e-09
8.33118e-09
8.33226e-09
8.33334e-09
8.33442e-09
8.33551e-09
8.33659e-09
8.33767e-09
8.33876e-09
8.33984e-09
8.34092e-09
8.34201e-09
8.3431e-09
8.34418e-09
8.34527e-09
8.34636e-09
8.34744e-09
8.34853e-09
8.34962e-09
8.35071e-09
8.3518e-09
8.35288e-09
8.35397e-09
8.35506e-09
8.35615e-09
8.35723e-09
8.35832e-09
8.35941e-09
8.36049e-09
8.36158e-09
8.36266e-09
8.36375e-09
8.36483e-09
8.36592e-09
8.36701e-09
8.36809e-09
8.36917e-09
8.37026e-09
8.37134e-09
8.37243e-09
8.37351e-09
8.3746e-09
8.37568e-09
8.37677e-09
8.37785e-09
8.37893e-09
8.38002e-09
8.3811e-09
8.38218e-09
8.38327e-09
8.38435e-09
8.38543e-09
8.38651e-09
8.38759e-09
8.38867e-09
8.38975e-09
8.39083e-09
8.39191e-09
8.39299e-09
8.39407e-09
8.39515e-09
8.39623e-09
8.3973e-09
8.39838e-09
8.39946e-09
8.40053e-09
8.40161e-09
8.40269e-09
8.40377e-09
8.40484e-09
8.40592e-09
8.407e-09
8.40807e-09
8.40915e-09
8.41022e-09
8.4113e-09
8.41237e-09
8.41345e-09
8.41452e-09
8.41559e-09
8.41667e-09
8.41774e-09
8.41881e-09
8.41988e-09
8.42095e-09
8.42202e-09
8.42309e-09
8.42416e-09
8.42523e-09
8.42629e-09
8.42736e-09
8.42842e-09
8.42949e-09
8.43055e-09
8.43161e-09
8.43268e-09
8.43374e-09
8.4348e-09
8.43586e-09
8.43692e-09
8.43798e-09
8.43904e-09
8.4401e-09
8.44116e-09
8.44222e-09
8.44327e-09
8.44433e-09
8.44538e-09
8.44644e-09
8.44749e-09
8.44855e-09
8.4496e-09
8.45065e-09
8.4517e-09
8.45276e-09
8.45381e-09
8.45485e-09
8.4559e-09
8.45695e-09
8.458e-09
8.45905e-09
8.46009e-09
8.46114e-09
8.46218e-09
8.46322e-09
8.46427e-09
8.46531e-09
8.46635e-09
8.46739e-09
8.46843e-09
8.46947e-09
8.47051e-09
8.47154e-09
8.47258e-09
8.47361e-09
8.47465e-09
8.47568e-09
8.47671e-09
8.47775e-09
8.47878e-09
8.47981e-09
8.48084e-09
8.48186e-09
8.48289e-09
8.48392e-09
8.48494e-09
8.48597e-09
8.48699e-09
8.48801e-09
8.48903e-09
8.49005e-09
8.49107e-09
8.49209e-09
8.49311e-09
8.49412e-09
8.49514e-09
8.49615e-09
8.49716e-09
8.49818e-09
8.49919e-09
8.5002e-09
8.50121e-09
8.50221e-09
8.50322e-09
8.50422e-09
8.50523e-09
8.50623e-09
8.50723e-09
8.50823e-09
8.50923e-09
8.51023e-09
8.51123e-09
8.51223e-09
8.51322e-09
8.51422e-09
8.51521e-09
8.5162e-09
8.51719e-09
8.51818e-09
8.51917e-09
8.52015e-09
8.52114e-09
8.52212e-09
8.52311e-09
8.52409e-09
8.52507e-09
8.52605e-09
8.52703e-09
8.528e-09
8.52898e-09
8.52995e-09
8.53093e-09
8.5319e-09
8.53287e-09
8.53384e-09
8.5348e-09
8.53577e-09
8.53674e-09
8.5377e-09
8.53866e-09
8.53962e-09
8.54058e-09
8.54154e-09
8.5425e-09
8.54345e-09
8.54441e-09
8.54536e-09
8.54631e-09
8.54726e-09
8.54821e-09
8.54916e-09
8.5501e-09
8.55105e-09
8.55199e-09
8.55293e-09
8.55387e-09
8.55481e-09
8.55575e-09
8.55668e-09
8.55762e-09
8.55855e-09
8.55948e-09
8.56041e-09
8.56134e-09
8.56227e-09
8.56319e-09
8.56412e-09
8.56504e-09
8.56596e-09
8.56688e-09
8.5678e-09
8.56871e-09
8.56963e-09
8.57054e-09
8.57145e-09
8.57236e-09
8.57327e-09
8.57418e-09
8.57508e-09
8.57599e-09
8.57689e-09
8.57779e-09
8.57869e-09
8.57959e-09
8.58048e-09
8.58138e-09
8.58227e-09
8.58316e-09
8.58405e-09
8.58494e-09
8.58582e-09
8.58671e-09
8.58759e-09
8.58847e-09
8.58935e-09
8.59023e-09
8.59111e-09
8.59198e-09
8.59285e-09
8.59373e-09
8.59459e-09
8.59546e-09
8.59633e-09
8.59719e-09
8.59806e-09
8.59892e-09
8.59978e-09
8.60063e-09
8.60149e-09
8.60234e-09
8.6032e-09
8.60405e-09
8.6049e-09
8.60574e-09
8.60659e-09
8.60743e-09
8.60828e-09
8.60912e-09
8.60995e-09
8.61079e-09
8.61163e-09
8.61246e-09
8.61329e-09
8.61412e-09
8.61495e-09
8.61577e-09
8.6166e-09
8.61742e-09
8.61824e-09
8.61906e-09
8.61988e-09
8.62069e-09
8.6215e-09
8.62232e-09
8.62313e-09
8.62393e-09
8.62474e-09
8.62554e-09
8.62635e-09
8.62715e-09
8.62794e-09
8.62874e-09
8.62954e-09
8.63033e-09
8.63112e-09
8.63191e-09
8.6327e-09
8.63348e-09
8.63426e-09
8.63505e-09
8.63583e-09
8.6366e-09
8.63738e-09
8.63815e-09
8.63892e-09
8.63969e-09
8.64046e-09
8.64123e-09
8.64199e-09
8.64276e-09
8.64352e-09
8.64428e-09
8.64503e-09
8.64579e-09
8.64654e-09
8.64729e-09
8.64804e-09
8.64879e-09
8.64953e-09
8.65027e-09
8.65101e-09
8.65175e-09
8.65249e-09
8.65322e-09
8.65396e-09
8.65469e-09
8.65542e-09
8.65614e-09
8.65687e-09
8.65759e-09
8.65831e-09
8.65903e-09
8.65975e-09
8.66047e-09
8.66118e-09
8.66189e-09
8.6626e-09
8.66331e-09
8.66401e-09
8.66471e-09
8.66541e-09
8.66611e-09
8.66681e-09
8.6675e-09
8.6682e-09
8.66889e-09
8.66958e-09
8.67026e-09
8.67095e-09
8.67163e-09
8.67231e-09
8.67299e-09
8.67367e-09
8.67434e-09
8.67501e-09
8.67568e-09
8.67635e-09
8.67702e-09
8.67768e-09
8.67834e-09
8.679e-09
8.67966e-09
8.68032e-09
8.68097e-09
8.68162e-09
8.68227e-09
8.68292e-09
8.68357e-09
8.68421e-09
8.68485e-09
8.68549e-09
8.68613e-09
8.68676e-09
8.6874e-09
8.68803e-09
8.68866e-09
8.68928e-09
8.68991e-09
8.69053e-09
8.69115e-09
8.69177e-09
8.69238e-09
8.693e-09
8.69361e-09
8.69422e-09
8.69483e-09
8.69543e-09
8.69604e-09
8.69664e-09
8.69724e-09
8.69784e-09
8.69843e-09
8.69902e-09
8.69962e-09
8.7002e-09
8.70079e-09
8.70138e-09
8.70196e-09
8.70254e-09
8.70312e-09
8.70369e-09
8.70427e-09
8.70484e-09
8.70541e-09
8.70598e-09
8.70654e-09
8.70711e-09
8.70767e-09
8.70823e-09
8.70878e-09
8.70934e-09
8.70989e-09
8.71044e-09
8.71099e-09
8.71154e-09
8.71208e-09
8.71262e-09
8.71316e-09
8.7137e-09
8.71424e-09
8.71477e-09
8.7153e-09
8.71583e-09
8.71636e-09
8.71688e-09
8.71741e-09
8.71793e-09
8.71845e-09
8.71896e-09
8.71948e-09
8.71999e-09
8.7205e-09
8.72101e-09
8.72152e-09
8.72202e-09
8.72252e-09
8.72302e-09
8.72352e-09
8.72402e-09
8.72451e-09
8.725e-09
8.72549e-09
8.72598e-09
8.72646e-09
8.72695e-09
8.72743e-09
8.7279e-09
8.72838e-09
8.72886e-09
8.72933e-09
8.7298e-09
8.73027e-09
8.73073e-09
8.7312e-09
8.73166e-09
8.73212e-09
8.73258e-09
8.73303e-09
8.73348e-09
8.73394e-09
8.73439e-09
8.73483e-09
8.73528e-09
8.73572e-09
8.73616e-09
8.7366e-09
8.73704e-09
8.73747e-09
8.7379e-09
8.73834e-09
8.73876e-09
8.73919e-09
8.73961e-09
8.74004e-09
8.74046e-09
8.74087e-09
8.74129e-09
8.7417e-09
8.74212e-09
8.74253e-09
8.74293e-09
8.74334e-09
8.74374e-09
8.74414e-09
8.74454e-09
8.74494e-09
8.74534e-09
8.74573e-09
8.74612e-09
8.74651e-09
8.7469e-09
8.74728e-09
8.74767e-09
8.74805e-09
8.74843e-09
8.7488e-09
8.74918e-09
8.74955e-09
8.74992e-09
8.75029e-09
8.75066e-09
8.75102e-09
8.75139e-09
8.75175e-09
8.75211e-09
8.75246e-09
8.75282e-09
8.75317e-09
8.75352e-09
8.75387e-09
8.75422e-09
8.75456e-09
8.75491e-09
8.75525e-09
8.75559e-09
8.75592e-09
8.75626e-09
8.75659e-09
8.75692e-09
8.75725e-09
8.75758e-09
8.7579e-09
8.75823e-09
8.75855e-09
8.75887e-09
8.75919e-09
8.7595e-09
8.75981e-09
8.76013e-09
8.76044e-09
8.76074e-09
8.76105e-09
8.76135e-09
8.76166e-09
8.76196e-09
8.76225e-09
8.76255e-09
8.76284e-09
8.76314e-09
8.76343e-09
8.76372e-09
8.764e-09
8.76429e-09
8.76457e-09
8.76485e-09
8.76513e-09
8.76541e-09
8.76569e-09
8.76596e-09
8.76623e-09
8.7665e-09
8.76677e-09
8.76704e-09
8.7673e-09
8.76756e-09
8.76782e-09
8.76808e-09
8.76834e-09
8.76859e-09
8.76885e-09
8.7691e-09
8.76935e-09
8.7696e-09
8.76984e-09
8.77009e-09
8.77033e-09
8.77057e-09
8.77081e-09
8.77105e-09
8.77128e-09
8.77152e-09
8.77175e-09
8.77198e-09
8.77221e-09
8.77244e-09
8.77266e-09
8.77288e-09
8.7731e-09
8.77332e-09
8.77354e-09
8.77376e-09
8.77397e-09
8.77419e-09
8.7744e-09
8.77461e-09
8.77482e-09
8.77502e-09
8.77523e-09
8.77543e-09
8.77563e-09
8.77583e-09
8.77603e-09
8.77622e-09
8.77642e-09
8.77661e-09
8.7768e-09
8.77699e-09
8.77718e-09
8.77736e-09
8.77755e-09
8.77773e-09
8.77791e-09
8.77809e-09
8.77827e-09
8.77845e-09
8.77862e-09
8.77879e-09
8.77897e-09
8.77914e-09
8.7793e-09
8.77947e-09
8.77964e-09
8.7798e-09
8.77996e-09
8.78012e-09
8.78028e-09
8.78044e-09
8.7806e-09
8.78075e-09
8.7809e-09
8.78106e-09
8.7812e-09
8.78135e-09
8.7815e-09
8.78165e-09
8.78179e-09
8.78193e-09
8.78207e-09
8.78221e-09
8.78235e-09
8.78249e-09
8.78262e-09
8.78276e-09
8.78289e-09
8.78302e-09
8.78315e-09
8.78328e-09
8.7834e-09
8.78353e-09
8.78365e-09
8.78377e-09
8.78389e-09
8.78401e-09
8.78413e-09
8.78425e-09
8.78436e-09
8.78448e-09
8.78459e-09
8.7847e-09
8.78481e-09
8.78492e-09
8.78503e-09
8.78513e-09
8.78524e-09
8.78534e-09
8.78544e-09
8.78554e-09
8.78564e-09
8.78574e-09
8.78584e-09
8.78593e-09
8.78603e-09
8.78612e-09
8.78621e-09
8.7863e-09
8.78639e-09
8.78648e-09
8.78657e-09
8.78665e-09
8.78673e-09
8.78682e-09
8.7869e-09
8.78698e-09
8.78706e-09
8.78714e-09
8.78721e-09
8.78729e-09
8.78736e-09
8.78744e-09
8.78751e-09
8.78758e-09
8.78765e-09
8.78772e-09
8.78779e-09
8.78785e-09
8.78792e-09
8.78798e-09
8.78805e-09
8.78811e-09
8.78817e-09
8.78823e-09
8.78829e-09
8.78835e-09
8.7884e-09
8.78846e-09
8.78851e-09
8.78857e-09
8.78862e-09
8.78867e-09
8.78872e-09
8.78877e-09
8.78882e-09
8.78887e-09
8.78891e-09
8.78896e-09
8.789e-09
8.78905e-09
8.78909e-09
8.78913e-09
8.78917e-09
8.78921e-09
8.78925e-09
8.78929e-09
8.78932e-09
8.78936e-09
8.78939e-09
8.78943e-09
8.78946e-09
8.78949e-09
8.78953e-09
8.78956e-09
8.78959e-09
8.78961e-09
8.78964e-09
8.78967e-09
8.7897e-09
8.78972e-09
8.78974e-09
8.78977e-09
8.78979e-09
8.78981e-09
8.78983e-09
8.78986e-09
8.78987e-09
8.78989e-09
8.78991e-09
8.78993e-09
8.78995e-09
8.78996e-09
8.78998e-09
8.78999e-09
8.79e-09
8.79002e-09
8.79003e-09
8.79004e-09
8.79005e-09
8.79006e-09
8.79007e-09
8.79008e-09
8.79009e-09
8.7901e-09
8.7901e-09
8.79011e-09
8.79012e-09
8.79012e-09
8.79013e-09
8.79013e-09
8.79013e-09
8.79014e-09
8.79014e-09
8.79014e-09
8.79014e-09
8.79014e-09
8.79014e-09
8.79014e-09
8.79014e-09
8.79014e-09
8.79014e-09
8.79014e-09
8.79013e-09
8.79013e-09
8.79013e-09
8.79012e-09
8.79012e-09
8.79011e-09
8.79011e-09
8.7901e-09
8.7901e-09
8.79009e-09
8.79009e-09
8.79008e-09
8.79008e-09
8.79007e-09
8.79006e-09
8.79006e-09
8.79005e-09
8.79004e-09
8.79004e-09
8.79003e-09
8.79002e-09
8.79002e-09
8.79001e-09
8.79e-09
8.79e-09
8.78999e-09
8.78999e-09
8.78998e-09
8.78998e-09
8.78997e-09
8.78997e-09
8.78997e-09
8.78996e-09
8.78996e-09
8.78996e-09
8.78996e-09
8.78996e-09
8.78997e-09
8.78997e-09
8.78998e-09
8.78998e-09
8.78999e-09
8.79e-09
8.79001e-09
8.79003e-09
8.79005e-09
8.79007e-09
8.79009e-09
8.79011e-09
8.79014e-09
8.79017e-09
8.79021e-09
8.79025e-09
8.79029e-09
8.79034e-09
8.7904e-09
8.79046e-09
8.79052e-09
8.7906e-09
8.79068e-09
8.79077e-09
8.79086e-09
8.79097e-09
8.79108e-09
8.79121e-09
8.79134e-09
8.79149e-09
8.79166e-09
8.79184e-09
8.79203e-09
8.79224e-09
8.79247e-09
8.79273e-09
8.793e-09
8.79331e-09
8.79363e-09
8.79399e-09
8.79439e-09
8.79482e-09
8.79528e-09
8.7958e-09
8.79636e-09
8.79698e-09
8.79768e-09
8.79847e-09
8.7994e-09
8.80051e-09
8.80191e-09
8.80371e-09
8.80619e-09
8.80997e-09
8.81465e-09
1.8023e-05
3.89816e-06
1.36979e-06
6.22307e-07
3.55198e-07
2.46581e-07
1.98004e-07
1.74813e-07
1.63292e-07
1.57455e-07
1.54492e-07
1.53007e-07
1.52286e-07
1.51957e-07
1.51824e-07
1.51786e-07
1.51792e-07
1.51815e-07
1.51843e-07
1.5187e-07
1.51896e-07
1.51918e-07
1.51938e-07
1.51955e-07
1.51969e-07
1.51982e-07
1.51994e-07
1.52004e-07
1.52013e-07
1.52021e-07
1.52028e-07
1.52034e-07
1.5204e-07
1.52046e-07
1.52051e-07
1.52055e-07
1.5206e-07
1.52064e-07
1.52067e-07
1.52071e-07
1.52074e-07
1.52077e-07
1.5208e-07
1.52083e-07
1.52085e-07
1.52088e-07
1.5209e-07
1.52092e-07
1.52094e-07
1.52096e-07
1.52098e-07
1.521e-07
1.52102e-07
1.52104e-07
1.52106e-07
1.52107e-07
1.52109e-07
1.5211e-07
1.52112e-07
1.52114e-07
1.52115e-07
1.52116e-07
1.52118e-07
1.52119e-07
1.52121e-07
1.52122e-07
1.52123e-07
1.52124e-07
1.52125e-07
1.52126e-07
1.52127e-07
1.52128e-07
1.52129e-07
1.5213e-07
1.52131e-07
1.52131e-07
1.52132e-07
1.52133e-07
1.52133e-07
1.52134e-07
1.52135e-07
1.52135e-07
1.52136e-07
1.52137e-07
1.52137e-07
1.52138e-07
1.52139e-07
1.5214e-07
1.5214e-07
1.52141e-07
1.52142e-07
1.52143e-07
1.52144e-07
1.52144e-07
1.52145e-07
1.52146e-07
1.52147e-07
1.52148e-07
1.52149e-07
1.5215e-07
1.52151e-07
1.52152e-07
1.52152e-07
1.52153e-07
1.52154e-07
1.52155e-07
1.52156e-07
1.52157e-07
1.52158e-07
1.52159e-07
1.5216e-07
1.52161e-07
1.52162e-07
1.52162e-07
1.52163e-07
1.52164e-07
1.52165e-07
1.52166e-07
1.52166e-07
1.52167e-07
1.52168e-07
1.52169e-07
1.5217e-07
1.5217e-07
1.52171e-07
1.52172e-07
1.52173e-07
1.52174e-07
1.52175e-07
1.52175e-07
1.52176e-07
1.52177e-07
1.52178e-07
1.52179e-07
1.5218e-07
1.52181e-07
1.52182e-07
1.52183e-07
1.52183e-07
1.52184e-07
1.52185e-07
1.52186e-07
1.52187e-07
1.52188e-07
1.52189e-07
1.5219e-07
1.52191e-07
1.52192e-07
1.52193e-07
1.52193e-07
1.52194e-07
1.52195e-07
1.52196e-07
1.52197e-07
1.52198e-07
1.52199e-07
1.522e-07
1.52201e-07
1.52201e-07
1.52202e-07
1.52203e-07
1.52204e-07
1.52205e-07
1.52206e-07
1.52207e-07
1.52208e-07
1.52209e-07
1.52209e-07
1.5221e-07
1.52211e-07
1.52212e-07
1.52213e-07
1.52214e-07
1.52215e-07
1.52216e-07
1.52217e-07
1.52218e-07
1.52219e-07
1.52219e-07
1.5222e-07
1.52221e-07
1.52222e-07
1.52223e-07
1.52224e-07
1.52225e-07
1.52226e-07
1.52227e-07
1.52228e-07
1.52228e-07
1.52229e-07
1.5223e-07
1.52231e-07
1.52232e-07
1.52233e-07
1.52234e-07
1.52235e-07
1.52236e-07
1.52237e-07
1.52238e-07
1.52239e-07
1.52239e-07
1.5224e-07
1.52241e-07
1.52242e-07
1.52243e-07
1.52244e-07
1.52245e-07
1.52246e-07
1.52247e-07
1.52248e-07
1.52249e-07
1.5225e-07
1.52251e-07
1.52251e-07
1.52252e-07
1.52253e-07
1.52254e-07
1.52255e-07
1.52256e-07
1.52257e-07
1.52258e-07
1.52259e-07
1.5226e-07
1.52261e-07
1.52261e-07
1.52262e-07
1.52263e-07
1.52264e-07
1.52265e-07
1.52266e-07
1.52267e-07
1.52268e-07
1.52269e-07
1.5227e-07
1.52271e-07
1.52272e-07
1.52273e-07
1.52273e-07
1.52274e-07
1.52275e-07
1.52276e-07
1.52277e-07
1.52278e-07
1.52279e-07
1.5228e-07
1.52281e-07
1.52282e-07
1.52283e-07
1.52284e-07
1.52285e-07
1.52285e-07
1.52286e-07
1.52287e-07
1.52288e-07
1.52289e-07
1.5229e-07
1.52291e-07
1.52292e-07
1.52293e-07
1.52294e-07
1.52295e-07
1.52296e-07
1.52297e-07
1.52297e-07
1.52298e-07
1.52299e-07
1.523e-07
1.52301e-07
1.52302e-07
1.52303e-07
1.52304e-07
1.52305e-07
1.52306e-07
1.52307e-07
1.52308e-07
1.52309e-07
1.5231e-07
1.5231e-07
1.52311e-07
1.52312e-07
1.52313e-07
1.52314e-07
1.52315e-07
1.52316e-07
1.52317e-07
1.52318e-07
1.52319e-07
1.5232e-07
1.52321e-07
1.52322e-07
1.52322e-07
1.52323e-07
1.52324e-07
1.52325e-07
1.52326e-07
1.52327e-07
1.52328e-07
1.52329e-07
1.5233e-07
1.52331e-07
1.52332e-07
1.52333e-07
1.52334e-07
1.52334e-07
1.52335e-07
1.52336e-07
1.52337e-07
1.52338e-07
1.52339e-07
1.5234e-07
1.52341e-07
1.52342e-07
1.52343e-07
1.52344e-07
1.52345e-07
1.52345e-07
1.52346e-07
1.52347e-07
1.52348e-07
1.52349e-07
1.5235e-07
1.52351e-07
1.52352e-07
1.52353e-07
1.52354e-07
1.52355e-07
1.52356e-07
1.52357e-07
1.52357e-07
1.52358e-07
1.52359e-07
1.5236e-07
1.52361e-07
1.52362e-07
1.52363e-07
1.52364e-07
1.52365e-07
1.52366e-07
1.52367e-07
1.52368e-07
1.52368e-07
1.52369e-07
1.5237e-07
1.52371e-07
1.52372e-07
1.52373e-07
1.52374e-07
1.52375e-07
1.52376e-07
1.52377e-07
1.52378e-07
1.52379e-07
1.52379e-07
1.5238e-07
1.52381e-07
1.52382e-07
1.52383e-07
1.52384e-07
1.52385e-07
1.52386e-07
1.52387e-07
1.52388e-07
1.52389e-07
1.52389e-07
1.5239e-07
1.52391e-07
1.52392e-07
1.52393e-07
1.52394e-07
1.52395e-07
1.52396e-07
1.52397e-07
1.52398e-07
1.52399e-07
1.52399e-07
1.524e-07
1.52401e-07
1.52402e-07
1.52403e-07
1.52404e-07
1.52405e-07
1.52406e-07
1.52407e-07
1.52408e-07
1.52409e-07
1.52409e-07
1.5241e-07
1.52411e-07
1.52412e-07
1.52413e-07
1.52414e-07
1.52415e-07
1.52416e-07
1.52417e-07
1.52418e-07
1.52418e-07
1.52419e-07
1.5242e-07
1.52421e-07
1.52422e-07
1.52423e-07
1.52424e-07
1.52425e-07
1.52426e-07
1.52427e-07
1.52427e-07
1.52428e-07
1.52429e-07
1.5243e-07
1.52431e-07
1.52432e-07
1.52433e-07
1.52434e-07
1.52435e-07
1.52436e-07
1.52436e-07
1.52437e-07
1.52438e-07
1.52439e-07
1.5244e-07
1.52441e-07
1.52442e-07
1.52443e-07
1.52444e-07
1.52444e-07
1.52445e-07
1.52446e-07
1.52447e-07
1.52448e-07
1.52449e-07
1.5245e-07
1.52451e-07
1.52452e-07
1.52452e-07
1.52453e-07
1.52454e-07
1.52455e-07
1.52456e-07
1.52457e-07
1.52458e-07
1.52459e-07
1.52459e-07
1.5246e-07
1.52461e-07
1.52462e-07
1.52463e-07
1.52464e-07
1.52465e-07