/*--------------------------------*- C++ -*----------------------------------*\
| =========                 |                                                 |
| \\      /  F ield         | OpenFOAM: The Open Source CFD Toolbox           |
|  \\    /   O peration     | Version:  2512                                  |
|   \\  /    A nd           | Website:  www.openfoam.com                      |
|    \\/     M anipulation  |                                                 |
\*---------------------------------------------------------------------------*/
FoamFile
{
    version     2.0;
    format      ascii;
    arch        "LSB;label=32;scalar=64";
    class       volScalarField;
    location    "0.005";
    object      p;
}
// * * * * * * * * * * * * * * * * * * * * * * * * * * * * * * * * * * * * * //

dimensions      [1 -1 -2 0 0 0 0];

internalField   nonuniform List<scalar> 
100000
(
0
-62.1925
-90.1704
-103.118
-110.521
-115.086
-118.02
-120.017
-121.459
-122.555
-123.421
-124.127
-124.716
-125.213
-125.636
-125.996
-126.301
-126.555
-126.764
-126.93
-127.056
-127.144
-127.196
-127.213
-127.198
-127.151
-127.073
-126.966
-126.831
-126.668
-126.478
-126.262
-126.02
-125.753
-125.461
-125.146
-124.807
-124.445
-124.06
-123.652
-123.222
-122.771
-122.298
-121.804
-121.288
-120.752
-120.195
-119.617
-119.019
-118.401
-117.763
-117.105
-116.428
-115.73
-115.013
-114.277
-113.521
-112.746
-111.952
-111.139
-110.307
-109.455
-108.585
-107.696
-106.789
-105.862
-104.917
-103.954
-102.971
-101.971
-100.951
-99.9136
-98.8575
-97.783
-96.6901
-95.5788
-94.4492
-93.3013
-92.1351
-90.9505
-89.7477
-88.5266
-87.2873
-86.0297
-84.7539
-83.4598
-82.1476
-80.8171
-79.4685
-78.1018
-76.7169
-75.3139
-73.8928
-72.4536
-70.9964
-69.5211
-68.0277
-66.5164
-64.987
-63.4396
-61.8743
-60.291
-58.6897
-57.0705
-55.4334
-53.7784
-52.1055
-50.4147
-48.7061
-46.9796
-45.2353
-43.4732
-41.6933
-39.8956
-38.0802
-36.247
-34.3961
-32.5274
-30.641
-28.7369
-26.8151
-24.8755
-22.9183
-20.9434
-18.9509
-16.9407
-14.9128
-12.8674
-10.8043
-8.72359
-6.62531
-4.50946
-2.37605
-0.225088
1.9434
4.12941
6.33292
8.55391
10.7924
13.0483
15.3217
17.6124
19.9206
22.2462
24.5892
26.9495
29.3272
31.7222
34.1345
36.5641
39.0109
41.4751
43.9565
46.4551
48.971
51.504
54.0543
56.6217
59.2063
61.8081
64.4269
67.0629
69.716
72.3862
75.0734
77.7777
80.499
83.2373
85.9926
88.7649
91.5542
94.3604
97.1835
100.024
102.88
105.754
108.645
111.552
114.477
117.418
120.376
123.35
126.342
129.35
132.375
135.416
138.475
141.549
144.641
147.749
150.874
154.015
157.173
160.348
163.539
166.746
169.97
173.21
176.467
179.741
183.03
186.336
189.659
192.998
196.353
199.724
203.112
206.516
209.936
213.372
216.825
220.294
223.779
227.28
230.797
234.331
237.88
241.445
245.027
248.625
252.238
255.868
259.513
263.174
266.852
270.545
274.254
277.979
281.719
285.476
289.248
293.036
296.84
300.659
304.494
308.345
312.212
316.094
319.991
323.905
327.833
331.778
335.737
339.713
343.703
347.71
351.731
355.768
359.82
363.888
367.971
372.069
376.183
380.312
384.456
388.615
392.789
396.978
401.183
405.403
409.638
413.887
418.152
422.432
426.727
431.037
435.361
439.701
444.055
448.425
452.809
457.208
461.621
466.05
470.493
474.951
479.423
483.91
488.412
492.928
497.459
502.005
506.565
511.139
515.728
520.332
524.949
529.582
534.228
538.889
543.564
548.254
552.957
557.675
562.407
567.154
571.914
576.689
581.477
586.28
591.097
595.927
600.772
605.631
610.503
615.39
620.29
625.204
630.132
635.074
640.03
644.999
649.982
654.979
659.989
665.013
670.05
675.101
680.166
685.244
690.336
695.441
700.559
705.691
710.836
715.995
721.167
726.352
731.55
736.762
741.987
747.225
752.476
757.74
763.018
768.308
773.611
778.928
784.257
789.599
794.954
800.322
805.703
811.097
816.503
821.922
827.354
832.799
838.256
843.726
849.209
854.704
860.211
865.731
871.264
876.809
882.367
887.937
893.519
899.113
904.72
910.339
915.971
921.614
927.27
932.938
938.618
944.31
950.014
955.731
961.459
967.199
972.951
978.715
984.491
990.279
996.078
1001.89
1007.71
1013.55
1019.39
1025.25
1031.12
1037
1042.9
1048.8
1054.72
1060.64
1066.58
1072.53
1078.49
1084.47
1090.45
1096.45
1102.45
1108.47
1114.5
1120.54
1126.59
1132.65
1138.73
1144.81
1150.91
1157.01
1163.13
1169.26
1175.4
1181.55
1187.71
1193.88
1200.06
1206.26
1212.46
1218.68
1224.9
1231.14
1237.38
1243.64
1249.91
1256.18
1262.47
1268.77
1275.08
1281.4
1287.73
1294.06
1300.41
1306.77
1313.14
1319.52
1325.91
1332.31
1338.72
1345.14
1351.57
1358.01
1364.46
1370.92
1377.39
1383.87
1390.36
1396.86
1403.37
1409.89
1416.42
1422.95
1429.5
1436.06
1442.62
1449.2
1455.78
1462.38
1468.98
1475.59
1482.22
1488.85
1495.49
1502.14
1508.8
1515.47
1522.14
1528.83
1535.53
1542.23
1548.94
1555.67
1562.4
1569.14
1575.89
1582.64
1589.41
1596.18
1602.97
1609.76
1616.56
1623.37
1630.19
1637.02
1643.85
1650.7
1657.55
1664.41
1671.28
1678.15
1685.04
1691.93
1698.84
1705.75
1712.66
1719.59
1726.53
1733.47
1740.42
1747.38
1754.34
1761.32
1768.3
1775.29
1782.29
1789.3
1796.31
1803.33
1810.36
1817.4
1824.44
1831.49
1838.55
1845.62
1852.69
1859.78
1866.87
1873.96
1881.07
1888.18
1895.3
1902.42
1909.56
1916.7
1923.84
1931
1938.16
1945.33
1952.5
1959.69
1966.88
1974.07
1981.28
1988.49
1995.71
2002.93
2010.16
2017.4
2024.64
2031.89
2039.15
2046.42
2053.69
2060.96
2068.25
2075.54
2082.83
2090.14
2097.45
2104.76
2112.08
2119.41
2126.75
2134.09
2141.43
2148.79
2156.15
2163.51
2170.88
2178.26
2185.64
2193.03
2200.43
2207.83
2215.24
2222.65
2230.07
2237.49
2244.92
2252.35
2259.8
2267.24
2274.69
2282.15
2289.62
2297.08
2304.56
2312.04
2319.52
2327.01
2334.51
2342.01
2349.52
2357.03
2364.54
2372.06
2379.59
2387.12
2394.66
2402.2
2409.75
2417.3
2424.86
2432.42
2439.99
2447.56
2455.13
2462.71
2470.3
2477.89
2485.49
2493.09
2500.69
2508.3
2515.91
2523.53
2531.15
2538.78
2546.41
2554.05
2561.69
2569.33
2576.98
2584.63
2592.29
2599.95
2607.62
2615.29
2622.96
2630.64
2638.32
2646.01
2653.7
2661.39
2669.09
2676.79
2684.49
2692.2
2699.92
2707.63
2715.35
2723.08
2730.81
2738.54
2746.27
2754.01
2761.75
2769.5
2777.25
2785
2792.76
2800.52
2808.28
2816.05
2823.82
2831.59
2839.37
2847.15
2854.93
2862.71
2870.5
2878.29
2886.09
2893.89
2901.69
2909.49
2917.3
2925.11
2932.92
2940.74
2948.56
2956.38
2964.2
2972.03
2979.86
2987.69
2995.53
3003.36
3011.2
3019.05
3026.89
3034.74
3042.59
3050.44
3058.3
3066.16
3074.02
3081.88
3089.74
3097.61
3105.48
3113.35
3121.23
3129.1
3136.98
3144.86
3152.74
3160.63
3168.51
3176.4
3184.29
3192.18
3200.08
3207.97
3215.87
3223.77
3231.67
3239.58
3247.48
3255.39
3263.3
3271.21
3279.12
3287.03
3294.95
3302.87
3310.78
3318.7
3326.63
3334.55
3342.47
3350.4
3358.33
3366.25
3374.18
3382.11
3390.05
3397.98
3405.92
3413.85
3421.79
3429.73
3437.67
3445.61
3453.55
3461.49
3469.44
3477.38
3485.33
3493.27
3501.22
3509.17
3517.12
3525.07
3533.02
3540.98
3548.93
3556.88
3564.84
3572.79
3580.75
3588.7
3596.66
3604.62
3612.58
3620.54
3628.5
3636.46
3644.42
3652.38
3660.34
3668.3
3676.26
3684.22
3692.19
3700.15
3708.11
3716.08
3724.04
3732.01
3739.97
3747.94
3755.9
3763.87
3771.83
3779.8
3787.76
3795.73
3803.69
3811.66
3819.63
3827.59
3835.56
3843.52
3851.49
3859.45
3867.42
3875.38
3883.35
3891.31
3899.28
3907.24
3915.21
3923.17
3931.13
3939.1
3947.06
3955.02
3962.98
3970.94
3978.91
3986.87
3994.83
4002.79
4010.75
4018.7
4026.66
4034.62
4042.58
4050.53
4058.49
4066.44
4074.4
4082.35
4090.31
4098.26
4106.21
4114.16
4122.11
4130.06
4138.01
4145.96
4153.9
4161.85
4169.8
4177.74
4185.68
4193.63
4201.57
4209.51
4217.45
4225.39
4233.32
4241.26
4249.2
4257.13
4265.06
4273
4280.93
4288.86
4296.78
4304.71
4312.64
4320.56
4328.49
4336.41
4344.33
4352.25
4360.17
4368.09
4376
4383.92
4391.83
4399.75
4407.66
4415.57
4423.47
4431.38
4439.29
4447.19
4455.09
4462.99
4470.89
4478.79
4486.69
4494.58
4502.47
4510.36
4518.25
4526.14
4534.03
4541.91
4549.8
4557.68
4565.56
4573.44
4581.31
4589.19
4597.06
4604.93
4612.8
4620.67
4628.54
4636.4
4644.27
4652.13
4659.99
4667.84
4675.7
4683.55
4691.4
4699.25
4707.1
4714.95
4722.79
4730.63
4738.47
4746.31
4754.15
4761.98
4769.82
4777.65
4785.47
4793.3
4801.12
4808.95
4816.77
4824.59
4832.4
4840.22
4848.03
4855.84
4863.64
4871.45
4879.25
4887.06
4894.85
4902.65
4910.45
4918.24
4926.03
4933.82
4941.61
4949.39
4957.17
4964.95
4972.73
4980.5
4988.28
4996.05
5003.82
5011.58
5019.35
5027.11
5034.87
5042.62
5050.38
5058.13
5065.88
5073.63
5081.38
5089.12
5096.86
5104.6
5112.34
5120.07
5127.8
5135.53
5143.26
5150.98
5158.71
5166.43
5174.15
5181.86
5189.57
5197.29
5204.99
5212.7
5220.4
5228.11
5235.8
5243.5
5251.2
5258.89
5266.58
5274.27
5281.95
5289.64
5297.32
5304.99
5312.67
5320.35
5328.02
5335.69
5343.35
5351.02
5358.68
5366.34
5374
5381.66
5389.31
5396.97
5404.62
5412.26
5419.91
5427.56
5435.2
5442.84
5450.48
5458.12
5465.75
5473.39
5481.02
5488.65
5496.28
5503.9
5511.53
5519.16
5526.78
5534.4
5542.03
5549.65
5557.27
5564.89
5572.5
5580.12
5587.74
5595.36
5602.98
5610.59
5618.21
5625.83
5633.44
5641.05
5648.66
5656.25
-59.2704
-79.343
-94.1044
-103.539
-109.817
-114.123
-117.14
-119.315
-120.934
-122.179
-123.164
-123.961
-124.62
-125.171
-125.636
-126.028
-126.358
-126.633
-126.858
-127.037
-127.174
-127.271
-127.33
-127.355
-127.345
-127.303
-127.23
-127.127
-126.995
-126.835
-126.647
-126.434
-126.194
-125.929
-125.639
-125.325
-124.988
-124.627
-124.243
-123.837
-123.408
-122.958
-122.485
-121.992
-121.477
-120.942
-120.385
-119.808
-119.211
-118.593
-117.956
-117.298
-116.621
-115.924
-115.207
-114.471
-113.716
-112.941
-112.147
-111.334
-110.502
-109.651
-108.782
-107.893
-106.985
-106.059
-105.114
-104.151
-103.168
-102.168
-101.149
-100.111
-99.055
-97.9806
-96.8878
-95.7766
-94.647
-93.4992
-92.333
-91.1485
-89.9458
-88.7247
-87.4854
-86.2279
-84.9521
-83.6581
-82.3459
-81.0155
-79.6669
-78.3002
-76.9154
-75.5124
-74.0914
-72.6523
-71.195
-69.7198
-68.2265
-66.7152
-65.1858
-63.6385
-62.0732
-60.4899
-58.8887
-57.2696
-55.6325
-53.9775
-52.3047
-50.6139
-48.9053
-47.1789
-45.4347
-43.6726
-41.8927
-40.0951
-38.2797
-36.4465
-34.5956
-32.727
-30.8406
-28.9365
-27.0147
-25.0752
-23.118
-21.1432
-19.1507
-17.1405
-15.1127
-13.0672
-11.0042
-8.92351
-6.82526
-4.70944
-2.57606
-0.425135
1.74332
3.92929
6.13277
8.35373
10.5922
12.848
15.1214
17.4121
19.7203
22.0458
24.3888
26.749
29.1267
31.5216
33.9339
36.3635
38.8103
41.2744
43.7558
46.2544
48.7702
51.3033
53.8535
56.4209
59.0055
61.6072
64.226
66.862
69.515
72.1851
74.8723
77.5766
80.2978
83.0361
85.7914
88.5637
91.3529
94.1591
96.9822
99.8222
102.679
105.553
108.443
111.351
114.275
117.216
120.174
123.149
126.14
129.148
132.173
135.215
138.273
141.348
144.439
147.547
150.672
153.813
156.971
160.146
163.337
166.544
169.768
173.008
176.265
179.538
182.828
186.134
189.457
192.795
196.15
199.522
202.909
206.313
209.734
213.17
216.623
220.091
223.576
227.077
230.595
234.128
237.677
241.243
244.824
248.422
252.035
255.665
259.31
262.971
266.649
270.342
274.051
277.776
281.516
285.273
289.045
292.833
296.637
300.456
304.291
308.142
312.008
315.89
319.788
323.701
327.63
331.574
335.534
339.509
343.5
347.506
351.528
355.564
359.617
363.684
367.767
371.865
375.979
380.108
384.252
388.411
392.585
396.774
400.979
405.199
409.433
413.683
417.948
422.228
426.523
430.832
435.157
439.497
443.851
448.22
452.604
457.003
461.417
465.845
470.288
474.746
479.219
483.706
488.207
492.724
497.255
501.8
506.36
510.935
515.523
520.127
524.745
529.377
534.023
538.684
543.359
548.049
552.752
557.47
562.202
566.948
571.709
576.483
581.272
586.075
590.891
595.722
600.567
605.425
610.298
615.184
620.085
624.999
629.927
634.869
639.824
644.793
649.776
654.773
659.783
664.807
669.845
674.896
679.96
685.038
690.13
695.235
700.353
705.485
710.63
715.789
720.961
726.146
731.344
736.556
741.781
747.019
752.27
757.534
762.811
768.102
773.405
778.721
784.051
789.393
794.748
800.116
805.497
810.89
816.297
821.716
827.148
832.592
838.05
843.519
849.002
854.497
860.005
865.525
871.057
876.602
882.16
887.73
893.312
898.906
904.513
910.132
915.764
921.407
927.063
932.731
938.411
944.103
949.807
955.523
961.252
966.992
972.744
978.508
984.284
990.071
995.871
1001.68
1007.51
1013.34
1019.19
1025.04
1030.91
1036.8
1042.69
1048.59
1054.51
1060.44
1066.37
1072.32
1078.29
1084.26
1090.24
1096.24
1102.25
1108.26
1114.29
1120.33
1126.38
1132.45
1138.52
1144.6
1150.7
1156.81
1162.92
1169.05
1175.19
1181.34
1187.5
1193.67
1199.86
1206.05
1212.25
1218.47
1224.69
1230.93
1237.17
1243.43
1249.7
1255.97
1262.26
1268.56
1274.87
1281.19
1287.52
1293.86
1300.21
1306.57
1312.93
1319.31
1325.71
1332.11
1338.52
1344.94
1351.37
1357.81
1364.26
1370.72
1377.18
1383.66
1390.15
1396.65
1403.16
1409.68
1416.21
1422.74
1429.29
1435.85
1442.41
1448.99
1455.57
1462.17
1468.77
1475.38
1482.01
1488.64
1495.28
1501.93
1508.59
1515.26
1521.93
1528.62
1535.32
1542.02
1548.73
1555.46
1562.19
1568.93
1575.68
1582.43
1589.2
1595.97
1602.76
1609.55
1616.35
1623.16
1629.98
1636.81
1643.64
1650.49
1657.34
1664.2
1671.07
1677.94
1684.83
1691.72
1698.63
1705.54
1712.45
1719.38
1726.31
1733.26
1740.21
1747.17
1754.13
1761.11
1768.09
1775.08
1782.08
1789.08
1796.1
1803.12
1810.15
1817.19
1824.23
1831.28
1838.34
1845.41
1852.48
1859.56
1866.65
1873.75
1880.85
1887.97
1895.08
1902.21
1909.34
1916.48
1923.63
1930.79
1937.95
1945.12
1952.29
1959.48
1966.67
1973.86
1981.07
1988.28
1995.49
2002.72
2009.95
2017.19
2024.43
2031.68
2038.94
2046.2
2053.47
2060.75
2068.04
2075.33
2082.62
2089.93
2097.23
2104.55
2111.87
2119.2
2126.54
2133.88
2141.22
2148.58
2155.93
2163.3
2170.67
2178.05
2185.43
2192.82
2200.22
2207.62
2215.02
2222.44
2229.85
2237.28
2244.71
2252.14
2259.58
2267.03
2274.48
2281.94
2289.4
2296.87
2304.35
2311.82
2319.31
2326.8
2334.3
2341.8
2349.3
2356.81
2364.33
2371.85
2379.38
2386.91
2394.45
2401.99
2409.54
2417.09
2424.64
2432.21
2439.77
2447.34
2454.92
2462.5
2470.09
2477.68
2485.27
2492.87
2500.48
2508.09
2515.7
2523.32
2530.94
2538.57
2546.2
2553.83
2561.47
2569.12
2576.77
2584.42
2592.08
2599.74
2607.4
2615.07
2622.75
2630.42
2638.11
2645.79
2653.48
2661.17
2668.87
2676.57
2684.28
2691.99
2699.7
2707.42
2715.14
2722.86
2730.59
2738.32
2746.06
2753.8
2761.54
2769.29
2777.03
2784.79
2792.54
2800.3
2808.07
2815.83
2823.6
2831.37
2839.15
2846.93
2854.71
2862.5
2870.29
2878.08
2885.87
2893.67
2901.47
2909.28
2917.08
2924.89
2932.71
2940.52
2948.34
2956.16
2963.99
2971.81
2979.64
2987.48
2995.31
3003.15
3010.99
3018.83
3026.68
3034.52
3042.38
3050.23
3058.08
3065.94
3073.8
3081.66
3089.53
3097.39
3105.26
3113.14
3121.01
3128.88
3136.76
3144.64
3152.53
3160.41
3168.3
3176.18
3184.07
3191.97
3199.86
3207.76
3215.65
3223.55
3231.46
3239.36
3247.26
3255.17
3263.08
3270.99
3278.9
3286.82
3294.73
3302.65
3310.57
3318.49
3326.41
3334.33
3342.26
3350.18
3358.11
3366.04
3373.97
3381.9
3389.83
3397.76
3405.7
3413.63
3421.57
3429.51
3437.45
3445.39
3453.33
3461.28
3469.22
3477.16
3485.11
3493.06
3501
3508.95
3516.9
3524.85
3532.8
3540.76
3548.71
3556.66
3564.62
3572.57
3580.53
3588.49
3596.44
3604.4
3612.36
3620.32
3628.28
3636.24
3644.2
3652.16
3660.12
3668.08
3676.04
3684.01
3691.97
3699.93
3707.9
3715.86
3723.82
3731.79
3739.75
3747.72
3755.68
3763.65
3771.61
3779.58
3787.54
3795.51
3803.48
3811.44
3819.41
3827.37
3835.34
3843.3
3851.27
3859.23
3867.2
3875.16
3883.13
3891.09
3899.06
3907.02
3914.99
3922.95
3930.91
3938.88
3946.84
3954.8
3962.76
3970.72
3978.69
3986.65
3994.61
4002.57
4010.53
4018.48
4026.44
4034.4
4042.36
4050.31
4058.27
4066.22
4074.18
4082.13
4090.09
4098.04
4105.99
4113.94
4121.89
4129.84
4137.79
4145.74
4153.68
4161.63
4169.57
4177.52
4185.46
4193.4
4201.35
4209.29
4217.23
4225.16
4233.1
4241.04
4248.97
4256.91
4264.84
4272.77
4280.7
4288.63
4296.56
4304.49
4312.42
4320.34
4328.27
4336.19
4344.11
4352.03
4359.95
4367.87
4375.78
4383.7
4391.61
4399.52
4407.43
4415.34
4423.25
4431.16
4439.06
4446.97
4454.87
4462.77
4470.67
4478.57
4486.46
4494.36
4502.25
4510.14
4518.03
4525.92
4533.81
4541.69
4549.57
4557.46
4565.34
4573.21
4581.09
4588.97
4596.84
4604.71
4612.58
4620.45
4628.32
4636.18
4644.04
4651.9
4659.76
4667.62
4675.47
4683.33
4691.18
4699.03
4706.88
4714.72
4722.57
4730.41
4738.25
4746.09
4753.92
4761.76
4769.59
4777.42
4785.25
4793.08
4800.9
4808.72
4816.54
4824.36
4832.18
4839.99
4847.8
4855.61
4863.42
4871.23
4879.03
4886.83
4894.63
4902.43
4910.22
4918.01
4925.81
4933.59
4941.38
4949.16
4956.95
4964.73
4972.5
4980.28
4988.05
4995.82
5003.59
5011.36
5019.12
5026.88
5034.64
5042.4
5050.15
5057.91
5065.66
5073.4
5081.15
5088.89
5096.64
5104.37
5112.11
5119.84
5127.58
5135.31
5143.03
5150.76
5158.48
5166.2
5173.92
5181.63
5189.35
5197.06
5204.77
5212.47
5220.18
5227.88
5235.58
5243.27
5250.97
5258.66
5266.35
5274.04
5281.72
5289.41
5297.09
5304.77
5312.44
5320.12
5327.79
5335.46
5343.13
5350.79
5358.45
5366.11
5373.77
5381.43
5389.08
5396.74
5404.39
5412.04
5419.68
5427.33
5434.97
5442.61
5450.25
5457.89
5465.52
5473.15
5480.79
5488.42
5496.05
5503.67
5511.3
5518.92
5526.55
5534.17
5541.79
5549.41
5557.03
5564.65
5572.27
5579.89
5587.5
5595.12
5602.74
5610.35
5617.97
5625.58
5633.2
5640.81
5648.42
5656.01
-82.5695
-90.023
-97.8084
-104.512
-109.758
-113.716
-116.68
-118.917
-120.63
-121.968
-123.033
-123.897
-124.609
-125.202
-125.7
-126.118
-126.469
-126.76
-126.999
-127.189
-127.335
-127.44
-127.506
-127.536
-127.531
-127.493
-127.424
-127.324
-127.195
-127.037
-126.852
-126.64
-126.402
-126.139
-125.851
-125.538
-125.202
-124.842
-124.46
-124.054
-123.627
-123.177
-122.705
-122.213
-121.699
-121.163
-120.608
-120.031
-119.434
-118.817
-118.18
-117.523
-116.846
-116.149
-115.433
-114.697
-113.942
-113.168
-112.374
-111.562
-110.73
-109.879
-109.009
-108.121
-107.213
-106.287
-105.342
-104.379
-103.397
-102.396
-101.377
-100.34
-99.2839
-98.2095
-97.1167
-96.0056
-94.8761
-93.7282
-92.5621
-91.3776
-90.1749
-88.9538
-87.7145
-86.457
-85.1812
-83.8872
-82.5751
-81.2447
-79.8961
-78.5295
-77.1447
-75.7417
-74.3207
-72.8816
-71.4244
-69.9492
-68.4559
-66.9446
-65.4153
-63.868
-62.3027
-60.7194
-59.1182
-57.4991
-55.8621
-54.2071
-52.5343
-50.8436
-49.135
-47.4086
-45.6643
-43.9023
-42.1225
-40.3248
-38.5094
-36.6763
-34.8254
-32.9567
-31.0704
-29.1663
-27.2445
-25.305
-23.3478
-21.3729
-19.3804
-17.3703
-15.3424
-13.297
-11.234
-9.1533
-7.05506
-4.93925
-2.80588
-0.654963
1.51348
3.69944
5.90291
8.12385
10.3623
12.6181
14.8915
17.1822
19.4903
21.8159
24.1588
26.5191
28.8967
31.2916
33.7039
36.1334
38.5803
41.0444
43.5258
46.0244
48.5402
51.0732
53.6234
56.1908
58.7754
61.3771
63.9959
66.6319
69.2849
71.955
74.6422
77.3464
80.0677
82.806
85.5613
88.3335
91.1227
93.9289
96.752
99.592
102.449
105.323
108.213
111.121
114.045
116.986
119.944
122.919
125.91
128.918
131.943
134.984
138.043
141.117
144.209
147.317
150.442
153.583
156.741
159.915
163.106
166.314
169.538
172.778
176.035
179.308
182.598
185.904
189.226
192.565
195.92
199.291
202.679
206.083
209.503
212.94
216.392
219.861
223.346
226.847
230.364
233.897
237.447
241.012
244.594
248.191
251.805
255.434
259.08
262.741
266.418
270.111
273.82
277.545
281.286
285.042
288.814
292.602
296.406
300.225
304.061
307.911
311.778
315.66
319.557
323.471
327.399
331.344
335.303
339.279
343.269
347.275
351.297
355.334
359.386
363.454
367.537
371.635
375.748
379.877
384.021
388.18
392.354
396.544
400.748
404.968
409.203
413.453
417.717
421.997
426.292
430.602
434.926
439.266
443.62
447.989
452.374
456.772
461.186
465.614
470.058
474.515
478.988
483.475
487.977
492.493
497.024
501.569
506.129
510.704
515.293
519.896
524.514
529.146
533.792
538.453
543.128
547.818
552.521
557.239
561.971
566.718
571.478
576.253
581.041
585.844
590.66
595.491
600.336
605.194
610.067
614.953
619.854
624.768
629.696
634.638
639.593
644.562
649.545
654.542
659.552
664.576
669.614
674.665
679.729
684.808
689.899
695.004
700.123
705.254
710.4
715.558
720.73
725.915
731.114
736.325
741.55
746.788
752.039
757.303
762.58
767.871
773.174
778.49
783.82
789.162
794.517
799.885
805.266
810.659
816.066
821.485
826.917
832.361
837.819
843.289
848.771
854.266
859.774
865.294
870.826
876.371
881.929
887.499
893.081
898.675
904.282
909.901
915.533
921.176
926.832
932.5
938.18
943.872
949.576
955.292
961.021
966.761
972.513
978.277
984.053
989.84
995.64
1001.45
1007.27
1013.11
1018.96
1024.81
1030.68
1036.56
1042.46
1048.36
1054.28
1060.2
1066.14
1072.09
1078.06
1084.03
1090.01
1096.01
1102.01
1108.03
1114.06
1120.1
1126.15
1132.22
1138.29
1144.37
1150.47
1156.58
1162.69
1168.82
1174.96
1181.11
1187.27
1193.44
1199.62
1205.82
1212.02
1218.24
1224.46
1230.7
1236.94
1243.2
1249.47
1255.74
1262.03
1268.33
1274.64
1280.96
1287.29
1293.62
1299.97
1306.33
1312.7
1319.08
1325.47
1331.87
1338.28
1344.7
1351.13
1357.57
1364.02
1370.48
1376.95
1383.43
1389.92
1396.42
1402.93
1409.45
1415.98
1422.51
1429.06
1435.62
1442.18
1448.76
1455.34
1461.94
1468.54
1475.15
1481.78
1488.41
1495.05
1501.7
1508.36
1515.03
1521.7
1528.39
1535.08
1541.79
1548.5
1555.22
1561.96
1568.7
1575.44
1582.2
1588.97
1595.74
1602.53
1609.32
1616.12
1622.93
1629.75
1636.58
1643.41
1650.25
1657.11
1663.97
1670.84
1677.71
1684.6
1691.49
1698.39
1705.3
1712.22
1719.15
1726.08
1733.03
1739.98
1746.94
1753.9
1760.88
1767.86
1774.85
1781.85
1788.85
1795.87
1802.89
1809.92
1816.95
1824
1831.05
1838.11
1845.18
1852.25
1859.33
1866.42
1873.52
1880.62
1887.74
1894.85
1901.98
1909.11
1916.25
1923.4
1930.56
1937.72
1944.89
1952.06
1959.25
1966.44
1973.63
1980.84
1988.05
1995.26
2002.49
2009.72
2016.96
2024.2
2031.45
2038.71
2045.97
2053.24
2060.52
2067.8
2075.09
2082.39
2089.69
2097
2104.32
2111.64
2118.97
2126.3
2133.64
2140.99
2148.34
2155.7
2163.07
2170.44
2177.82
2185.2
2192.59
2199.98
2207.38
2214.79
2222.2
2229.62
2237.05
2244.48
2251.91
2259.35
2266.8
2274.25
2281.71
2289.17
2296.64
2304.11
2311.59
2319.08
2326.57
2334.06
2341.57
2349.07
2356.58
2364.1
2371.62
2379.15
2386.68
2394.22
2401.76
2409.3
2416.86
2424.41
2431.98
2439.54
2447.11
2454.69
2462.27
2469.86
2477.45
2485.04
2492.64
2500.25
2507.85
2515.47
2523.09
2530.71
2538.33
2545.97
2553.6
2561.24
2568.89
2576.53
2584.19
2591.84
2599.51
2607.17
2614.84
2622.51
2630.19
2637.87
2645.56
2653.25
2660.94
2668.64
2676.34
2684.05
2691.76
2699.47
2707.19
2714.91
2722.63
2730.36
2738.09
2745.83
2753.57
2761.31
2769.05
2776.8
2784.56
2792.31
2800.07
2807.83
2815.6
2823.37
2831.14
2838.92
2846.7
2854.48
2862.27
2870.06
2877.85
2885.64
2893.44
2901.24
2909.05
2916.85
2924.66
2932.48
2940.29
2948.11
2955.93
2963.76
2971.58
2979.41
2987.24
2995.08
3002.92
3010.76
3018.6
3026.45
3034.29
3042.14
3050
3057.85
3065.71
3073.57
3081.43
3089.3
3097.16
3105.03
3112.9
3120.78
3128.65
3136.53
3144.41
3152.29
3160.18
3168.06
3175.95
3183.84
3191.73
3199.63
3207.53
3215.42
3223.32
3231.22
3239.13
3247.03
3254.94
3262.85
3270.76
3278.67
3286.58
3294.5
3302.42
3310.34
3318.25
3326.18
3334.1
3342.02
3349.95
3357.88
3365.8
3373.73
3381.67
3389.6
3397.53
3405.47
3413.4
3421.34
3429.28
3437.22
3445.16
3453.1
3461.04
3468.99
3476.93
3484.88
3492.83
3500.77
3508.72
3516.67
3524.62
3532.57
3540.53
3548.48
3556.43
3564.39
3572.34
3580.3
3588.25
3596.21
3604.17
3612.13
3620.09
3628.04
3636
3643.97
3651.93
3659.89
3667.85
3675.81
3683.77
3691.74
3699.7
3707.66
3715.63
3723.59
3731.56
3739.52
3747.49
3755.45
3763.42
3771.38
3779.35
3787.31
3795.28
3803.24
3811.21
3819.17
3827.14
3835.11
3843.07
3851.04
3859
3866.97
3874.93
3882.9
3890.86
3898.83
3906.79
3914.75
3922.72
3930.68
3938.64
3946.61
3954.57
3962.53
3970.49
3978.45
3986.41
3994.37
4002.33
4010.29
4018.25
4026.21
4034.17
4042.12
4050.08
4058.04
4065.99
4073.95
4081.9
4089.85
4097.81
4105.76
4113.71
4121.66
4129.61
4137.56
4145.5
4153.45
4161.4
4169.34
4177.29
4185.23
4193.17
4201.11
4209.05
4216.99
4224.93
4232.87
4240.81
4248.74
4256.68
4264.61
4272.54
4280.47
4288.4
4296.33
4304.26
4312.18
4320.11
4328.03
4335.96
4343.88
4351.8
4359.72
4367.63
4375.55
4383.46
4391.38
4399.29
4407.2
4415.11
4423.02
4430.92
4438.83
4446.73
4454.64
4462.54
4470.44
4478.33
4486.23
4494.12
4502.02
4509.91
4517.8
4525.69
4533.57
4541.46
4549.34
4557.22
4565.1
4572.98
4580.86
4588.73
4596.61
4604.48
4612.35
4620.22
4628.08
4635.95
4643.81
4651.67
4659.53
4667.39
4675.24
4683.09
4690.95
4698.8
4706.64
4714.49
4722.33
4730.18
4738.02
4745.85
4753.69
4761.52
4769.36
4777.19
4785.02
4792.84
4800.67
4808.49
4816.31
4824.13
4831.94
4839.76
4847.57
4855.38
4863.19
4870.99
4878.8
4886.6
4894.4
4902.19
4909.99
4917.78
4925.57
4933.36
4941.15
4948.93
4956.71
4964.49
4972.27
4980.04
4987.82
4995.59
5003.36
5011.12
5018.89
5026.65
5034.41
5042.16
5049.92
5057.67
5065.42
5073.17
5080.92
5088.66
5096.4
5104.14
5111.88
5119.61
5127.34
5135.07
5142.8
5150.52
5158.25
5165.97
5173.68
5181.4
5189.11
5196.82
5204.53
5212.24
5219.94
5227.64
5235.34
5243.04
5250.73
5258.43
5266.12
5273.8
5281.49
5289.17
5296.85
5304.53
5312.21
5319.88
5327.55
5335.22
5342.89
5350.55
5358.22
5365.88
5373.54
5381.19
5388.85
5396.5
5404.15
5411.8
5419.45
5427.09
5434.73
5442.37
5450.01
5457.65
5465.28
5472.92
5480.55
5488.18
5495.81
5503.43
5511.06
5518.68
5526.31
5533.93
5541.55
5549.17
5556.79
5564.41
5572.03
5579.64
5587.26
5594.88
5602.49
5610.11
5617.72
5625.33
5632.95
5640.56
5648.17
5655.77
-94.2218
-97.6005
-101.997
-106.624
-110.731
-114.106
-116.797
-118.925
-120.611
-121.958
-123.047
-123.939
-124.677
-125.292
-125.809
-126.243
-126.606
-126.908
-127.155
-127.352
-127.503
-127.613
-127.683
-127.716
-127.714
-127.679
-127.612
-127.514
-127.386
-127.23
-127.046
-126.835
-126.598
-126.336
-126.048
-125.737
-125.401
-125.042
-124.66
-124.255
-123.827
-123.378
-122.907
-122.414
-121.901
-121.366
-120.81
-120.234
-119.638
-119.021
-118.384
-117.727
-117.05
-116.353
-115.637
-114.902
-114.147
-113.372
-112.579
-111.766
-110.935
-110.084
-109.214
-108.326
-107.418
-106.492
-105.548
-104.584
-103.602
-102.602
-101.583
-100.545
-99.4891
-98.4147
-97.3219
-96.2108
-95.0812
-93.9334
-92.7672
-91.5827
-90.3799
-89.1589
-87.9195
-86.662
-85.3862
-84.0922
-82.78
-81.4496
-80.101
-78.7343
-77.3495
-75.9466
-74.5255
-73.0864
-71.6292
-70.154
-68.6607
-67.1494
-65.6201
-64.0728
-62.5075
-60.9242
-59.323
-57.7039
-56.0669
-54.4119
-52.7391
-51.0484
-49.3398
-47.6134
-45.8691
-44.1071
-42.3272
-40.5296
-38.7142
-36.881
-35.0301
-33.1614
-31.275
-29.3709
-27.4491
-25.5096
-23.5524
-21.5775
-19.585
-17.5748
-15.547
-13.5015
-11.4384
-9.35778
-7.25953
-5.14371
-3.01033
-0.859401
1.30905
3.49502
5.69849
7.91945
10.1579
12.4138
14.6871
16.9778
19.286
21.6115
23.9544
26.3147
28.6923
31.0873
33.4996
35.9291
38.376
40.8401
43.3215
45.8201
48.3359
50.869
53.4192
55.9866
58.5712
61.1729
63.7917
66.4277
69.0807
71.7509
74.4381
77.1423
79.8636
82.6019
85.3572
88.1294
90.9187
93.7248
96.5479
99.388
102.245
105.119
108.009
110.917
113.841
116.782
119.74
122.715
125.706
128.714
131.739
134.78
137.839
140.914
144.005
147.113
150.238
153.379
156.537
159.711
162.902
166.11
169.334
172.574
175.831
179.104
182.394
185.7
189.022
192.361
195.716
199.088
202.475
205.879
209.3
212.736
216.189
219.657
223.142
226.643
230.161
233.694
237.243
240.809
244.39
247.988
251.601
255.231
258.876
262.537
266.215
269.908
273.617
277.342
281.082
284.839
288.611
292.399
296.203
300.022
303.857
307.708
311.575
315.457
319.354
323.267
327.196
331.14
335.1
339.075
343.066
347.072
351.094
355.131
359.183
363.251
367.334
371.432
375.545
379.674
383.818
387.977
392.151
396.341
400.546
404.765
409
413.25
417.515
421.794
426.089
430.399
434.724
439.063
443.417
447.787
452.171
456.57
460.983
465.412
469.855
474.313
478.785
483.272
487.774
492.291
496.821
501.367
505.927
510.501
515.09
519.694
524.311
528.944
533.59
538.251
542.926
547.615
552.319
557.037
561.769
566.515
571.276
576.05
580.839
585.642
590.458
595.289
600.134
604.992
609.865
614.751
619.652
624.566
629.494
634.436
639.391
644.36
649.343
654.34
659.35
664.374
669.412
674.463
679.528
684.606
689.697
694.802
699.921
705.053
710.198
715.356
720.528
725.713
730.912
736.123
741.348
746.586
751.837
757.102
762.379
767.669
772.973
778.289
783.618
788.96
794.316
799.684
805.064
810.458
815.864
821.284
826.716
832.16
837.617
843.087
848.57
854.065
859.572
865.093
870.625
876.17
881.728
887.298
892.88
898.474
904.081
909.7
915.332
920.975
926.631
932.299
937.979
943.671
949.375
955.092
960.82
966.56
972.312
978.076
983.852
989.64
995.439
1001.25
1007.07
1012.91
1018.75
1024.61
1030.48
1036.36
1042.26
1048.16
1054.08
1060
1065.94
1071.89
1077.85
1083.83
1089.81
1095.81
1101.81
1107.83
1113.86
1119.9
1125.95
1132.02
1138.09
1144.17
1150.27
1156.38
1162.49
1168.62
1174.76
1180.91
1187.07
1193.24
1199.42
1205.62
1211.82
1218.04
1224.26
1230.5
1236.74
1243
1249.27
1255.54
1261.83
1268.13
1274.44
1280.76
1287.09
1293.42
1299.77
1306.13
1312.5
1318.88
1325.27
1331.67
1338.08
1344.5
1350.94
1357.38
1363.83
1370.28
1376.75
1383.23
1389.72
1396.22
1402.73
1409.25
1415.78
1422.31
1428.86
1435.42
1441.98
1448.56
1455.14
1461.74
1468.34
1474.95
1481.58
1488.21
1494.85
1501.5
1508.16
1514.83
1521.5
1528.19
1534.89
1541.59
1548.3
1555.03
1561.76
1568.5
1575.25
1582
1588.77
1595.54
1602.33
1609.12
1615.92
1622.73
1629.55
1636.38
1643.21
1650.06
1656.91
1663.77
1670.64
1677.51
1684.4
1691.29
1698.2
1705.11
1712.02
1718.95
1725.89
1732.83
1739.78
1746.74
1753.7
1760.68
1767.66
1774.65
1781.65
1788.66
1795.67
1802.69
1809.72
1816.76
1823.8
1830.85
1837.91
1844.98
1852.05
1859.14
1866.22
1873.32
1880.43
1887.54
1894.66
1901.78
1908.92
1916.06
1923.2
1930.36
1937.52
1944.69
1951.86
1959.05
1966.24
1973.43
1980.64
1987.85
1995.07
2002.29
2009.52
2016.76
2024
2031.25
2038.51
2045.78
2053.05
2060.32
2067.61
2074.9
2082.19
2089.5
2096.81
2104.12
2111.44
2118.77
2126.11
2133.45
2140.79
2148.15
2155.51
2162.87
2170.24
2177.62
2185
2192.39
2199.79
2207.19
2214.59
2222.01
2229.43
2236.85
2244.28
2251.71
2259.16
2266.6
2274.05
2281.51
2288.97
2296.44
2303.92
2311.4
2318.88
2326.37
2333.87
2341.37
2348.87
2356.39
2363.9
2371.42
2378.95
2386.48
2394.02
2401.56
2409.11
2416.66
2424.22
2431.78
2439.35
2446.92
2454.49
2462.07
2469.66
2477.25
2484.85
2492.44
2500.05
2507.66
2515.27
2522.89
2530.51
2538.14
2545.77
2553.41
2561.05
2568.69
2576.34
2583.99
2591.65
2599.31
2606.98
2614.64
2622.32
2630
2637.68
2645.36
2653.05
2660.75
2668.45
2676.15
2683.85
2691.56
2699.27