/*--------------------------------*- C++ -*----------------------------------*\
| =========                 |                                                 |
| \\      /  F ield         | OpenFOAM: The Open Source CFD Toolbox           |
|  \\    /   O peration     | Version:  2512                                  |
|   \\  /    A nd           | Website:  www.openfoam.com                      |
|    \\/     M anipulation  |                                                 |
\*---------------------------------------------------------------------------*/
FoamFile
{
    version     2.0;
    format      ascii;
    arch        "LSB;label=32;scalar=64";
    class       volScalarField;
    location    "0.005";
    object      p_rgh;
}
// * * * * * * * * * * * * * * * * * * * * * * * * * * * * * * * * * * * * * //

dimensions      [1 -1 -2 0 0 0 0];

internalField   nonuniform List<scalar> 
100000
(
-167219
-167282
-167310
-167323
-167330
-167335
-167337
-167339
-167341
-167342
-167343
-167344
-167344
-167345
-167345
-167345
-167346
-167346
-167346
-167346
-167347
-167347
-167347
-167347
-167347
-167347
-167347
-167346
-167346
-167346
-167346
-167346
-167345
-167345
-167345
-167345
-167344
-167344
-167344
-167343
-167343
-167342
-167342
-167341
-167341
-167340
-167340
-167339
-167338
-167338
-167337
-167337
-167336
-167335
-167334
-167334
-167333
-167332
-167331
-167331
-167330
-167329
-167328
-167327
-167326
-167325
-167324
-167323
-167322
-167321
-167320
-167319
-167318
-167317
-167316
-167315
-167314
-167313
-167312
-167310
-167309
-167308
-167307
-167305
-167304
-167303
-167302
-167300
-167299
-167298
-167296
-167295
-167293
-167292
-167290
-167289
-167287
-167286
-167284
-167283
-167281
-167280
-167278
-167277
-167275
-167273
-167272
-167270
-167268
-167266
-167265
-167263
-167261
-167259
-167258
-167256
-167254
-167252
-167250
-167248
-167246
-167244
-167242
-167240
-167238
-167236
-167234
-167232
-167230
-167228
-167226
-167224
-167222
-167220
-167218
-167215
-167213
-167211
-167209
-167206
-167204
-167202
-167200
-167197
-167195
-167193
-167190
-167188
-167185
-167183
-167180
-167178
-167176
-167173
-167170
-167168
-167165
-167163
-167160
-167158
-167155
-167152
-167150
-167147
-167144
-167142
-167139
-167136
-167133
-167131
-167128
-167125
-167122
-167119
-167117
-167114
-167111
-167108
-167105
-167102
-167099
-167096
-167093
-167090
-167087
-167084
-167081
-167078
-167075
-167072
-167069
-167065
-167062
-167059
-167056
-167053
-167049
-167046
-167043
-167040
-167036
-167033
-167030
-167026
-167023
-167020
-167016
-167013
-167010
-167006
-167003
-166999
-166996
-166992
-166989
-166985
-166982
-166978
-166974
-166971
-166967
-166964
-166960
-166956
-166953
-166949
-166945
-166941
-166938
-166934
-166930
-166926
-166923
-166919
-166915
-166911
-166907
-166903
-166899
-166896
-166892
-166888
-166884
-166880
-166876
-166872
-166868
-166864
-166860
-166856
-166851
-166847
-166843
-166839
-166835
-166831
-166827
-166822
-166818
-166814
-166810
-166806
-166801
-166797
-166793
-166788
-166784
-166780
-166775
-166771
-166767
-166762
-166758
-166753
-166749
-166745
-166740
-166736
-166731
-166727
-166722
-166717
-166713
-166708
-166704
-166699
-166695
-166690
-166685
-166681
-166676
-166671
-166667
-166662
-166657
-166652
-166648
-166643
-166638
-166633
-166628
-166624
-166619
-166614
-166609
-166604
-166599
-166594
-166589
-166584
-166579
-166574
-166569
-166564
-166559
-166554
-166549
-166544
-166539
-166534
-166529
-166524
-166519
-166514
-166509
-166503
-166498
-166493
-166488
-166483
-166477
-166472
-166467
-166462
-166456
-166451
-166446
-166441
-166435
-166430
-166425
-166419
-166414
-166408
-166403
-166398
-166392
-166387
-166381
-166376
-166370
-166365
-166359
-166354
-166348
-166343
-166337
-166332
-166326
-166320
-166315
-166309
-166303
-166298
-166292
-166287
-166281
-166275
-166269
-166264
-166258
-166252
-166247
-166241
-166235
-166229
-166223
-166218
-166212
-166206
-166200
-166194
-166188
-166182
-166177
-166171
-166165
-166159
-166153
-166147
-166141
-166135
-166129
-166123
-166117
-166111
-166105
-166099
-166093
-166087
-166081
-166075
-166069
-166062
-166056
-166050
-166044
-166038
-166032
-166026
-166019
-166013
-166007
-166001
-165995
-165988
-165982
-165976
-165970
-165963
-165957
-165951
-165944
-165938
-165932
-165925
-165919
-165913
-165906
-165900
-165894
-165887
-165881
-165874
-165868
-165861
-165855
-165849
-165842
-165836
-165829
-165823
-165816
-165810
-165803
-165797
-165790
-165783
-165777
-165770
-165764
-165757
-165750
-165744
-165737
-165731
-165724
-165717
-165711
-165704
-165697
-165691
-165684
-165677
-165671
-165664
-165657
-165650
-165644
-165637
-165630
-165623
-165616
-165610
-165603
-165596
-165589
-165582
-165576
-165569
-165562
-165555
-165548
-165541
-165534
-165528
-165521
-165514
-165507
-165500
-165493
-165486
-165479
-165472
-165465
-165458
-165451
-165444
-165437
-165430
-165423
-165416
-165409
-165402
-165395
-165388
-165381
-165374
-165367
-165360
-165353
-165346
-165338
-165331
-165324
-165317
-165310
-165303
-165296
-165288
-165281
-165274
-165267
-165260
-165253
-165245
-165238
-165231
-165224
-165217
-165209
-165202
-165195
-165188
-165180
-165173
-165166
-165158
-165151
-165144
-165137
-165129
-165122
-165115
-165107
-165100
-165093
-165085
-165078
-165071
-165063
-165056
-165049
-165041
-165034
-165026
-165019
-165012
-165004
-164997
-164989
-164982
-164975
-164967
-164960
-164952
-164945
-164937
-164930
-164922
-164915
-164907
-164900
-164892
-164885
-164877
-164870
-164862
-164855
-164847
-164840
-164832
-164825
-164817
-164810
-164802
-164795
-164787
-164779
-164772
-164764
-164757
-164749
-164742
-164734
-164726
-164719
-164711
-164704
-164696
-164688
-164681
-164673
-164665
-164658
-164650
-164642
-164635
-164627
-164620
-164612
-164604
-164597
-164589
-164581
-164573
-164566
-164558
-164550
-164543
-164535
-164527
-164520
-164512
-164504
-164496
-164489
-164481
-164473
-164465
-164458
-164450
-164442
-164434
-164427
-164419
-164411
-164403
-164396
-164388
-164380
-164372
-164365
-164357
-164349
-164341
-164333
-164326
-164318
-164310
-164302
-164294
-164287
-164279
-164271
-164263
-164255
-164247
-164240
-164232
-164224
-164216
-164208
-164200
-164193
-164185
-164177
-164169
-164161
-164153
-164145
-164138
-164130
-164122
-164114
-164106
-164098
-164090
-164082
-164075
-164067
-164059
-164051
-164043
-164035
-164027
-164019
-164011
-164004
-163996
-163988
-163980
-163972
-163964
-163956
-163948
-163940
-163932
-163925
-163917
-163909
-163901
-163893
-163885
-163877
-163869
-163861
-163853
-163845
-163837
-163829
-163821
-163814
-163806
-163798
-163790
-163782
-163774
-163766
-163758
-163750
-163742
-163734
-163726
-163718
-163710
-163702
-163694
-163686
-163678
-163671
-163663
-163655
-163647
-163639
-163631
-163623
-163615
-163607
-163599
-163591
-163583
-163575
-163567
-163559
-163551
-163543
-163535
-163527
-163519
-163511
-163503
-163495
-163487
-163479
-163472
-163464
-163456
-163448
-163440
-163432
-163424
-163416
-163408
-163400
-163392
-163384
-163376
-163368
-163360
-163352
-163344
-163336
-163328
-163320
-163312
-163304
-163296
-163288
-163280
-163272
-163264
-163256
-163249
-163241
-163233
-163225
-163217
-163209
-163201
-163193
-163185
-163177
-163169
-163161
-163153
-163145
-163137
-163129
-163121
-163113
-163105
-163097
-163089
-163081
-163074
-163066
-163058
-163050
-163042
-163034
-163026
-163018
-163010
-163002
-162994
-162986
-162978
-162970
-162962
-162954
-162946
-162939
-162931
-162923
-162915
-162907
-162899
-162891
-162883
-162875
-162867
-162859
-162851
-162843
-162836
-162828
-162820
-162812
-162804
-162796
-162788
-162780
-162772
-162764
-162756
-162749
-162741
-162733
-162725
-162717
-162709
-162701
-162693
-162685
-162678
-162670
-162662
-162654
-162646
-162638
-162630
-162622
-162615
-162607
-162599
-162591
-162583
-162575
-162567
-162559
-162552
-162544
-162536
-162528
-162520
-162512
-162505
-162497
-162489
-162481
-162473
-162465
-162457
-162450
-162442
-162434
-162426
-162418
-162411
-162403
-162395
-162387
-162379
-162371
-162364
-162356
-162348
-162340
-162332
-162325
-162317
-162309
-162301
-162293
-162286
-162278
-162270
-162262
-162255
-162247
-162239
-162231
-162223
-162216
-162208
-162200
-162192
-162185
-162177
-162169
-162161
-162154
-162146
-162138
-162130
-162123
-162115
-162107
-162099
-162092
-162084
-162076
-162068
-162061
-162053
-162045
-162038
-162030
-162022
-162014
-162007
-161999
-161991
-161984
-161976
-161968
-161961
-161953
-161945
-161938
-161930
-161922
-161914
-161907
-161899
-161891
-161884
-161876
-161868
-161861
-161853
-161845
-161838
-161830
-161822
-161815
-161807
-161800
-161792
-161784
-161777
-161769
-161761
-161754
-161746
-161738
-161731
-161723
-161716
-161708
-161700
-161693
-161685
-161677
-161670
-161662
-161655
-161647
-161639
-161632
-161624
-161616
-161609
-161601
-161594
-161586
-161578
-161571
-161563
-167279
-167299
-167313
-167323
-167329
-167333
-167336
-167339
-167340
-167341
-167342
-167343
-167344
-167344
-167345
-167345
-167346
-167346
-167346
-167346
-167346
-167347
-167347
-167347
-167347
-167347
-167347
-167346
-167346
-167346
-167346
-167346
-167345
-167345
-167345
-167345
-167344
-167344
-167344
-167343
-167343
-167342
-167342
-167341
-167341
-167340
-167340
-167339
-167338
-167338
-167337
-167337
-167336
-167335
-167334
-167334
-167333
-167332
-167331
-167331
-167330
-167329
-167328
-167327
-167326
-167325
-167324
-167323
-167322
-167321
-167320
-167319
-167318
-167317
-167316
-167315
-167314
-167313
-167312
-167310
-167309
-167308
-167307
-167306
-167304
-167303
-167302
-167300
-167299
-167298
-167296
-167295
-167293
-167292
-167290
-167289
-167287
-167286
-167284
-167283
-167281
-167280
-167278
-167277
-167275
-167273
-167272
-167270
-167268
-167266
-167265
-167263
-167261
-167259
-167258
-167256
-167254
-167252
-167250
-167248
-167246
-167244
-167242
-167240
-167238
-167236
-167234
-167232
-167230
-167228
-167226
-167224
-167222
-167220
-167218
-167215
-167213
-167211
-167209
-167206
-167204
-167202
-167200
-167197
-167195
-167193
-167190
-167188
-167185
-167183
-167180
-167178
-167176
-167173
-167171
-167168
-167165
-167163
-167160
-167158
-167155
-167152
-167150
-167147
-167144
-167142
-167139
-167136
-167133
-167131
-167128
-167125
-167122
-167119
-167117
-167114
-167111
-167108
-167105
-167102
-167099
-167096
-167093
-167090
-167087
-167084
-167081
-167078
-167075
-167072
-167069
-167065
-167062
-167059
-167056
-167053
-167050
-167046
-167043
-167040
-167036
-167033
-167030
-167026
-167023
-167020
-167016
-167013
-167010
-167006
-167003
-166999
-166996
-166992
-166989
-166985
-166982
-166978
-166974
-166971
-166967
-166964
-166960
-166956
-166953
-166949
-166945
-166941
-166938
-166934
-166930
-166926
-166923
-166919
-166915
-166911
-166907
-166903
-166899
-166896
-166892
-166888
-166884
-166880
-166876
-166872
-166868
-166864
-166860
-166856
-166852
-166847
-166843
-166839
-166835
-166831
-166827
-166822
-166818
-166814
-166810
-166806
-166801
-166797
-166793
-166788
-166784
-166780
-166775
-166771
-166767
-166762
-166758
-166753
-166749
-166745
-166740
-166736
-166731
-166727
-166722
-166717
-166713
-166708
-166704
-166699
-166695
-166690
-166685
-166681
-166676
-166671
-166667
-166662
-166657
-166652
-166648
-166643
-166638
-166633
-166628
-166624
-166619
-166614
-166609
-166604
-166599
-166594
-166589
-166584
-166579
-166574
-166569
-166565
-166559
-166554
-166549
-166544
-166539
-166534
-166529
-166524
-166519
-166514
-166509
-166503
-166498
-166493
-166488
-166483
-166477
-166472
-166467
-166462
-166456
-166451
-166446
-166441
-166435
-166430
-166425
-166419
-166414
-166408
-166403
-166398
-166392
-166387
-166381
-166376
-166370
-166365
-166359
-166354
-166348
-166343
-166337
-166332
-166326
-166320
-166315
-166309
-166304
-166298
-166292
-166287
-166281
-166275
-166269
-166264
-166258
-166252
-166247
-166241
-166235
-166229
-166223
-166218
-166212
-166206
-166200
-166194
-166188
-166182
-166177
-166171
-166165
-166159
-166153
-166147
-166141
-166135
-166129
-166123
-166117
-166111
-166105
-166099
-166093
-166087
-166081
-166075
-166069
-166062
-166056
-166050
-166044
-166038
-166032
-166026
-166019
-166013
-166007
-166001
-165995
-165988
-165982
-165976
-165970
-165963
-165957
-165951
-165944
-165938
-165932
-165925
-165919
-165913
-165906
-165900
-165894
-165887
-165881
-165874
-165868
-165861
-165855
-165849
-165842
-165836
-165829
-165823
-165816
-165810
-165803
-165797
-165790
-165783
-165777
-165770
-165764
-165757
-165751
-165744
-165737
-165731
-165724
-165717
-165711
-165704
-165697
-165691
-165684
-165677
-165671
-165664
-165657
-165650
-165644
-165637
-165630
-165623
-165617
-165610
-165603
-165596
-165589
-165582
-165576
-165569
-165562
-165555
-165548
-165541
-165534
-165528
-165521
-165514
-165507
-165500
-165493
-165486
-165479
-165472
-165465
-165458
-165451
-165444
-165437
-165430
-165423
-165416
-165409
-165402
-165395
-165388
-165381
-165374
-165367
-165360
-165353
-165346
-165338
-165331
-165324
-165317
-165310
-165303
-165296
-165288
-165281
-165274
-165267
-165260
-165253
-165245
-165238
-165231
-165224
-165217
-165209
-165202
-165195
-165188
-165180
-165173
-165166
-165159
-165151
-165144
-165137
-165129
-165122
-165115
-165107
-165100
-165093
-165085
-165078
-165071
-165063
-165056
-165049
-165041
-165034
-165026
-165019
-165012
-165004
-164997
-164989
-164982
-164975
-164967
-164960
-164952
-164945
-164937
-164930
-164922
-164915
-164907
-164900
-164892
-164885
-164877
-164870
-164862
-164855
-164847
-164840
-164832
-164825
-164817
-164810
-164802
-164795
-164787
-164780
-164772
-164764
-164757
-164749
-164742
-164734
-164726
-164719
-164711
-164704
-164696
-164688
-164681
-164673
-164665
-164658
-164650
-164643
-164635
-164627
-164620
-164612
-164604
-164597
-164589
-164581
-164573
-164566
-164558
-164550
-164543
-164535
-164527
-164520
-164512
-164504
-164496
-164489
-164481
-164473
-164465
-164458
-164450
-164442
-164434
-164427
-164419
-164411
-164403
-164396
-164388
-164380
-164372
-164365
-164357
-164349
-164341
-164333
-164326
-164318
-164310
-164302
-164294
-164287
-164279
-164271
-164263
-164255
-164247
-164240
-164232
-164224
-164216
-164208
-164200
-164193
-164185
-164177
-164169
-164161
-164153
-164145
-164138
-164130
-164122
-164114
-164106
-164098
-164090
-164083
-164075
-164067
-164059
-164051
-164043
-164035
-164027
-164019
-164012
-164004
-163996
-163988
-163980
-163972
-163964
-163956
-163948
-163940
-163932
-163925
-163917
-163909
-163901
-163893
-163885
-163877
-163869
-163861
-163853
-163845
-163837
-163829
-163822
-163814
-163806
-163798
-163790
-163782
-163774
-163766
-163758
-163750
-163742
-163734
-163726
-163718
-163710
-163702
-163694
-163686
-163679
-163671
-163663
-163655
-163647
-163639
-163631
-163623
-163615
-163607
-163599
-163591
-163583
-163575
-163567
-163559
-163551
-163543
-163535
-163527
-163519
-163511
-163503
-163495
-163487
-163480
-163472
-163464
-163456
-163448
-163440
-163432
-163424
-163416
-163408
-163400
-163392
-163384
-163376
-163368
-163360
-163352
-163344
-163336
-163328
-163320
-163312
-163304
-163296
-163288
-163280
-163272
-163264
-163257
-163249
-163241
-163233
-163225
-163217
-163209
-163201
-163193
-163185
-163177
-163169
-163161
-163153
-163145
-163137
-163129
-163121
-163113
-163105
-163097
-163089
-163081
-163074
-163066
-163058
-163050
-163042
-163034
-163026
-163018
-163010
-163002
-162994
-162986
-162978
-162970
-162962
-162954
-162946
-162939
-162931
-162923
-162915
-162907
-162899
-162891
-162883
-162875
-162867
-162859
-162851
-162843
-162836
-162828
-162820
-162812
-162804
-162796
-162788
-162780
-162772
-162764
-162757
-162749
-162741
-162733
-162725
-162717
-162709
-162701
-162693
-162685
-162678
-162670
-162662
-162654
-162646
-162638
-162630
-162622
-162615
-162607
-162599
-162591
-162583
-162575
-162567
-162560
-162552
-162544
-162536
-162528
-162520
-162512
-162505
-162497
-162489
-162481
-162473
-162465
-162458
-162450
-162442
-162434
-162426
-162418
-162411
-162403
-162395
-162387
-162379
-162371
-162364
-162356
-162348
-162340
-162332
-162325
-162317
-162309
-162301
-162293
-162286
-162278
-162270
-162262
-162255
-162247
-162239
-162231
-162223
-162216
-162208
-162200
-162192
-162185
-162177
-162169
-162161
-162154
-162146
-162138
-162130
-162123
-162115
-162107
-162099
-162092
-162084
-162076
-162069
-162061
-162053
-162045
-162038
-162030
-162022
-162015
-162007
-161999
-161991
-161984
-161976
-161968
-161961
-161953
-161945
-161938
-161930
-161922
-161915
-161907
-161899
-161891
-161884
-161876
-161868
-161861
-161853
-161845
-161838
-161830
-161823
-161815
-161807
-161800
-161792
-161784
-161777
-161769
-161761
-161754
-161746
-161738
-161731
-161723
-161716
-161708
-161700
-161693
-161685
-161677
-161670
-161662
-161655
-161647
-161639
-161632
-161624
-161617
-161609
-161601
-161594
-161586
-161578
-161571
-161563
-167302
-167309
-167317
-167324
-167329
-167333
-167336
-167338
-167340
-167341
-167342
-167343
-167344
-167344
-167345
-167345
-167346
-167346
-167346
-167346
-167346
-167347
-167347
-167347
-167347
-167347
-167347
-167346
-167346
-167346
-167346
-167346
-167345
-167345
-167345
-167345
-167344
-167344
-167344
-167343
-167343
-167342
-167342
-167341
-167341
-167340
-167340
-167339
-167339
-167338
-167337
-167337
-167336
-167335
-167335
-167334
-167333
-167332
-167331
-167331
-167330
-167329
-167328
-167327
-167326
-167325
-167324
-167323
-167322
-167321
-167320
-167319
-167318
-167317
-167316
-167315
-167314
-167313
-167312
-167310
-167309
-167308
-167307
-167306
-167304
-167303
-167302
-167300
-167299
-167298
-167296
-167295
-167293
-167292
-167291
-167289
-167288
-167286
-167284
-167283
-167281
-167280
-167278
-167277
-167275
-167273
-167272
-167270
-167268
-167266
-167265
-167263
-167261
-167259
-167258
-167256
-167254
-167252
-167250
-167248
-167246
-167244
-167242
-167240
-167238
-167236
-167234
-167232
-167230
-167228
-167226
-167224
-167222
-167220
-167218
-167215
-167213
-167211
-167209
-167206
-167204
-167202
-167200
-167197
-167195
-167193
-167190
-167188
-167185
-167183
-167181
-167178
-167176
-167173
-167171
-167168
-167165
-167163
-167160
-167158
-167155
-167152
-167150
-167147
-167144
-167142
-167139
-167136
-167134
-167131
-167128
-167125
-167122
-167119
-167117
-167114
-167111
-167108
-167105
-167102
-167099
-167096
-167093
-167090
-167087
-167084
-167081
-167078
-167075
-167072
-167069
-167065
-167062
-167059
-167056
-167053
-167050
-167046
-167043
-167040
-167036
-167033
-167030
-167027
-167023
-167020
-167016
-167013
-167010
-167006
-167003
-166999
-166996
-166992
-166989
-166985
-166982
-166978
-166974
-166971
-166967
-166964
-166960
-166956
-166953
-166949
-166945
-166942
-166938
-166934
-166930
-166926
-166923
-166919
-166915
-166911
-166907
-166903
-166900
-166896
-166892
-166888
-166884
-166880
-166876
-166872
-166868
-166864
-166860
-166856
-166852
-166847
-166843
-166839
-166835
-166831
-166827
-166823
-166818
-166814
-166810
-166806
-166801
-166797
-166793
-166788
-166784
-166780
-166775
-166771
-166767
-166762
-166758
-166753
-166749
-166745
-166740
-166736
-166731
-166727
-166722
-166718
-166713
-166708
-166704
-166699
-166695
-166690
-166685
-166681
-166676
-166671
-166667
-166662
-166657
-166652
-166648
-166643
-166638
-166633
-166628
-166624
-166619
-166614
-166609
-166604
-166599
-166594
-166589
-166584
-166579
-166575
-166570
-166565
-166560
-166555
-166549
-166544
-166539
-166534
-166529
-166524
-166519
-166514
-166509
-166504
-166498
-166493
-166488
-166483
-166478
-166472
-166467
-166462
-166457
-166451
-166446
-166441
-166435
-166430
-166425
-166419
-166414
-166408
-166403
-166398
-166392
-166387
-166381
-166376
-166370
-166365
-166359
-166354
-166348
-166343
-166337
-166332
-166326
-166320
-166315
-166309
-166304
-166298
-166292
-166287
-166281
-166275
-166270
-166264
-166258
-166252
-166247
-166241
-166235
-166229
-166223
-166218
-166212
-166206
-166200
-166194
-166188
-166183
-166177
-166171
-166165
-166159
-166153
-166147
-166141
-166135
-166129
-166123
-166117
-166111
-166105
-166099
-166093
-166087
-166081
-166075
-166069
-166063
-166056
-166050
-166044
-166038
-166032
-166026
-166019
-166013
-166007
-166001
-165995
-165988
-165982
-165976
-165970
-165963
-165957
-165951
-165944
-165938
-165932
-165925
-165919
-165913
-165906
-165900
-165894
-165887
-165881
-165874
-165868
-165862
-165855
-165849
-165842
-165836
-165829
-165823
-165816
-165810
-165803
-165797
-165790
-165783
-165777
-165770
-165764
-165757
-165751
-165744
-165737
-165731
-165724
-165717
-165711
-165704
-165697
-165691
-165684
-165677
-165671
-165664
-165657
-165650
-165644
-165637
-165630
-165623
-165617
-165610
-165603
-165596
-165589
-165583
-165576
-165569
-165562
-165555
-165548
-165541
-165534
-165528
-165521
-165514
-165507
-165500
-165493
-165486
-165479
-165472
-165465
-165458
-165451
-165444
-165437
-165430
-165423
-165416
-165409
-165402
-165395
-165388
-165381
-165374
-165367
-165360
-165353
-165346
-165338
-165331
-165324
-165317
-165310
-165303
-165296
-165289
-165281
-165274
-165267
-165260
-165253
-165245
-165238
-165231
-165224
-165217
-165209
-165202
-165195
-165188
-165180
-165173
-165166
-165159
-165151
-165144
-165137
-165129
-165122
-165115
-165107
-165100
-165093
-165085
-165078
-165071
-165063
-165056
-165049
-165041
-165034
-165026
-165019
-165012
-165004
-164997
-164989
-164982
-164975
-164967
-164960
-164952
-164945
-164937
-164930
-164922
-164915
-164907
-164900
-164893
-164885
-164878
-164870
-164863
-164855
-164847
-164840
-164832
-164825
-164817
-164810
-164802
-164795
-164787
-164780
-164772
-164764
-164757
-164749
-164742
-164734
-164726
-164719
-164711
-164704
-164696
-164688
-164681
-164673
-164665
-164658
-164650
-164643
-164635
-164627
-164620
-164612
-164604
-164597
-164589
-164581
-164574
-164566
-164558
-164550
-164543
-164535
-164527
-164520
-164512
-164504
-164496
-164489
-164481
-164473
-164466
-164458
-164450
-164442
-164435
-164427
-164419
-164411
-164403
-164396
-164388
-164380
-164372
-164365
-164357
-164349
-164341
-164333
-164326
-164318
-164310
-164302
-164294
-164287
-164279
-164271
-164263
-164255
-164247
-164240
-164232
-164224
-164216
-164208
-164200
-164193
-164185
-164177
-164169
-164161
-164153
-164146
-164138
-164130
-164122
-164114
-164106
-164098
-164090
-164083
-164075
-164067
-164059
-164051
-164043
-164035
-164027
-164019
-164012
-164004
-163996
-163988
-163980
-163972
-163964
-163956
-163948
-163940
-163932
-163925
-163917
-163909
-163901
-163893
-163885
-163877
-163869
-163861
-163853
-163845
-163837
-163829
-163822
-163814
-163806
-163798
-163790
-163782
-163774
-163766
-163758
-163750
-163742
-163734
-163726
-163718
-163710
-163702
-163694
-163687
-163679
-163671
-163663
-163655
-163647
-163639
-163631
-163623
-163615
-163607
-163599
-163591
-163583
-163575
-163567
-163559
-163551
-163543
-163535
-163527
-163519
-163511
-163503
-163495
-163488
-163480
-163472
-163464
-163456
-163448
-163440
-163432
-163424
-163416
-163408
-163400
-163392
-163384
-163376
-163368
-163360
-163352
-163344
-163336
-163328
-163320
-163312
-163304
-163296
-163288
-163280
-163272
-163265
-163257
-163249
-163241
-163233
-163225
-163217
-163209
-163201
-163193
-163185
-163177
-163169
-163161
-163153
-163145
-163137
-163129
-163121
-163113
-163105
-163097
-163089
-163082
-163074
-163066
-163058
-163050
-163042
-163034
-163026
-163018
-163010
-163002
-162994
-162986
-162978
-162970
-162962
-162954
-162947
-162939
-162931
-162923
-162915
-162907
-162899
-162891
-162883
-162875
-162867
-162859
-162851
-162844
-162836
-162828
-162820
-162812
-162804
-162796
-162788
-162780
-162772
-162764
-162757
-162749
-162741
-162733
-162725
-162717
-162709
-162701
-162693
-162686
-162678
-162670
-162662
-162654
-162646
-162638
-162630
-162622
-162615
-162607
-162599
-162591
-162583
-162575
-162567
-162560
-162552
-162544
-162536
-162528
-162520
-162512
-162505
-162497
-162489
-162481
-162473
-162465
-162458
-162450
-162442
-162434
-162426
-162418
-162411
-162403
-162395
-162387
-162379
-162372
-162364
-162356
-162348
-162340
-162332
-162325
-162317
-162309
-162301
-162294
-162286
-162278
-162270
-162262
-162255
-162247
-162239
-162231
-162223
-162216
-162208
-162200
-162192
-162185
-162177
-162169
-162161
-162154
-162146
-162138
-162130
-162123
-162115
-162107
-162099
-162092
-162084
-162076
-162069
-162061
-162053
-162045
-162038
-162030
-162022
-162015
-162007
-161999
-161991
-161984
-161976
-161968
-161961
-161953
-161945
-161938
-161930
-161922
-161915
-161907
-161899
-161892
-161884
-161876
-161869
-161861
-161853
-161846
-161838
-161830
-161823
-161815
-161807
-161800
-161792
-161784
-161777
-161769
-161761
-161754
-161746
-161739
-161731
-161723
-161716
-161708
-161700
-161693
-161685
-161678
-161670
-161662
-161655
-161647
-161639
-161632
-161624
-161617
-161609
-161601
-161594
-161586
-161579
-161571
-161563
-167313
-167316
-167321
-167326
-167330
-167333
-167336
-167338
-167340
-167341
-167342
-167343
-167344
-167344
-167345
-167345
-167345
-167346
-167346
-167346
-167346
-167347
-167347
-167347
-167347
-167347
-167347
-167346
-167346
-167346
-167346
-167346
-167345
-167345
-167345
-167345
-167344
-167344
-167344
-167343
-167343
-167342
-167342
-167341
-167341
-167340
-167340
-167339
-167339
-167338
-167337
-167337
-167336
-167335
-167335
-167334
-167333
-167332
-167331
-167331
-167330
-167329
-167328
-167327
-167326
-167325
-167324
-167323
-167322
-167321
-167320
-167319
-167318
-167317
-167316
-167315
-167314
-167313
-167312
-167310
-167309
-167308
-167307
-167306
-167304
-167303
-167302
-167300
-167299
-167298
-167296
-167295
-167293
-167292
-167291
-167289
-167288
-167286
-167285
-167283
-167281
-167280
-167278
-167277
-167275
-167273
-167272
-167270
-167268
-167267
-167265
-167263
-167261
-167259
-167258
-167256
-167254
-167252
-167250
-167248
-167246
-167244
-167242
-167240
-167238
-167236
-167234
-167232
-167230
-167228
-167226
-167224
-167222
-167220
-167218
-167215
-167213
-167211
-167209
-167206
-167204
-167202
-167200
-167197
-167195
-167193
-167190
-167188
-167185
-167183
-167181
-167178
-167176
-167173
-167171
-167168
-167165
-167163
-167160
-167158
-167155
-167152
-167150
-167147
-167144
-167142
-167139
-167136
-167134
-167131
-167128
-167125
-167122
-167120
-167117
-167114
-167111
-167108
-167105
-167102
-167099
-167096
-167093
-167090
-167087
-167084
-167081
-167078
-167075
-167072
-167069
-167066
-167062
-167059
-167056
-167053
-167050
-167046
-167043
-167040
-167036
-167033
-167030
-167027
-167023
-167020
-167016
-167013
-167010
-167006
-167003
-166999
-166996
-166992
-166989
-166985
-166982
-166978
-166975
-166971
-166967
-166964
-166960
-166956
-166953
-166949
-166945
-166942
-166938
-166934
-166930
-166926
-166923
-166919
-166915
-166911
-166907
-166903
-166900
-166896
-166892
-166888
-166884
-166880
-166876
-166872
-166868
-166864
-166860
-166856
-166852
-166847
-166843
-166839
-166835
-166831
-166827
-166823
-166818
-166814
-166810
-166806
-166801
-166797
-166793
-166788
-166784
-166780
-166775
-166771
-166767
-166762
-166758
-166753
-166749
-166745
-166740
-166736
-166731
-166727
-166722
-166718
-166713
-166708
-166704
-166699
-166695
-166690
-166685
-166681
-166676
-166671
-166667
-166662
-166657
-166652
-166648
-166643
-166638
-166633
-166628
-166624
-166619
-166614
-166609
-166604
-166599
-166594
-166589
-166584
-166580
-166575
-166570
-166565
-166560
-166555
-166549
-166544
-166539
-166534
-166529
-166524
-166519
-166514
-166509
-166504
-166498
-166493
-166488
-166483
-166478
-166472
-166467
-166462
-166457
-166451
-166446
-166441
-166435
-166430
-166425
-166419
-166414
-166408
-166403
-166398
-166392
-166387
-166381
-166376
-166370
-166365
-166359
-166354
-166348
-166343
-166337
-166332
-166326
-166320
-166315
-166309
-166304
-166298
-166292
-166287
-166281
-166275
-166270
-166264
-166258
-166252
-166247
-166241
-166235
-166229
-166223
-166218
-166212
-166206
-166200
-166194
-166188
-166183
-166177
-166171
-166165
-166159
-166153
-166147
-166141
-166135
-166129
-166123
-166117
-166111
-166105
-166099
-166093
-166087
-166081
-166075
-166069
-166063
-166056
-166050
-166044
-166038
-166032
-166026
-166019
-166013
-166007
-166001
-165995
-165988
-165982
-165976
-165970
-165963
-165957
-165951
-165944
-165938
-165932
-165925
-165919
-165913
-165906
-165900
-165894
-165887
-165881
-165874
-165868
-165862
-165855
-165849
-165842
-165836
-165829
-165823
-165816
-165810
-165803
-165797
-165790
-165783
-165777
-165770
-165764
-165757
-165751
-165744
-165737
-165731
-165724
-165717
-165711
-165704
-165697
-165691
-165684
-165677
-165671
-165664
-165657
-165650
-165644
-165637
-165630
-165623
-165617
-165610
-165603
-165596
-165589
-165583
-165576
-165569
-165562
-165555
-165548
-165541
-165534
-165528
-165521
-165514
-165507
-165500
-165493
-165486
-165479
-165472
-165465
-165458
-165451
-165444
-165437
-165430
-165423
-165416
-165409
-165402
-165395
-165388
-165381
-165374
-165367
-165360
-165353
-165346
-165338
-165331
-165324
-165317
-165310
-165303
-165296
-165289
-165281
-165274
-165267
-165260
-165253
-165245
-165238
-165231
-165224
-165217
-165209
-165202
-165195
-165188
-165180
-165173
-165166
-165159
-165151
-165144
-165137
-165129
-165122
-165115
-165107
-165100
-165093
-165085
-165078
-165071
-165063
-165056
-165049
-165041
-165034
-165027
-165019
-165012
-165004
-164997
-164989
-164982
-164975
-164967
-164960
-164952
-164945
-164937
-164930
-164922
-164915
-164907
-164900
-164893
-164885
-164878
-164870
-164863
-164855
-164847
-164840
-164832
-164825
-164817
-164810
-164802
-164795
-164787
-164780
-164772
-164764
-164757
-164749
-164742
-164734
-164726
-164719
-164711
-164704
-164696
-164688
-164681
-164673
-164665
-164658
-164650
-164643
-164635
-164627
-164620
-164612
-164604
-164597
-164589
-164581
-164574
-164566
-164558
-164550
-164543
-164535
-164527
-164520
-164512
-164504
-164496
-164489
-164481
-164473
-164466
-164458
-164450
-164442
-164435
-164427
-164419