/*--------------------------------*- C++ -*----------------------------------*\
| =========                 |                                                 |
| \\      /  F ield         | OpenFOAM: The Open Source CFD Toolbox           |
|  \\    /   O peration     | Version:  2512                                  |
|   \\  /    A nd           | Website:  www.openfoam.com                      |
|    \\/     M anipulation  |                                                 |
\*---------------------------------------------------------------------------*/
FoamFile
{
    version     2.0;
    format      ascii;
    arch        "LSB;label=32;scalar=64";
    class       volScalarField;
    location    "0.005";
    object      pB;
}
// * * * * * * * * * * * * * * * * * * * * * * * * * * * * * * * * * * * * * //

dimensions      [1 1 -3 0 0 -1 0];

internalField   nonuniform List<scalar> 
100000
(
-139.198
-359.227
-557.03
-719.417
-843.296
-931.389
-988.591
-1020.42
-1032.26
-1028.9
-1014.42
-992.096
-964.497
-933.565
-900.734
-867.031
-833.175
-799.658
-766.802
-734.813
-703.811
-673.861
-644.988
-617.193
-590.456
-564.752
-540.044
-516.294
-493.464
-471.512
-450.4
-430.089
-410.543
-391.726
-373.605
-356.149
-339.327
-323.112
-307.478
-292.4
-277.854
-263.819
-250.273
-237.198
-224.575
-212.387
-200.617
-189.25
-178.271
-167.666
-157.422
-147.528
-137.971
-128.74
-119.826
-111.218
-102.907
-94.8843
-87.1422
-79.6726
-72.4683
-65.5223
-58.828
-52.3792
-46.1697
-40.1938
-34.4455
-28.919
-23.6084
-18.5077
-13.6104
-8.90995
-4.39918
-0.0706865
4.08325
8.07062
11.8996
15.5784
19.1152
22.5179
25.794
28.9507
31.9948
34.9323
37.7691
40.5103
43.1606
45.7244
48.2056
50.6078
52.9343
55.1881
57.3721
59.4888
61.5404
63.5293
65.4574
67.3266
69.1385
70.8947
72.5965
74.245
75.8416
77.3871
78.8824
80.3283
81.7254
83.0746
84.3764
85.6315
86.8408
88.0052
89.1257
90.2035
91.24
92.2368
93.1956
94.1182
95.0065
95.8626
96.6883
97.4854
98.2558
99.0012
99.723
100.423
101.102
101.761
102.402
103.024
103.63
104.22
104.793
105.352
105.896
106.426
106.941
107.443
107.932
108.406
108.868
109.317
109.752
110.174
110.584
110.981
111.365
111.736
112.095
112.442
112.778
113.102
113.416
113.719
114.013
114.296
114.571
114.837
115.095
115.346
115.589
115.825
116.054
116.277
116.493
116.704
116.909
117.108
117.302
117.491
117.674
117.852
118.025
118.193
118.356
118.514
118.668
118.816
118.96
119.1
119.235
119.366
119.493
119.616
119.736
119.852
119.966
120.077
120.185
120.291
120.395
120.497
120.597
120.694
120.79
120.884
120.976
121.066
121.154
121.239
121.322
121.403
121.481
121.557
121.63
121.701
121.769
121.834
121.897
121.958
122.016
122.072
122.126
122.177
122.227
122.275
122.322
122.367
122.41
122.453
122.494
122.534
122.574
122.612
122.65
122.687
122.724
122.76
122.795
122.83
122.864
122.898
122.931
122.963
122.995
123.026
123.057
123.087
123.116
123.145
123.173
123.2
123.227
123.253
123.278
123.303
123.327
123.351
123.374
123.397
123.419
123.441
123.462
123.482
123.502
123.521
123.54
123.558
123.575
123.592
123.609
123.624
123.64
123.655
123.669
123.682
123.696
123.708
123.721
123.732
123.744
123.754
123.765
123.775
123.785
123.794
123.803
123.812
123.82
123.828
123.835
123.843
123.849
123.856
123.862
123.868
123.873
123.878
123.883
123.888
123.892
123.896
123.899
123.903
123.906
123.909
123.911
123.913
123.915
123.917
123.919
123.92
123.921
123.922
123.923
123.924
123.924
123.924
123.924
123.924
123.924
123.924
123.923
123.923
123.922
123.921
123.92
123.919
123.917
123.916
123.914
123.913
123.911
123.909
123.907
123.905
123.903
123.901
123.899
123.896
123.894
123.891
123.889
123.886
123.884
123.881
123.878
123.875
123.872
123.869
123.866
123.863
123.86
123.857
123.853
123.85
123.847
123.843
123.84
123.837
123.833
123.83
123.826
123.823
123.819
123.815
123.812
123.808
123.804
123.8
123.797
123.793
123.789
123.785
123.781
123.778
123.774
123.77
123.766
123.762
123.758
123.754
123.75
123.746
123.742
123.738
123.734
123.73
123.725
123.721
123.717
123.713
123.709
123.705
123.701
123.697
123.692
123.688
123.684
123.68
123.676
123.671
123.667
123.663
123.659
123.655
123.65
123.646
123.642
123.638
123.633
123.629
123.625
123.621
123.616
123.612
123.608
123.604
123.599
123.595
123.591
123.586
123.582
123.578
123.573
123.569
123.565
123.561
123.556
123.552
123.548
123.543
123.539
123.535
123.53
123.526
123.522
123.517
123.513
123.509
123.505
123.5
123.496
123.492
123.487
123.483
123.479
123.474
123.47
123.466
123.461
123.457
123.453
123.448
123.444
123.44
123.435
123.431
123.427
123.422
123.418
123.414
123.409
123.405
123.401
123.396
123.392
123.388
123.384
123.379
123.375
123.371
123.366
123.362
123.358
123.353
123.349
123.345
123.34
123.336
123.332
123.327
123.323
123.319
123.314
123.31
123.306
123.301
123.297
123.293
123.288
123.284
123.28
123.276
123.271
123.267
123.263
123.258
123.254
123.25
123.245
123.241
123.237
123.232
123.228
123.224
123.22
123.215
123.211
123.207
123.202
123.198
123.194
123.189
123.185
123.181
123.176
123.172
123.168
123.164
123.159
123.155
123.151
123.146
123.142
123.138
123.133
123.129
123.125
123.121
123.116
123.112
123.108
123.103
123.099
123.095
123.091
123.086
123.082
123.078
123.073
123.069
123.065
123.061
123.056
123.052
123.048
123.044
123.039
123.035
123.031
123.026
123.022
123.018
123.014
123.009
123.005
123.001
122.997
122.992
122.988
122.984
122.979
122.975
122.971
122.967
122.962
122.958
122.954
122.95
122.945
122.941
122.937
122.933
122.928
122.924
122.92
122.916
122.911
122.907
122.903
122.899
122.894
122.89
122.886
122.882
122.877
122.873
122.869
122.865
122.86
122.856
122.852
122.848
122.843
122.839
122.835
122.831
122.826
122.822
122.818
122.814
122.809
122.805
122.801
122.797
122.793
122.788
122.784
122.78
122.776
122.771
122.767
122.763
122.759
122.754
122.75
122.746
122.742
122.738
122.733
122.729
122.725
122.721
122.716
122.712
122.708
122.704
122.7
122.695
122.691
122.687
122.683
122.679
122.674
122.67
122.666
122.662
122.657
122.653
122.649
122.645
122.641
122.636
122.632
122.628
122.624
122.62
122.615
122.611
122.607
122.603
122.598
122.594
122.59
122.586
122.582
122.577
122.573
122.569
122.565
122.56
122.556
122.552
122.548
122.544
122.539
122.535
122.531
122.527
122.523
122.518
122.514
122.51
122.506
122.501
122.497
122.493
122.489
122.484
122.48
122.476
122.472
122.468
122.463
122.459
122.455
122.451
122.446
122.442
122.438
122.434
122.429
122.425
122.421
122.416
122.412
122.408
122.404
122.399
122.395
122.391
122.387
122.382
122.378
122.374
122.369
122.365
122.361
122.356
122.352
122.348
122.343
122.339
122.335
122.33
122.326
122.321
122.317
122.313
122.308
122.304
122.299
122.295
122.291
122.286
122.282
122.277
122.273
122.268
122.264
122.259
122.255
122.25
122.246
122.241
122.236
122.232
122.227
122.223
122.218
122.213
122.208
122.204
122.199
122.194
122.19
122.185
122.18
122.175
122.17
122.165
122.16
122.156
122.151
122.146
122.141
122.135
122.13
122.125
122.12
122.115
122.11
122.104
122.099
122.094
122.089
122.083
122.078
122.072
122.067
122.061
122.055
122.05
122.044
122.038
122.032
122.026
122.02
122.014
122.008
122.002
121.996
121.99
121.983
121.977
121.97
121.964
121.957
121.95
121.943
121.936
121.929
121.922
121.915
121.907
121.9
121.892
121.885
121.877
121.869
121.861
121.853
121.844
121.836
121.827
121.819
121.81
121.801
121.792
121.782
121.773
121.763
121.753
121.743
121.733
121.722
121.711
121.701
121.689
121.678
121.666
121.655
121.643
121.63
121.618
121.605
121.592
121.578
121.564
121.55
121.536
121.521
121.506
121.491
121.475
121.459
121.442
121.425
121.408
121.39
121.372
121.353
121.334
121.315
121.294
121.274
121.253
121.231
121.209
121.186
121.162
121.138
121.113
121.088
121.062
121.035
121.008
120.979
120.95
120.92
120.89
120.858
120.826
120.792
120.758
120.723
120.687
120.65
120.611
120.572
120.531
120.49
120.447
120.403
120.357
120.31
120.262
120.213
120.162
120.109
120.055
119.999
119.942
119.883
119.822
119.76
119.695
119.629
119.561
119.49
119.417
119.343
119.266
119.186
119.104
119.02
118.933
118.844
118.752
118.657
118.559
118.458
118.354
118.246
118.136
118.022
117.904
117.783
117.658
117.529
117.396
117.259
117.118
116.973
116.823
116.668
116.508
116.344
116.174
115.999
115.818
115.632
115.44
115.241
115.037
114.826
114.609
114.384
114.153
113.914
113.668
113.414
113.151
112.881
112.602
112.314
112.017
111.71
111.393
111.067
110.73
110.382
110.023
109.652
109.27
108.875
108.467
108.047
107.612
107.164
106.701
106.222
105.729
105.219
104.692
104.148
103.586
103.006
102.406
101.786
101.146
100.484
99.7996
99.0924
98.3613
97.6053
96.8234
96.0147
95.178
94.3124
93.4165
92.4891
91.5289
90.5346
89.5046
88.4374
87.3313
86.1846
84.9955
83.7618
82.4815
81.1524
79.7718
78.3373
76.8459
75.2947
73.6803
71.9992
70.2475
68.421
66.5151
64.5249
62.445
60.2694
57.9915
55.6042
53.0991
50.4669
47.6961
44.773
41.6796
38.3919
34.8773
31.0893
26.9617
22.3978
17.2514
11.2941
4.26801
-102.684
-317.831
-509.887
-669.58
-794.033
-884.596
-945.233
-980.911
-996.663
-997.093
-986.149
-967.063
-942.382
-914.054
-883.529
-851.859
-819.791
-787.844
-756.368
-725.591
-695.657
-666.65
-638.612
-611.557
-585.48
-560.364
-536.184
-512.908
-490.503
-468.937
-448.173
-428.178
-408.92
-390.365
-372.483
-355.246
-338.625
-322.595
-307.131
-292.209
-277.808
-263.907
-250.485
-237.524
-225.008
-212.918
-201.24
-189.958
-179.059
-168.528
-158.354
-148.524
-139.027
-129.853
-120.992
-112.433
-104.168
-96.1888
-88.487
-81.0551
-73.886
-66.9728
-60.309
-53.8885
-47.7054
-41.7536
-36.0276
-30.5216
-25.2296
-20.1457
-15.2637
-10.5768
-6.07811
-1.76032
2.38422
6.36338
10.1852
13.8578
17.3891
20.787
24.0589
27.2118
30.2523
33.1867
36.0204
38.7587
41.4063
43.9674
46.4459
48.8455
51.1694
53.4206
55.602
57.716
59.765
61.7513
63.6768
65.5433
67.3526
69.1061
70.8053
72.4513
74.0453
75.5883
77.0812
78.5248
79.9198
81.2668
82.5667
83.8201
85.0278
86.1908
87.3102
88.3871
89.4229
90.4192
91.3776
92.3001
93.1885
94.0446
94.8705
95.6678
96.4385
97.184
97.9061
98.606
99.285
99.9443
100.585
101.207
101.813
102.402
102.976
103.534
104.077
104.606
105.121
105.623
106.11
106.584
107.045
107.493
107.928
108.349
108.758
109.154
109.537
109.908
110.267
110.613
110.949
111.273
111.586
111.889
112.182
112.465
112.74
113.006
113.264
113.514
113.757
113.992
114.221
114.444
114.66
114.871
115.076
115.275
115.468
115.656
115.839
116.017
116.19
116.358
116.52
116.678
116.832
116.98
117.124
117.263
117.398
117.529
117.655
117.779
117.898
118.015
118.128
118.239
118.347
118.453
118.556
118.658
118.757
118.855
118.951
119.044
119.136
119.225
119.313
119.398
119.48
119.561
119.639
119.714
119.787
119.858
119.925
119.991
120.054
120.114
120.172
120.228
120.282
120.333
120.383
120.431
120.477
120.522
120.566
120.608
120.649
120.69
120.729
120.768
120.805
120.843
120.879
120.915
120.95
120.985
121.019
121.052
121.085
121.118
121.149
121.18
121.211
121.24
121.269
121.298
121.326
121.353
121.379
121.405
121.431
121.455
121.48
121.503
121.526
121.549
121.571
121.592
121.613
121.633
121.653
121.672
121.69
121.708
121.726
121.743
121.759
121.775
121.79
121.804
121.819
121.832
121.845
121.858
121.87
121.882
121.893
121.904
121.914
121.924
121.934
121.943
121.952
121.96
121.969
121.976
121.984
121.991
121.998
122.004
122.01
122.016
122.021
122.026
122.031
122.036
122.04
122.044
122.047
122.05
122.053
122.056
122.059
122.061
122.063
122.065
122.066
122.067
122.069
122.069
122.07
122.071
122.071
122.071
122.071
122.071
122.071
122.07
122.07
122.069
122.068
122.067
122.066
122.065
122.064
122.062
122.061
122.059
122.057
122.055
122.053
122.051
122.049
122.047
122.045
122.042
122.04
122.037
122.035
122.032
122.029
122.027
122.024
122.021
122.018
122.015
122.012
122.009
122.005
122.002
121.999
121.996
121.992
121.989
121.985
121.982
121.978
121.975
121.971
121.968
121.964
121.96
121.957
121.953
121.949
121.945
121.942
121.938
121.934
121.93
121.926
121.922
121.918
121.914
121.91
121.906
121.902
121.898
121.894
121.89
121.886
121.882
121.878
121.874
121.87
121.865
121.861
121.857
121.853
121.849
121.845
121.84
121.836
121.832
121.828
121.824
121.819
121.815
121.811
121.807
121.802
121.798
121.794
121.79
121.785
121.781
121.777
121.772
121.768
121.764
121.759
121.755
121.751
121.747
121.742
121.738
121.734
121.729
121.725
121.721
121.716
121.712
121.708
121.703
121.699
121.694
121.69
121.686
121.681
121.677
121.673
121.668
121.664
121.66
121.655
121.651
121.647
121.642
121.638
121.634
121.629
121.625
121.62
121.616
121.612
121.607
121.603
121.599
121.594
121.59
121.586
121.581
121.577
121.572
121.568
121.564
121.559
121.555
121.551
121.546
121.542
121.538
121.533
121.529
121.524
121.52
121.516
121.511
121.507
121.503
121.498
121.494
121.49
121.485
121.481
121.476
121.472
121.468
121.463
121.459
121.455
121.45
121.446
121.442
121.437
121.433
121.429
121.424
121.42
121.415
121.411
121.407
121.402
121.398
121.394
121.389
121.385
121.381
121.376
121.372
121.368
121.363
121.359
121.355
121.35
121.346
121.342
121.337
121.333
121.328
121.324
121.32
121.315
121.311
121.307
121.302
121.298
121.294
121.289
121.285
121.281
121.276
121.272
121.268
121.263
121.259
121.255
121.25
121.246
121.242
121.237
121.233
121.229
121.224
121.22
121.216
121.211
121.207
121.203
121.198
121.194
121.19
121.186
121.181
121.177
121.173
121.168
121.164
121.16
121.155
121.151
121.147
121.142
121.138
121.134
121.129
121.125
121.121
121.116
121.112
121.108
121.104
121.099
121.095
121.091
121.086
121.082
121.078
121.073
121.069
121.065
121.061
121.056
121.052
121.048
121.043
121.039
121.035
121.03
121.026
121.022
121.018
121.013
121.009
121.005
121
120.996
120.992
120.988
120.983
120.979
120.975
120.97
120.966
120.962
120.958
120.953
120.949
120.945
120.94
120.936
120.932
120.928
120.923
120.919
120.915
120.91
120.906
120.902
120.898
120.893
120.889
120.885
120.881
120.876
120.872
120.868
120.863
120.859
120.855
120.851
120.846
120.842
120.838
120.834
120.829
120.825
120.821
120.817
120.812
120.808
120.804
120.799
120.795
120.791
120.787
120.782
120.778
120.774
120.77
120.765
120.761
120.757
120.753
120.748
120.744
120.74
120.736
120.731
120.727
120.723
120.718
120.714
120.71
120.706
120.701
120.697
120.693
120.689
120.684
120.68
120.676
120.672
120.667
120.663
120.659
120.654
120.65
120.646
120.642
120.637
120.633
120.629
120.625
120.62
120.616
120.612
120.607
120.603
120.599
120.595
120.59
120.586
120.582
120.577
120.573
120.569
120.564
120.56
120.556
120.551
120.547
120.543
120.539
120.534
120.53
120.526
120.521
120.517
120.512
120.508
120.504
120.499
120.495
120.491
120.486
120.482
120.477
120.473
120.469
120.464
120.46
120.455
120.451
120.447
120.442
120.438
120.433
120.429
120.424
120.42
120.415
120.411
120.406
120.402
120.397
120.392
120.388
120.383
120.379
120.374
120.369
120.365
120.36
120.356
120.351
120.346
120.341
120.337
120.332
120.327
120.322
120.317
120.313
120.308
120.303
120.298
120.293
120.288
120.283
120.278
120.273
120.268
120.263
120.258
120.253
120.247
120.242
120.237
120.231
120.226
120.221
120.215
120.21
120.204
120.199
120.193
120.188
120.182
120.176
120.17
120.164
120.159
120.153
120.147
120.14
120.134
120.128
120.122
120.115
120.109
120.102
120.096
120.089
120.082
120.076
120.069
120.062
120.055
120.047
120.04
120.033
120.025
120.018
120.01
120.002
119.994
119.986
119.978
119.969
119.961
119.952
119.943
119.934
119.925
119.916
119.907
119.897
119.887
119.877
119.867
119.857
119.846
119.835
119.824
119.813
119.802
119.79
119.778
119.766
119.754
119.741
119.728
119.715
119.702
119.688
119.674
119.659
119.644
119.629
119.614
119.598
119.582
119.565
119.548
119.531
119.513
119.495
119.476
119.457
119.437
119.417
119.396
119.375
119.353
119.331
119.308
119.285
119.26
119.236
119.21
119.184
119.157
119.13
119.101
119.072
119.042
119.012
118.98
118.948
118.914
118.88
118.845
118.808
118.771
118.733
118.693
118.653
118.611
118.568
118.524
118.478
118.432
118.384
118.334
118.283
118.23
118.176
118.121
118.063
118.004
117.944
117.881
117.816
117.75
117.682
117.611
117.539
117.464
117.387
117.307
117.226
117.141
117.054
116.965
116.873
116.778
116.68
116.579
116.475
116.367
116.257
116.143
116.025
115.904
115.779
115.651
115.518
115.381
115.24
115.094
114.944
114.789
114.63
114.465
114.295
114.12
113.94
113.754
113.562
113.363
113.159
112.948
112.731
112.507
112.275
112.037
111.79
111.536
111.274
111.004
110.725
110.437
110.14
109.833
109.517
109.19
108.853
108.505
108.146
107.776
107.394
106.999
106.591
106.171
105.736
105.288
104.825
104.347
103.853
103.343
102.817
102.273
101.711
101.13
100.531
99.9109
99.2706
98.6087
97.9247
97.2175
96.4864
95.7303
94.9485
94.1397
93.303
92.4373
91.5414
90.6139
89.6537
88.6593
87.6292
86.562
85.4559
84.3091
83.1199
81.8863
80.606
79.2769
77.8964
76.462
74.9709
73.4201
71.8062
70.1257
68.3749
66.5495
64.645
62.6567
60.579
58.4062
56.1317
53.7485
51.2485
48.6224
45.8591
42.9454
39.8641
36.5932
33.1028
29.3523
25.2854
20.8234
15.8539
10.2161
3.76541
-83.9036
-272.53
-449.205
-600.612
-722.298
-813.922
-877.969
-918.348
-939.388
-945.238
-939.568
-925.444
-905.332
-881.146
-854.336
-825.976
-796.843
-767.492
-738.309
-709.559
-681.419
-654.001
-627.375
-601.576
-576.62
-552.507
-529.227
-506.76
-485.086
-464.18
-444.014
-424.563
-405.8
-387.696
-370.228
-353.369
-337.096
-321.385
-306.215
-291.565
-277.415
-263.745
-250.538
-237.777
-225.446
-213.528
-202.01
-190.877
-180.117
-169.716
-159.663
-149.946
-140.555
-131.48
-122.711
-114.239
-106.056
-98.1525
-90.5219
-83.1565
-76.0495
-69.1942
-62.5844
-56.214
-50.0773
-44.1684
-38.4819
-33.0119
-27.7529
-22.6989
-17.8436
-13.1807
-8.70337
-4.4044
-0.276396
3.68831
7.49755
11.1592
14.6809
18.0704
21.3347
24.4808
27.5152
30.4439
33.2723
36.0054
38.6479
41.2041
43.6778
46.0726
48.3918
50.6382
52.8148
54.924
56.9682
58.9497
60.8704
62.7321
64.5365
66.2852
67.9796
69.6209
71.2102
72.7487
74.2371
75.6764
77.0673
78.4106
79.7069
80.9571
82.162
83.3225
84.4397
85.5149
86.5494
87.5448
88.5026
89.4247
90.313
91.1692
91.9953
92.7929
93.5639
94.3098
95.0321
95.7321
96.4112
97.0704
97.7107
98.333
98.9381
99.5266
100.099
100.657
101.199
101.727
102.241
102.741
103.227
103.7
104.159
104.606
105.039
105.459
105.867
106.261
106.643
107.013
107.371
107.717
108.051
108.374
108.687
108.989
109.282
109.565
109.839
110.104
110.362
110.612
110.854
111.089
111.318
111.54
111.756
111.966
112.17
112.369
112.562
112.749
112.932
113.109
113.281
113.449
113.611
113.769
113.921
114.069
114.213
114.351
114.486
114.617
114.743
114.866
114.985
115.102
115.215
115.325
115.433
115.538
115.642
115.743
115.842
115.939
116.034
116.127
116.218
116.307
116.394
116.478
116.56
116.64
116.718
116.793
116.865
116.935
117.002
117.067
117.13
117.19
117.248
117.304
117.357
117.409
117.458
117.506
117.552
117.597
117.641
117.683
117.724
117.765
117.804
117.842
117.88
117.917
117.953
117.989
118.024
118.059
118.092
118.126
118.158
118.19
118.222
118.253
118.283
118.312
118.341
118.369
118.397
118.424
118.45
118.476
118.501
118.525
118.549
118.572
118.595
118.617
118.639
118.66
118.681
118.701
118.72
118.739
118.758
118.775
118.793
118.809
118.825
118.841
118.856
118.87
118.884
118.898
118.911
118.923
118.935
118.947
118.958
118.968
118.979
118.989
118.998
119.007
119.016
119.024
119.032
119.04
119.047
119.054
119.061
119.067
119.073
119.079
119.084
119.089
119.094
119.098
119.102
119.106
119.109
119.113
119.115
119.118
119.121
119.123
119.125
119.126
119.128
119.129
119.13
119.131
119.132
119.132
119.132
119.133
119.132
119.132
119.132
119.131
119.131
119.13
119.129
119.128
119.127
119.126
119.124
119.123
119.121
119.119
119.118
119.116
119.114
119.112
119.109
119.107
119.105
119.102
119.1
119.097
119.095
119.092
119.089
119.086
119.083
119.08
119.077
119.074
119.071
119.068
119.065
119.061
119.058
119.055
119.051
119.048
119.044
119.041
119.037
119.034
119.03
119.026
119.023
119.019
119.015
119.011
119.007
119.004
119
118.996
118.992
118.988
118.984
118.98
118.976
118.972
118.968
118.964
118.96
118.956
118.952
118.948
118.944
118.939
118.935
118.931
118.927
118.923
118.918
118.914
118.91
118.906
118.902
118.897
118.893
118.889
118.884
118.88
118.876
118.872
118.867
118.863
118.859
118.854
118.85
118.846
118.841
118.837
118.833
118.828
118.824
118.82
118.815
118.811
118.807
118.802
118.798
118.793
118.789
118.785
118.78
118.776
118.771
118.767
118.763
118.758
118.754
118.749
118.745
118.741
118.736
118.732
118.727
118.723
118.719
118.714
118.71
118.705
118.701
118.696
118.692
118.688
118.683
118.679
118.674
118.67
118.666
118.661
118.657
118.652
118.648
118.643
118.639
118.635
118.63
118.626
118.621
118.617
118.612
118.608
118.604
118.599
118.595
118.59
118.586
118.581
118.577
118.573
118.568
118.564
118.559
118.555
118.551
118.546
118.542
118.537
118.533
118.528
118.524
118.52
118.515
118.511
118.506
118.502
118.497
118.493
118.489
118.484
118.48
118.475
118.471
118.467
118.462
118.458
118.453
118.449
118.444
118.44
118.436
118.431
118.427
118.422
118.418
118.414
118.409
118.405
118.4
118.396
118.392
118.387
118.383
118.378
118.374
118.369
118.365
118.361
118.356
118.352
118.347
118.343
118.339
118.334
118.33
118.325
118.321
118.317
118.312
118.308
118.303
118.299
118.295
118.29
118.286
118.281
118.277
118.273
118.268
118.264
118.259
118.255
118.251
118.246
118.242
118.238
118.233
118.229
118.224
118.22
118.216
118.211
118.207
118.202
118.198
118.194
118.189
118.185
118.181
118.176
118.172
118.167
118.163
118.159
118.154
118.15
118.145
118.141
118.137
118.132
118.128
118.124
118.119
118.115
118.111
118.106
118.102
118.097
118.093
118.089
118.084
118.08
118.076
118.071
118.067
118.062
118.058
118.054
118.049
118.045
118.041
118.036
118.032
118.028
118.023
118.019
118.015
118.01
118.006
118.001
117.997
117.993
117.988
117.984
117.98
117.975
117.971
117.967
117.962
117.958
117.954
117.949
117.945
117.941
117.936
117.932
117.928
117.923
117.919
117.914
117.91
117.906
117.901
117.897
117.893
117.888
117.884
117.88
117.875
117.871
117.867
117.862
117.858
117.854
117.849
117.845
117.841
117.836
117.832
117.828
117.823
117.819
117.815
117.81
117.806
117.802
117.797
117.793
117.789
117.784
117.78
117.776
117.771
117.767
117.763
117.758
117.754
117.75
117.745
117.741
117.737
117.732
117.728
117.724
117.719
117.715
117.711
117.706
117.702
117.698
117.693
117.689
117.685
117.68
117.676
117.671
117.667
117.663
117.658
117.654
117.65
117.645
117.641
117.637
117.632
117.628
117.623
117.619
117.615
117.61
117.606
117.602
117.597
117.593
117.588
117.584
117.58
117.575
117.571
117.566
117.562
117.558
117.553
117.549
117.544
117.54
117.535
117.531
117.527
117.522
117.518
117.513
117.509
117.504
117.5
117.495
117.491
117.486
117.482
117.477
117.473
117.468
117.463
117.459
117.454
117.45
117.445
117.441
117.436
117.431
117.427
117.422
117.417
117.413
117.408
117.403
117.399
117.394
117.389
117.384
117.38
117.375
117.37
117.365
117.36
117.355
117.35
117.345
117.341
117.336
117.331
117.326
117.321
117.315
117.31
117.305
117.3
117.295
117.29
117.284
117.279
117.274
117.268
117.263
117.258
117.252
117.247
117.241
117.236
117.23
117.224
117.219
117.213
117.207
117.201
117.195
117.189
117.183
117.177
117.171
117.165
117.158
117.152
117.145
117.139
117.132
117.126
117.119
117.112
117.105
117.098
117.091
117.084
117.077
117.069
117.062
117.054
117.047
117.039
117.031
117.023
117.015
117.006
116.998
116.989
116.98
116.972
116.963
116.953
116.944
116.935
116.925
116.915
116.905
116.895
116.884
116.874
116.863
116.852
116.841
116.829
116.818
116.806
116.793
116.781
116.768
116.755
116.742
116.728
116.715
116.7
116.686
116.671
116.656
116.64
116.624
116.608
116.592
116.574
116.557
116.539
116.521
116.502
116.483
116.463
116.443
116.422
116.401
116.379
116.357
116.334
116.31
116.286
116.261
116.236
116.209
116.182
116.155
116.127
116.097
116.067
116.037
116.005
115.973
115.939
115.905
115.87
115.833
115.796
115.758
115.718
115.678
115.636
115.593
115.549
115.503
115.456
115.408
115.359
115.308
115.255
115.201
115.145
115.088
115.029
114.968
114.906
114.841
114.775
114.707
114.636
114.564
114.489
114.412
114.333
114.251
114.167
114.08
113.99
113.898
113.803
113.705
113.604
113.5
113.393
113.283
113.169
113.051
112.93
112.806
112.677
112.544
112.408
112.267
112.121
111.971
111.817
111.657
111.493
111.323
111.148
110.968
110.782
110.59
110.392
110.188
109.978
109.76
109.536
109.305
109.067
108.821
108.567
108.305
108.035
107.756
107.469
107.172
106.865
106.549
106.223
105.887
105.539
105.181
104.81
104.428
104.034
103.627
103.207
102.773
102.325
101.862
101.384
100.891
100.382
99.8555
99.312
98.7505
98.1705
97.5712
96.952
96.3121
95.6508
94.9672
94.2605
93.5299
92.7744
91.993
91.1848
90.3487
89.4836
88.5883
87.6615
86.702
85.7083
84.6791
83.6127
82.5075
81.3618
80.1737
78.9413
77.6624
76.3349
74.9562
73.5239
72.0351
70.4869
68.8761
67.1992
65.4525
63.6319
61.7331
59.7514
57.6815
55.5178
53.2541
50.8835
48.3984
45.7899
43.0479
40.1601
37.1114
33.8828
30.45
26.7817
22.8372
18.5647
13.8979
8.75576
3.11247
-68.367
-229.543
-387.839
-527.975
-644.003
-734.341
-800.216
-844.448
-870.516
-881.953
-882.004
-873.462
-858.626
-839.322
-816.961
-792.616
-767.081
-740.94
-714.615
-688.408
-662.53
-637.126
-612.296
-588.103
-564.584
-541.761
-519.641
-498.22
-477.492
-457.442
-438.055
-419.312
-401.194
-383.68
-366.752
-350.389
-334.571
-319.28
-304.497
-290.203
-276.383
-263.019
-250.096
-237.598
-225.511
-213.821
-202.515
-191.58
-181.004
-170.775
-160.883
-151.318
-142.068
-133.125
-124.48
-116.123
-108.049
-100.247
-92.7117
-85.4354
-78.4117
-71.6342
-65.0969
-58.7939
-52.7197
-46.8686
-41.2352
-35.8139
-30.5993
-25.5855
-20.7665
-16.136
-11.6875
-7.414
-3.3084
0.636672
4.42875
8.07536
11.5839
14.9617
18.2157
21.3525
24.3783
27.2989
30.1197
32.8456
35.4811
38.0304
40.4973
42.8853
45.1978
47.4375
49.6073
51.7098
53.7472
55.7219
57.6358
59.4907
61.2884
63.0303
64.718
66.3527
67.9356
69.4677
70.95
72.3833
73.7686
75.1066
76.398
77.6437
78.8446
80.0016
81.1159
82.1887
83.2213
84.2152
85.1721
86.0936
86.9815
87.8377
88.6639
89.4617
90.2329
90.979
91.7015
92.4016
93.0805
93.7395
94.3794
95.0011
95.6054
96.193
96.7646
97.3207
97.8617
98.3882
98.9003
99.3985
99.8829
100.354
100.811
101.256
101.687
102.106
102.511
102.904
103.285
103.653
104.009
104.354
104.687
105.009
105.321
105.622
105.914
106.196
106.47
106.735
106.992
107.241
107.483
107.718
107.946
108.167
108.383
108.592
108.795
108.993
109.186
109.373
109.554
109.731
109.903
110.069
110.231
110.388
110.54
110.687
110.83
110.968
111.103
111.233
111.359
111.481
111.601
111.716
111.829
111.939
112.047
112.152
112.255
112.355
112.454
112.55
112.644
112.737
112.827
112.915
113.001
113.085
113.166
113.245
113.322
113.396
113.468
113.538
113.605
113.669
113.732
113.791
113.849
113.904
113.958
114.009
114.059
114.107
114.153
114.198
114.241
114.283
114.324
114.365
114.404
114.442
114.48
114.517
114.553
114.588
114.623
114.657
114.691
114.724
114.756
114.788
114.819
114.85
114.88
114.909
114.937
114.965
114.992
115.019
115.045
115.07
115.095
115.119
115.143
115.166
115.189
115.211
115.232
115.253
115.273
115.293
115.312
115.331
115.349
115.367
115.384
115.4
115.416
115.431
115.446
115.46
115.474
115.487
115.5
115.512
115.524
115.536
115.547
115.557
115.567
115.577
115.587
115.596
115.604
115.612
115.62
115.628
115.635
115.642
115.649
115.655
115.661
115.666
115.671
115.676
115.681
115.685
115.689
115.693
115.696
115.699
115.702
115.705
115.707
115.709
115.711
115.713
115.714
115.715
115.716
115.717
115.718
115.718
115.719
115.719
115.719
115.718
115.718
115.718
115.717
115.716
115.715
115.714
115.713
115.712
115.71
115.709
115.707
115.705
115.704
115.702
115.7
115.697
115.695
115.693
115.691
115.688
115.686
115.683
115.68
115.678
115.675
115.672
115.669
115.666
115.663
115.66
115.657
115.653
115.65
115.647
115.644
115.64
115.637
115.633
115.63
115.626
115.623
115.619
115.615
115.612
115.608
115.604
115.6
115.597
115.593
115.589
115.585
115.581
115.577
115.573
115.569
115.565
115.561
115.557
115.553
115.549
115.545
115.541
115.537
115.533
115.529
115.524
115.52
115.516
115.512
115.508
115.503
115.499
115.495
115.491
115.486
115.482
115.478
115.474
115.469
115.465
115.461
115.456
115.452
115.448
115.443
115.439
115.435
115.43
115.426
115.422
115.417
115.413
115.409
115.404
115.4
115.395
115.391
115.387
115.382
115.378
115.373
115.369
115.365
115.36
115.356
115.351
115.347
115.342
115.338
115.334
115.329
115.325
115.32
115.316
115.312
115.307
115.303
115.298
115.294
115.289
115.285
115.28
115.276
115.272
115.267
115.263
115.258
115.254
115.249
115.245
115.241
115.236
115.232
115.227
115.223
115.218
115.214
115.209
115.205
115.201
115.196
115.192
115.187
115.183
115.178
115.174
115.169
115.165
115.161
115.156
115.152
115.147
115.143
115.138
115.134
115.129
115.125
115.12
115.116
115.112
115.107
115.103
115.098
115.094
115.089
115.085
115.08
115.076
115.072
115.067
115.063
115.058
115.054
115.049
115.045
115.041
115.036
115.032
115.027
115.023
115.018
115.014
115.009
115.005
115.001
114.996
114.992
114.987
114.983
114.978
114.974
114.97
114.965
114.961
114.956
114.952
114.947
114.943
114.938
114.934
114.93
114.925
114.921
114.916
114.912
114.907
114.903
114.899
114.894
114.89
114.885
114.881
114.876
114.872
114.868
114.863
114.859
114.854
114.85
114.846
114.841
114.837
114.832
114.828
114.823
114.819
114.815
114.81
114.806
114.801
114.797
114.793
114.788
114.784
114.779
114.775
114.771
114.766
114.762
114.757
114.753
114.748
114.744
114.74
114.735
114.731
114.726
114.722
114.718
114.713
114.709
114.704
114.7
114.696
114.691
114.687
114.682
114.678
114.674
114.669
114.665
114.66
114.656
114.652
114.647
114.643
114.638
114.634
114.63
114.625
114.621
114.616
114.612
114.608
114.603
114.599
114.595
114.59
114.586
114.581
114.577
114.573
114.568
114.564
114.559
114.555
114.551
114.546
114.542
114.538
114.533
114.529
114.524
114.52
114.516
114.511
114.507
114.503
114.498
114.494
114.489
114.485
114.481
114.476
114.472
114.468
114.463
114.459
114.454
114.45
114.446
114.441
114.437
114.433
114.428
114.424
114.42
114.415
114.411
114.406
114.402
114.398
114.393
114.389
114.385
114.38
114.376
114.371
114.367
114.363
114.358
114.354
114.35
114.345
114.341
114.337
114.332