/*--------------------------------*- C++ -*----------------------------------*\
| =========                 |                                                 |
| \\      /  F ield         | OpenFOAM: The Open Source CFD Toolbox           |
|  \\    /   O peration     | Version:  2512                                  |
|   \\  /    A nd           | Website:  www.openfoam.com                      |
|    \\/     M anipulation  |                                                 |
\*---------------------------------------------------------------------------*/
FoamFile
{
    version     2.0;
    format      ascii;
    arch        "LSB;label=32;scalar=64";
    class       surfaceScalarField;
    location    "0.005";
    object      phi;
}
// * * * * * * * * * * * * * * * * * * * * * * * * * * * * * * * * * * * * * //

dimensions      [1 0 -1 0 0 0 0];

oriented        oriented;

internalField   nonuniform List<scalar> 
198900
(
0.00148027
0.000459952
0.00107348
0.000408203
0.00081416
0.000260319
0.000650182
0.000164991
0.000544535
0.000106674
0.000474829
7.07441e-05
0.000427418
4.84585e-05
0.000394091
3.43791e-05
0.000369923
2.52234e-05
0.000351893
1.90865e-05
0.000338093
1.48565e-05
0.000327281
1.18668e-05
0.000318629
9.70471e-06
0.000311573
8.10696e-06
0.00030572
6.90138e-06
0.000300794
5.97295e-06
0.000296594
5.24362e-06
0.000292976
4.65976e-06
0.000289832
4.1841e-06
0.00028708
3.79044e-06
0.000284657
3.46011e-06
0.000282514
3.1796e-06
0.000280609
2.93894e-06
0.000278912
2.73067e-06
0.000277396
2.54907e-06
0.000276038
2.3897e-06
0.00027482
2.24905e-06
0.000273726
2.12429e-06
0.000272743
2.01312e-06
0.000271859
1.91366e-06
0.000271064
1.82436e-06
0.000270348
1.74391e-06
0.000269705
1.67122e-06
0.000269128
1.60535e-06
0.00026861
1.54552e-06
0.000268146
1.49106e-06
0.000267732
1.44138e-06
0.000267363
1.39598e-06
0.000267035
1.35444e-06
0.000266745
1.31636e-06
0.00026649
1.28142e-06
0.000266267
1.24933e-06
0.000266074
1.21982e-06
0.000265907
1.19265e-06
0.000265765
1.16762e-06
0.000265647
1.14454e-06
0.000265549
1.12324e-06
0.000265472
1.10357e-06
0.000265412
1.08538e-06
0.000265369
1.06856e-06
0.000265342
1.05299e-06
0.000265329
1.03857e-06
0.00026533
1.02521e-06
0.000265342
1.01282e-06
0.000265367
1.00133e-06
0.000265402
9.90672e-07
0.000265447
9.80778e-07
0.000265501
9.71591e-07
0.000265564
9.6306e-07
0.000265634
9.55135e-07
0.000265712
9.47774e-07
0.000265797
9.40938e-07
0.000265888
9.34592e-07
0.000265986
9.28708e-07
0.000266088
9.23261e-07
0.000266196
9.18234e-07
0.000266308
9.13613e-07
0.000266425
9.09389e-07
0.000266545
9.05556e-07
0.000266669
9.02107e-07
0.000266796
8.99037e-07
0.000266926
8.96336e-07
0.000267058
8.93988e-07
0.000267193
8.91972e-07
0.000267329
8.90259e-07
0.000267466
8.88814e-07
0.000267605
8.87597e-07
0.000267745
8.86567e-07
0.000267886
8.85684e-07
0.000268027
8.84911e-07
0.00026817
8.84219e-07
0.000268313
8.83584e-07
0.000268457
8.82987e-07
0.000268601
8.82418e-07
0.000268746
8.81871e-07
0.000268891
8.81344e-07
0.000269037
8.80835e-07
0.000269184
8.80345e-07
0.000269331
8.79876e-07
0.000269479
8.79427e-07
0.000269627
8.79e-07
0.000269775
8.78592e-07
0.000269924
8.78205e-07
0.000270074
8.77835e-07
0.000270224
8.77482e-07
0.000270374
8.77144e-07
0.000270525
8.76819e-07
0.000270676
8.76504e-07
0.000270827
8.76199e-07
0.000270979
8.75901e-07
0.000271131
8.75608e-07
0.000271283
8.75319e-07
0.000271436
8.75033e-07
0.000271589
8.74752e-07
0.000271742
8.74475e-07
0.000271895
8.74205e-07
0.000272049
8.73948e-07
0.000272204
8.73709e-07
0.000272358
8.73495e-07
0.000272513
8.73317e-07
0.000272668
8.73183e-07
0.000272822
8.73102e-07
0.000272977
8.73079e-07
0.000273132
8.73119e-07
0.000273287
8.73221e-07
0.000273442
8.73381e-07
0.000273597
8.73592e-07
0.000273751
8.73843e-07
0.000273905
8.74124e-07
0.000274059
8.74422e-07
0.000274213
8.74726e-07
0.000274366
8.75027e-07
0.000274519
8.75317e-07
0.000274672
8.75591e-07
0.000274825
8.75846e-07
0.000274977
8.76081e-07
0.00027513
8.76295e-07
0.000275282
8.7649e-07
0.000275434
8.76666e-07
0.000275585
8.76825e-07
0.000275737
8.76967e-07
0.000275888
8.77094e-07
0.00027604
8.77207e-07
0.000276191
8.77305e-07
0.000276343
8.77391e-07
0.000276494
8.77463e-07
0.000276645
8.77524e-07
0.000276796
8.77573e-07
0.000276947
8.77613e-07
0.000277099
8.77645e-07
0.00027725
8.77671e-07
0.000277401
8.77694e-07
0.000277552
8.77716e-07
0.000277703
8.77742e-07
0.000277854
8.77774e-07
0.000278005
8.77815e-07
0.000278156
8.77868e-07
0.000278307
8.77934e-07
0.000278458
8.78016e-07
0.000278609
8.78112e-07
0.000278759
8.78222e-07
0.00027891
8.78346e-07
0.00027906
8.78479e-07
0.00027921
8.78621e-07
0.00027936
8.78768e-07
0.00027951
8.78919e-07
0.00027966
8.79071e-07
0.00027981
8.79223e-07
0.000279959
8.79373e-07
0.000280109
8.79521e-07
0.000280258
8.79666e-07
0.000280407
8.79807e-07
0.000280556
8.79944e-07
0.000280705
8.80078e-07
0.000280853
8.80207e-07
0.000281002
8.80331e-07
0.00028115
8.80452e-07
0.000281299
8.80569e-07
0.000281447
8.80681e-07
0.000281595
8.80791e-07
0.000281743
8.80897e-07
0.00028189
8.81e-07
0.000282038
8.81102e-07
0.000282186
8.81203e-07
0.000282333
8.81304e-07
0.00028248
8.81408e-07
0.000282627
8.81514e-07
0.000282775
8.81625e-07
0.000282921
8.81742e-07
0.000283068
8.81865e-07
0.000283215
8.81996e-07
0.000283361
8.82132e-07
0.000283508
8.82275e-07
0.000283654
8.82421e-07
0.0002838
8.8257e-07
0.000283946
8.82718e-07
0.000284091
8.82863e-07
0.000284237
8.83004e-07
0.000284382
8.83137e-07
0.000284527
8.83262e-07
0.000284672
8.83378e-07
0.000284817
8.83485e-07
0.000284962
8.83583e-07
0.000285106
8.83673e-07
0.000285251
8.83756e-07
0.000285395
8.83834e-07
0.000285539
8.83909e-07
0.000285683
8.83982e-07
0.000285828
8.84056e-07
0.000285971
8.84131e-07
0.000286115
8.84208e-07
0.000286259
8.8429e-07
0.000286403
8.84375e-07
0.000286546
8.84464e-07
0.000286689
8.84558e-07
0.000286833
8.84657e-07
0.000286976
8.84761e-07
0.000287118
8.8487e-07
0.000287261
8.84985e-07
0.000287404
8.85104e-07
0.000287546
8.85229e-07
0.000287688
8.85359e-07
0.00028783
8.85494e-07
0.000287972
8.85632e-07
0.000288114
8.85772e-07
0.000288255
8.85914e-07
0.000288397
8.86056e-07
0.000288538
8.86198e-07
0.000288679
8.86338e-07
0.000288819
8.86476e-07
0.00028896
8.86611e-07
0.0002891
8.86743e-07
0.00028924
8.86871e-07
0.00028938
8.86996e-07
0.00028952
8.87118e-07
0.00028966
8.87237e-07
0.000289799
8.87352e-07
0.000289939
8.87465e-07
0.000290078
8.87575e-07
0.000290217
8.87682e-07
0.000290355
8.87788e-07
0.000290494
8.87892e-07
0.000290632
8.87995e-07
0.000290771
8.88097e-07
0.000290909
8.88198e-07
0.000291047
8.883e-07
0.000291185
8.88403e-07
0.000291322
8.88506e-07
0.00029146
8.88611e-07
0.000291597
8.88716e-07
0.000291734
8.88823e-07
0.000291871
8.8893e-07
0.000292008
8.89037e-07
0.000292144
8.89145e-07
0.000292281
8.89252e-07
0.000292417
8.89359e-07
0.000292553
8.89466e-07
0.000292689
8.89571e-07
0.000292825
8.89676e-07
0.00029296
8.8978e-07
0.000293096
8.89884e-07
0.000293231
8.89987e-07
0.000293366
8.90091e-07
0.0002935
8.90195e-07
0.000293635
8.90299e-07
0.00029377
8.90405e-07
0.000293904
8.9051e-07
0.000294038
8.90617e-07
0.000294172
8.90724e-07
0.000294305
8.90832e-07
0.000294439
8.9094e-07
0.000294572
8.91049e-07
0.000294705
8.91158e-07
0.000294838
8.91267e-07
0.000294971
8.91377e-07
0.000295104
8.91488e-07
0.000295236
8.91599e-07
0.000295368
8.9171e-07
0.0002955
8.91821e-07
0.000295632
8.91933e-07
0.000295763
8.92044e-07
0.000295895
8.92155e-07
0.000296026
8.92266e-07
0.000296157
8.92377e-07
0.000296288
8.92487e-07
0.000296418
8.92596e-07
0.000296548
8.92705e-07
0.000296679
8.92813e-07
0.000296809
8.92921e-07
0.000296938
8.93029e-07
0.000297068
8.93137e-07
0.000297197
8.93245e-07
0.000297326
8.93353e-07
0.000297455
8.93461e-07
0.000297584
8.9357e-07
0.000297713
8.93679e-07
0.000297841
8.93789e-07
0.000297969
8.93899e-07
0.000298097
8.94009e-07
0.000298225
8.9412e-07
0.000298352
8.9423e-07
0.000298479
8.94341e-07
0.000298606
8.94452e-07
0.000298733
8.94563e-07
0.00029886
8.94674e-07
0.000298986
8.94785e-07
0.000299113
8.94896e-07
0.000299239
8.95007e-07
0.000299364
8.95118e-07
0.00029949
8.95229e-07
0.000299615
8.9534e-07
0.00029974
8.9545e-07
0.000299865
8.95561e-07
0.00029999
8.95672e-07
0.000300114
8.95783e-07
0.000300239
8.95893e-07
0.000300363
8.96004e-07
0.000300486
8.96114e-07
0.00030061
8.96224e-07
0.000300733
8.96335e-07
0.000300857
8.96445e-07
0.000300979
8.96555e-07
0.000301102
8.96665e-07
0.000301225
8.96775e-07
0.000301347
8.96885e-07
0.000301469
8.96995e-07
0.000301591
8.97105e-07
0.000301712
8.97214e-07
0.000301834
8.97324e-07
0.000301955
8.97434e-07
0.000302076
8.97543e-07
0.000302196
8.97652e-07
0.000302317
8.97762e-07
0.000302437
8.97871e-07
0.000302557
8.9798e-07
0.000302677
8.98089e-07
0.000302796
8.98198e-07
0.000302915
8.98307e-07
0.000303035
8.98416e-07
0.000303153
8.98525e-07
0.000303272
8.98634e-07
0.00030339
8.98742e-07
0.000303508
8.98851e-07
0.000303626
8.98959e-07
0.000303744
8.99068e-07
0.000303861
8.99176e-07
0.000303979
8.99284e-07
0.000304096
8.99392e-07
0.000304212
8.995e-07
0.000304329
8.99608e-07
0.000304445
8.99716e-07
0.000304561
8.99824e-07
0.000304677
8.99932e-07
0.000304793
9.0004e-07
0.000304908
9.00147e-07
0.000305023
9.00255e-07
0.000305138
9.00363e-07
0.000305252
9.0047e-07
0.000305367
9.00577e-07
0.000305481
9.00685e-07
0.000305595
9.00792e-07
0.000305708
9.00899e-07
0.000305822
9.01006e-07
0.000305935
9.01113e-07
0.000306048
9.0122e-07
0.000306161
9.01327e-07
0.000306273
9.01434e-07
0.000306385
9.01541e-07
0.000306497
9.01647e-07
0.000306609
9.01754e-07
0.00030672
9.01861e-07
0.000306832
9.01967e-07
0.000306943
9.02074e-07
0.000307053
9.0218e-07
0.000307164
9.02286e-07
0.000307274
9.02392e-07
0.000307384
9.02499e-07
0.000307494
9.02605e-07
0.000307603
9.02711e-07
0.000307713
9.02817e-07
0.000307822
9.02923e-07
0.000307931
9.03029e-07
0.000308039
9.03134e-07
0.000308147
9.0324e-07
0.000308255
9.03346e-07
0.000308363
9.03451e-07
0.000308471
9.03557e-07
0.000308578
9.03663e-07
0.000308685
9.03768e-07
0.000308792
9.03873e-07
0.000308898
9.03979e-07
0.000309005
9.04084e-07
0.000309111
9.04189e-07
0.000309217
9.04294e-07
0.000309322
9.044e-07
0.000309427
9.04505e-07
0.000309532
9.0461e-07
0.000309637
9.04715e-07
0.000309742
9.0482e-07
0.000309846
9.04924e-07
0.00030995
9.05029e-07
0.000310054
9.05134e-07
0.000310157
9.05239e-07
0.000310261
9.05343e-07
0.000310364
9.05448e-07
0.000310466
9.05553e-07
0.000310569
9.05657e-07
0.000310671
9.05762e-07
0.000310773
9.05866e-07
0.000310875
9.0597e-07
0.000310976
9.06075e-07
0.000311078
9.06179e-07
0.000311179
9.06283e-07
0.000311279
9.06387e-07
0.00031138
9.06492e-07
0.00031148
9.06596e-07
0.00031158
9.067e-07
0.00031168
9.06804e-07
0.000311779
9.06908e-07
0.000311878
9.07012e-07
0.000311977
9.07115e-07
0.000312076
9.07219e-07
0.000312174
9.07323e-07
0.000312272
9.07427e-07
0.00031237
9.07531e-07
0.000312468
9.07634e-07
0.000312565
9.07738e-07
0.000312662
9.07841e-07
0.000312759
9.07945e-07
0.000312856
9.08048e-07
0.000312952
9.08152e-07
0.000313048
9.08255e-07
0.000313144
9.08359e-07
0.000313239
9.08462e-07
0.000313335
9.08565e-07
0.00031343
9.08669e-07
0.000313524
9.08772e-07
0.000313619
9.08875e-07
0.000313713
9.08978e-07
0.000313807
9.09082e-07
0.000313901
9.09185e-07
0.000313994
9.09288e-07
0.000314087
9.09391e-07
0.00031418
9.09494e-07
0.000314273
9.09597e-07
0.000314365
9.097e-07
0.000314457
9.09803e-07
0.000314549
9.09906e-07
0.000314641
9.10008e-07
0.000314732
9.10111e-07
0.000314823
9.10214e-07
0.000314914
9.10317e-07
0.000315005
9.1042e-07
0.000315095
9.10522e-07
0.000315185
9.10625e-07
0.000315275
9.10728e-07
0.000315364
9.1083e-07
0.000315453
9.10933e-07
0.000315542
9.11035e-07
0.000315631
9.11138e-07
0.000315719
9.11241e-07
0.000315808
9.11343e-07
0.000315895
9.11446e-07
0.000315983
9.11548e-07
0.00031607
9.1165e-07
0.000316158
9.11753e-07
0.000316244
9.11855e-07
0.000316331
9.11958e-07
0.000316417
9.1206e-07
0.000316503
9.12162e-07
0.000316589
9.12265e-07
0.000316674
9.12367e-07
0.00031676
9.12469e-07
0.000316845
9.12571e-07
0.000316929
9.12674e-07
0.000317014
9.12776e-07
0.000317098
9.12878e-07
0.000317182
9.1298e-07
0.000317265
9.13082e-07
0.000317349
9.13185e-07
0.000317432
9.13287e-07
0.000317515
9.13389e-07
0.000317597
9.13491e-07
0.000317679
9.13593e-07
0.000317761
9.13695e-07
0.000317843
9.13797e-07
0.000317925
9.13899e-07
0.000318006
9.14001e-07
0.000318087
9.14103e-07
0.000318167
9.14205e-07
0.000318248
9.14307e-07
0.000318328
9.14409e-07
0.000318408
9.14511e-07
0.000318487
9.14613e-07
0.000318567
9.14715e-07
0.000318646
9.14817e-07
0.000318724
9.14919e-07
0.000318803
9.15021e-07
0.000318881
9.15123e-07
0.000318959
9.15224e-07
0.000319037
9.15326e-07
0.000319114
9.15428e-07
0.000319191
9.1553e-07
0.000319268
9.15632e-07
0.000319345
9.15734e-07
0.000319421
9.15836e-07
0.000319497
9.15937e-07
0.000319573
9.16039e-07
0.000319649
9.16141e-07
0.000319724
9.16243e-07
0.000319799
9.16345e-07
0.000319874
9.16447e-07
0.000319948
9.16548e-07
0.000320022
9.1665e-07
0.000320096
9.16752e-07
0.00032017
9.16854e-07
0.000320243
9.16956e-07
0.000320316
9.17058e-07
0.000320389
9.17159e-07
0.000320462
9.17261e-07
0.000320534
9.17363e-07
0.000320606
9.17465e-07
0.000320678
9.17567e-07
0.000320749
9.17668e-07
0.000320821
9.1777e-07
0.000320892
9.17872e-07
0.000320962
9.17974e-07
0.000321033
9.18076e-07
0.000321103
9.18178e-07
0.000321173
9.18279e-07
0.000321242
9.18381e-07
0.000321312
9.18483e-07
0.000321381
9.18585e-07
0.00032145
9.18687e-07
0.000321518
9.18789e-07
0.000321586
9.18891e-07
0.000321654
9.18993e-07
0.000321722
9.19095e-07
0.000321789
9.19197e-07
0.000321857
9.19298e-07
0.000321924
9.194e-07
0.00032199
9.19502e-07
0.000322057
9.19604e-07
0.000322123
9.19706e-07
0.000322189
9.19808e-07
0.000322254
9.1991e-07
0.000322319
9.20012e-07
0.000322385
9.20114e-07
0.000322449
9.20216e-07
0.000322514
9.20318e-07
0.000322578
9.20421e-07
0.000322642
9.20523e-07
0.000322706
9.20625e-07
0.000322769
9.20727e-07
0.000322832
9.20829e-07
0.000322895
9.20931e-07
0.000322958
9.21033e-07
0.00032302
9.21135e-07
0.000323082
9.21238e-07
0.000323144
9.2134e-07
0.000323206
9.21442e-07
0.000323267
9.21544e-07
0.000323328
9.21647e-07
0.000323389
9.21749e-07
0.000323449
9.21851e-07
0.00032351
9.21954e-07
0.00032357
9.22056e-07
0.000323629
9.22158e-07
0.000323689
9.22261e-07
0.000323748
9.22363e-07
0.000323807
9.22466e-07
0.000323865
9.22568e-07
0.000323924
9.2267e-07
0.000323982
9.22773e-07
0.00032404
9.22875e-07
0.000324097
9.22978e-07
0.000324155
9.2308e-07
0.000324212
9.23183e-07
0.000324269
9.23286e-07
0.000324325
9.23388e-07
0.000324381
9.23491e-07
0.000324437
9.23594e-07
0.000324493
9.23697e-07
0.000324549
9.23799e-07
0.000324604
9.23902e-07
0.000324659
9.24005e-07
0.000324713
9.24108e-07
0.000324768
9.24211e-07
0.000324822
9.24314e-07
0.000324876
9.24417e-07
0.00032493
9.2452e-07
0.000324983
9.24623e-07
0.000325036
9.24726e-07
0.000325089
9.24829e-07
0.000325142
9.24932e-07
0.000325194
9.25035e-07
0.000325246
9.25138e-07
0.000325298
9.25241e-07
0.000325349
9.25345e-07
0.000325401
9.25448e-07
0.000325452
9.25551e-07
0.000325502
9.25655e-07
0.000325553
9.25758e-07
0.000325603
9.25861e-07
0.000325653
9.25965e-07
0.000325703
9.26068e-07
0.000325752
9.26172e-07
0.000325802
9.26276e-07
0.000325851
9.26379e-07
0.000325899
9.26483e-07
0.000325948
9.26587e-07
0.000325996
9.2669e-07
0.000326044
9.26794e-07
0.000326092
9.26898e-07
0.000326139
9.27002e-07
0.000326186
9.27106e-07
0.000326233
9.2721e-07
0.00032628
9.27314e-07
0.000326326
9.27418e-07
0.000326372
9.27522e-07
0.000326418
9.27626e-07
0.000326464
9.27731e-07
0.000326509
9.27835e-07
0.000326554
9.27939e-07
0.000326599
9.28044e-07
0.000326644
9.28148e-07
0.000326688
9.28252e-07
0.000326732
9.28357e-07
0.000326776
9.28461e-07
0.00032682
9.28566e-07
0.000326863
9.28671e-07
0.000326906
9.28775e-07
0.000326949
9.2888e-07
0.000326992
9.28985e-07
0.000327034
9.2909e-07
0.000327076
9.29194e-07
0.000327118
9.29299e-07
0.00032716
9.29404e-07
0.000327201
9.29509e-07
0.000327242
9.29615e-07
0.000327283
9.2972e-07
0.000327324
9.29825e-07
0.000327364
9.2993e-07
0.000327404
9.30036e-07
0.000327444
9.30141e-07
0.000327484
9.30246e-07
0.000327523
9.30352e-07
0.000327562
9.30457e-07
0.000327601
9.30563e-07
0.00032764
9.30669e-07
0.000327678
9.30775e-07
0.000327716
9.3088e-07
0.000327754
9.30986e-07
0.000327792
9.31092e-07
0.000327829
9.31198e-07
0.000327867
9.31304e-07
0.000327904
9.3141e-07
0.00032794
9.31517e-07
0.000327977
9.31623e-07
0.000328013
9.31729e-07
0.000328049
9.31836e-07
0.000328085
9.31942e-07
0.00032812
9.32048e-07
0.000328155
9.32155e-07
0.00032819
9.32262e-07
0.000328225
9.32368e-07
0.00032826
9.32475e-07
0.000328294
9.32582e-07
0.000328328
9.32689e-07
0.000328362
9.32796e-07
0.000328395
9.32903e-07
0.000328429
9.3301e-07
0.000328462
9.33117e-07
0.000328495
9.33224e-07
0.000328527
9.33332e-07
0.00032856
9.33439e-07
0.000328592
9.33546e-07
0.000328624
9.33654e-07
0.000328656
9.33761e-07
0.000328687
9.33869e-07
0.000328718
9.33977e-07
0.000328749
9.34085e-07
0.00032878
9.34193e-07
0.000328811
9.34301e-07
0.000328841
9.34409e-07
0.000328871
9.34517e-07
0.000328901
9.34625e-07
0.00032893
9.34733e-07
0.00032896
9.34841e-07
0.000328989
9.3495e-07
0.000329018
9.35058e-07
0.000329047
9.35167e-07
0.000329075
9.35276e-07
0.000329103
9.35384e-07
0.000329131
9.35493e-07
0.000329159
9.35602e-07
0.000329187
9.35711e-07
0.000329214
9.3582e-07
0.000329241
9.35929e-07
0.000329268
9.36038e-07
0.000329295
9.36148e-07
0.000329321
9.36257e-07
0.000329347
9.36366e-07
0.000329373
9.36476e-07
0.000329399
9.36585e-07
0.000329425
9.36695e-07
0.00032945
9.36805e-07
0.000329475
9.36915e-07
0.0003295
9.37025e-07
0.000329525
9.37135e-07
0.000329549
9.37245e-07
0.000329573
9.37355e-07
0.000329597
9.37466e-07
0.000329621
9.37576e-07
0.000329645
9.37686e-07
0.000329668
9.37797e-07
0.000329691
9.37908e-07
0.000329714
9.38018e-07
0.000329737
9.38129e-07
0.000329759
9.3824e-07
0.000329781
9.38351e-07
0.000329803
9.38462e-07
0.000329825
9.38573e-07
0.000329847
9.38685e-07
0.000329868
9.38796e-07
0.00032989
9.38907e-07
0.000329911
9.39019e-07
0.000329931
9.39131e-07
0.000329952
9.39242e-07
0.000329972
9.39354e-07
0.000329992
9.39466e-07
0.000330012
9.39578e-07
0.000330032
9.3969e-07
0.000330052
9.39802e-07
0.000330071
9.39915e-07
0.00033009
9.40027e-07
0.000330109
9.4014e-07
0.000330128
9.40252e-07
0.000330146
9.40365e-07
0.000330165
9.40478e-07
0.000330183
9.40591e-07
0.000330201
9.40704e-07
0.000330218
9.40817e-07
0.000330236
9.4093e-07
0.000330253
9.41043e-07
0.00033027
9.41157e-07
0.000330287
9.4127e-07
0.000330304
9.41384e-07
0.00033032
9.41497e-07
0.000330336
9.41611e-07
0.000330353
9.41725e-07
0.000330368
9.41839e-07
0.000330384
9.41953e-07
0.0003304
9.42067e-07
0.000330415
9.42182e-07
0.00033043
9.42296e-07
0.000330445
9.42411e-07
0.00033046
9.42525e-07
0.000330474
9.4264e-07
0.000330489
9.42755e-07
0.000330503
9.4287e-07
0.000330517
9.42985e-07
0.00033053
9.431e-07
0.000330544
9.43215e-07
0.000330557
9.43331e-07
0.000330571
9.43446e-07
0.000330584
9.43562e-07
0.000330596
9.43677e-07
0.000330609
9.43793e-07
0.000330621
9.43909e-07
0.000330634
9.44025e-07
0.000330646
9.44141e-07
0.000330658
9.44258e-07
0.000330669
9.44374e-07
0.000330681
9.4449e-07
0.000330692
9.44607e-07
0.000330703
9.44724e-07
0.000330714
9.4484e-07
0.000330725
9.44957e-07
0.000330736
9.45074e-07
0.000330746
9.45191e-07
0.000330756
9.45309e-07
0.000330766
9.45426e-07
0.000330776
9.45543e-07
0.000330786
9.45661e-07
0.000330795
9.45779e-07
0.000330805
9.45897e-07
0.000330814
9.46014e-07
0.000330823
9.46133e-07
0.000330832
9.46251e-07
0.00033084
9.46369e-07
0.000330849
9.46487e-07
0.000330857
9.46606e-07
0.000330865
9.46725e-07
0.000330873
9.46843e-07
0.000330881
9.46962e-07
0.000330889
9.47081e-07
0.000330896
9.472e-07
0.000330904
9.4732e-07
0.000330911
9.47439e-07
0.000330918
9.47559e-07
0.000330924
9.47678e-07
0.000330931
9.47798e-07
0.000330938
9.47918e-07
0.000330944
9.48038e-07
0.00033095
9.48158e-07
0.000330956
9.48278e-07
0.000330962
9.48398e-07
0.000330967
9.48519e-07
0.000330973
9.48639e-07
0.000330978
9.4876e-07
0.000330983
9.48881e-07
0.000330988
9.49002e-07
0.000330993
9.49123e-07
0.000330998
9.49244e-07
0.000331002
9.49366e-07
0.000331007
9.49487e-07
0.000331011
9.49609e-07
0.000331015
9.4973e-07
0.000331019
9.49852e-07
0.000331023
9.49974e-07
0.000331026
9.50096e-07
0.00033103
9.50218e-07
0.000331033
9.50341e-07
0.000331036
9.50463e-07
0.000331039
9.50586e-07
0.000331042
9.50709e-07
0.000331045
9.50831e-07
0.000331047
9.50954e-07
0.00033105
9.51078e-07
0.000331052
9.51201e-07
0.000331054
9.51324e-07
0.000331056
9.51448e-07
0.000331058
9.51571e-07
0.00033106
9.51695e-07
0.000331061
9.51819e-07
0.000331063
9.51943e-07
0.000331064
9.52067e-07
0.000331065
9.52192e-07
0.000331066
9.52316e-07
0.000331067
9.52441e-07
0.000331067
9.52565e-07
0.000331068
9.5269e-07
0.000331068
9.52815e-07
0.000331069
9.5294e-07
0.000331069
9.53065e-07
0.000331069
9.53191e-07
0.000331069
9.53316e-07
0.000331069
9.53442e-07
0.000331068
9.53568e-07
0.000331068
9.53694e-07
0.000331067
9.5382e-07
0.000331066
9.53946e-07
0.000331065
9.54072e-07
0.000331064
9.54198e-07
0.000331063
9.54325e-07
0.000331062
9.54452e-07
0.00033106
9.54578e-07
0.000331059
9.54705e-07
0.000331057
9.54832e-07
0.000331055
9.5496e-07
0.000331054
9.55087e-07
0.000331051
9.55214e-07
0.000331049
9.55342e-07
0.000331047
9.5547e-07
0.000331045
9.55598e-07
0.000331042
9.55725e-07
0.00033104
9.55854e-07
0.000331037
9.55982e-07
0.000331034
9.5611e-07
0.000331031
9.56238e-07
0.000331028
9.56367e-07
0.000331025
9.56496e-07
0.000331021
9.56624e-07
0.000331018
9.56753e-07
0.000331014
9.56882e-07
0.000331011
9.57011e-07
0.000331007
9.5714e-07
0.000331003
9.5727e-07
0.000330999
9.57399e-07
0.000330995
9.57528e-07
0.000330991
9.57658e-07
0.000330986
9.57788e-07
0.000330982
9.57917e-07
0.000330977
9.58047e-07
0.000330973
9.58177e-07
0.000330968
9.58307e-07
0.000330963
9.58437e-07
0.000330958
9.58567e-07
0.000330953
9.58697e-07
0.000330948
9.58827e-07
0.000330943
9.58957e-07
0.000330937
9.59087e-07
0.000330932
9.59217e-07
0.000330926
9.59347e-07
0.000330921
9.59477e-07
0.000330915
9.59607e-07
0.000330909
9.59737e-07
0.000330903
9.59867e-07
0.000330897
9.59997e-07
0.000330891
9.60127e-07
0.000330885
9.60257e-07
0.000330879
9.60386e-07
0.000330872
9.60516e-07
0.000330866
9.60645e-07
0.00033086
9.60774e-07
0.000330853
9.60903e-07
0.000330846
9.61032e-07
0.000330839
9.61161e-07
0.000330833
9.61289e-07
0.000330826
9.61417e-07
0.000330819
9.61544e-07
0.000330812
9.61671e-07
0.000330804
9.61798e-07
0.000330797
9.61924e-07
0.00033079
9.6205e-07
0.000330783
9.62175e-07
0.000330775
9.623e-07
0.000330768
9.62424e-07
0.00033076
9.62547e-07
0.000330752
9.62669e-07
0.000330745
9.62791e-07
0.000330737
9.62911e-07
0.000330729
9.63031e-07
0.000330721
9.6315e-07
0.000330713
9.63267e-07
0.000330705
9.63383e-07
0.000330697
9.63498e-07
0.000330689
9.63611e-07
0.000330681
9.63723e-07
0.000330673
9.63833e-07
0.000330665
9.63941e-07
0.000330657
9.64047e-07
0.000330648
9.64151e-07
0.00033064
9.64253e-07
0.000330632
9.64352e-07
0.000330624
9.64448e-07
0.000330615
9.64541e-07
0.000330607
9.64631e-07
0.000330599
9.64718e-07
0.00033059
9.64801e-07
0.000330582
9.6488e-07
0.000330573
9.64955e-07
0.000330565
9.65026e-07
0.000330557
9.65091e-07
0.000330549
9.65151e-07
0.00033054
9.65205e-07
0.000330532
9.65253e-07
0.000330524
9.65295e-07
0.000330516
9.65329e-07
0.000330508
9.65355e-07
0.0003305
9.65373e-07
0.000330492
9.65382e-07
0.000330484
9.65382e-07
0.000330476
9.6537e-07
0.000330469
9.65348e-07
0.000330461
9.65313e-07
0.000330454
9.65265e-07
0.000330447
9.65203e-07
0.00033044
9.65125e-07
0.000330434
9.6503e-07
0.000330427
9.64918e-07
0.000330421
9.64786e-07
0.000330415
9.64633e-07
0.000330409
9.64457e-07
0.000330404
9.64256e-07
0.000330399
9.64029e-07
0.000330394
9.63773e-07
0.00033039
9.63485e-07
0.000330386
9.63164e-07
0.000330383
9.62806e-07
0.00033038
9.62409e-07
0.000330378
9.61968e-07
0.000330376
9.61479e-07
0.000330375
9.6094e-07
0.000330375
9.60344e-07
0.000330376
9.59687e-07
0.000330377
9.58963e-07
0.000330379
9.58165e-07
0.000330383
9.57286e-07
0.000330387
9.56318e-07
0.000330393
9.55253e-07
0.0003304
9.5408e-07
0.000330409
9.52787e-07
0.000330419
9.51362e-07
0.000330431
9.49791e-07
0.000330445
9.48057e-07
0.00033046
9.46142e-07
0.000330479
9.44025e-07
0.000330499
9.41681e-07
0.000330523
9.39082e-07
0.000330549
9.36197e-07
0.000330579
9.32986e-07
0.000330613
9.29401e-07
0.000330651
9.25381e-07
0.000330693
9.20842e-07
0.000330742
9.15662e-07
0.000330796
9.09661e-07
0.000330858
9.02561e-07
0.000330928
8.93929e-07
0.00033101
8.83089e-07
0.000331106
8.68999e-07
0.000331221
8.50065e-07
0.000331363
8.23885e-07
0.000331541
7.86884e-07
0.000331774
7.33933e-07
0.000332081
6.58501e-07
0.000332494
5.53908e-07
0.00033305
4.10135e-07
2.1506e-07
0.00196603
0.000435511
0.00179497
0.000581178
0.00157352
0.000483479
0.001378
0.000362233
0.00122222
0.000264195
0.00110257
0.000192147
0.00101174
0.000141043
0.000942747
0.000105135
0.000889944
7.97926e-05
0.000849075
6.17225e-05
0.000817021
4.86786e-05
0.000791516
3.91386e-05
0.000770922
3.20643e-05
0.000754051
2.67413e-05
0.00074004
2.26739e-05
0.000728258
1.95151e-05
0.000718238
1.70213e-05
0.000709634
1.50199e-05
0.000702184
1.33886e-05
0.000695688
1.20393e-05
0.000689991
1.09088e-05
0.00068497
9.95059e-06
0.000680529
9.13012e-06
0.000676587
8.42144e-06
0.000673079
7.80463e-06
0.000669952
7.26419e-06
0.00066716
6.78788e-06
0.000664664
6.3659e-06
0.000662433
5.99031e-06
0.000660437
5.65461e-06
0.000658652
5.35342e-06
0.000657058
5.08227e-06
0.000655636
4.83742e-06
0.00065437
4.61567e-06
0.000653244
4.41436e-06
0.000652248
4.23117e-06
0.000651368
4.06413e-06
0.000650595
3.91154e-06
0.00064992
3.77192e-06
0.000649335
3.64398e-06
0.000648832
3.52659e-06
0.000648405
3.41876e-06
0.000648047
3.3196e-06
0.000647754
3.22832e-06
0.000647519
3.14422e-06
0.000647339
3.06665e-06
0.000647208
2.99505e-06
0.000647125
2.92891e-06
0.000647084
2.86776e-06
0.000647083
2.81118e-06
0.000647118
2.75879e-06
0.000647188
2.71025e-06
0.000647289
2.66526e-06
0.00064742
2.62353e-06
0.000647578
2.58481e-06
0.000647761
2.54887e-06
0.000647967
2.51549e-06
0.000648196
2.48449e-06
0.000648444
2.45568e-06
0.000648711
2.42891e-06
0.000648996
2.40405e-06
0.000649297
2.38094e-06
0.000649613
2.3595e-06
0.000649944
2.33962e-06
0.000650287
2.32123e-06
0.000650642
2.30426e-06
0.000651007
2.28867e-06
0.000651383
2.27443e-06
0.000651768
2.2615e-06
0.000652161
2.24988e-06
0.000652562
2.23952e-06
0.000652969
2.23039e-06
0.000653381
2.22245e-06
0.000653798
2.2156e-06
0.000654219
2.20976e-06
0.000654644
2.20481e-06
0.000655072
2.20061e-06
0.000655502
2.19705e-06
0.000655935
2.19398e-06
0.000656369
2.19128e-06
0.000656805
2.18886e-06
0.000657243
2.18664e-06
0.000657682
2.18456e-06
0.000658122
2.18257e-06
0.000658564
2.18066e-06
0.000659007
2.1788e-06
0.000659451
2.17701e-06
0.000659897
2.17527e-06
0.000660344
2.17359e-06
0.000660792
2.17196e-06
0.000661241
2.1704e-06
0.000661691
2.1689e-06
0.000662142
2.16745e-06
0.000662594
2.16605e-06
0.000663047
2.1647e-06
0.000663501
2.16339e-06
0.000663956
2.16212e-06
0.000664412
2.16087e-06
0.000664868
2.15966e-06
0.000665326
2.15846e-06
0.000665784
2.15728e-06
0.000666244
2.15612e-06
0.000666704
2.15496e-06
0.000667164
2.15383e-06
0.000667626
2.15271e-06
0.000668088
2.15162e-06
0.000668552
2.15058e-06
0.000669015
2.14961e-06
0.00066948
2.14873e-06
0.000669945
2.14797e-06
0.00067041
2.14736e-06
0.000670876
2.14692e-06
0.000671342
2.14667e-06
0.000671807
2.14663e-06
0.000672273
2.14678e-06
0.000672739
2.14712e-06
0.000673204
2.14763e-06
0.000673668
2.14826e-06
0.000674132
2.149e-06
0.000674596
2.14978e-06
0.000675059
2.15059e-06
0.000675521
2.1514e-06
0.000675983
2.15217e-06
0.000676445
2.15289e-06
0.000676905
2.15355e-06
0.000677366
2.15414e-06
0.000677826
2.15466e-06
0.000678285
2.15512e-06
0.000678745
2.15552e-06
0.000679204
2.15586e-06
0.000679663
2.15613e-06
0.000680121
2.15636e-06
0.00068058
2.15654e-06
0.000681038
2.15666e-06
0.000681496
2.15674e-06
0.000681955
2.15678e-06
0.000682413
2.15678e-06
0.000682871
2.15674e-06
0.000683329
2.15667e-06
0.000683787
2.15657e-06
0.000684246
2.15646e-06
0.000684704
2.15633e-06
0.000685162
2.15621e-06
0.000685621
2.15609e-06
0.000686079
2.156e-06
0.000686537
2.15594e-06
0.000686996
2.15591e-06
0.000687454
2.15593e-06
0.000687912
2.156e-06
0.00068837
2.15611e-06
0.000688828
2.15627e-06
0.000689285
2.15647e-06
0.000689743
2.15671e-06
0.0006902
2.15697e-06
0.000690657
2.15725e-06
0.000691113
2.15754e-06
0.00069157
2.15784e-06
0.000692026
2.15814e-06
0.000692481
2.15843e-06
0.000692937
2.15871e-06
0.000693392
2.15899e-06
0.000693847
2.15925e-06
0.000694302
2.1595e-06
0.000694756
2.15973e-06
0.000695211
2.15996e-06
0.000695665
2.16016e-06
0.000696118
2.16036e-06
0.000696572
2.16054e-06
0.000697025
2.1607e-06
0.000697478
2.16086e-06
0.000697931
2.161e-06
0.000698384
2.16114e-06
0.000698837
2.16127e-06
0.000699289
2.1614e-06
0.000699741
2.16153e-06
0.000700194
2.16167e-06
0.000700645
2.16182e-06
0.000701097
2.16199e-06
0.000701548
2.16217e-06
0.000701999
2.16237e-06
0.00070245
2.1626e-06
0.000702901
2.16285e-06
0.000703351
2.16311e-06
0.000703801
2.16339e-06
0.000704251
2.16367e-06
0.0007047
2.16395e-06
0.000705149
2.16422e-06
0.000705598
2.16447e-06
0.000706047
2.16471e-06
0.000706495
2.16491e-06
0.000706943
2.16509e-06
0.000707391
2.16524e-06
0.000707838
2.16536e-06
0.000708286
2.16545e-06
0.000708733
2.16553e-06
0.00070918
2.16558e-06
0.000709627
2.16563e-06
0.000710073
2.16566e-06
0.00071052
2.1657e-06
0.000710966
2.16575e-06
0.000711412
2.1658e-06
0.000711858
2.16586e-06
0.000712304
2.16593e-06
0.00071275
2.16602e-06
0.000713195
2.16613e-06
0.000713641
2.16625e-06
0.000714086
2.16639e-06
0.00071453
2.16654e-06
0.000714975
2.16671e-06
0.000715419
2.1669e-06
0.000715863
2.16711e-06
0.000716306
2.16734e-06
0.000716749
2.16757e-06
0.000717192
2.16782e-06
0.000717635
2.16808e-06
0.000718077
2.16834e-06
0.000718519
2.16861e-06
0.000718961
2.16887e-06
0.000719402
2.16913e-06
0.000719843
2.16938e-06
0.000720283
2.16962e-06
0.000720724
2.16985e-06
0.000721163