/*--------------------------------*- C++ -*----------------------------------*\
| =========                 |                                                 |
| \\      /  F ield         | OpenFOAM: The Open Source CFD Toolbox           |
|  \\    /   O peration     | Version:  2512                                  |
|   \\  /    A nd           | Website:  www.openfoam.com                      |
|    \\/     M anipulation  |                                                 |
\*---------------------------------------------------------------------------*/
FoamFile
{
    version     2.0;
    format      ascii;
    arch        "LSB;label=32;scalar=64";
    class       surfaceScalarField;
    location    "0.005";
    object      phiB;
}
// * * * * * * * * * * * * * * * * * * * * * * * * * * * * * * * * * * * * * //

dimensions      [1 2 -2 0 0 -1 0];

oriented        oriented;

internalField   nonuniform List<scalar> 
198900
(
0.000577845
0.0400596
0.000541012
0.0400368
0.000488675
0.0400523
0.000435778
0.0400529
0.000388823
0.040047
0.000349097
0.0400397
0.000316479
0.0400326
0.000290343
0.0400261
0.000269822
0.0400205
0.000253985
0.0400158
0.00024194
0.040012
0.000232894
0.040009
0.000226173
0.0400067
0.000221227
0.0400049
0.000217618
0.0400036
0.000215008
0.0400026
0.000213139
0.0400019
0.000211819
0.0400013
0.000210907
0.0400009
0.000210298
0.0400006
0.000209915
0.0400004
0.000209702
0.0400002
0.000209617
0.0400001
0.000209631
0.04
0.000209719
0.0399999
0.000209867
0.0399999
0.000210059
0.0399998
0.000210287
0.0399998
0.000210543
0.0399997
0.000210821
0.0399997
0.000211117
0.0399997
0.000211426
0.0399997
0.000211746
0.0399997
0.000212075
0.0399997
0.00021241
0.0399997
0.000212751
0.0399997
0.000213096
0.0399997
0.000213444
0.0399997
0.000213794
0.0399996
0.000214146
0.0399996
0.000214499
0.0399996
0.000214852
0.0399996
0.000215205
0.0399996
0.000215558
0.0399996
0.00021591
0.0399996
0.000216261
0.0399996
0.000216611
0.0399997
0.000216959
0.0399997
0.000217306
0.0399997
0.000217651
0.0399997
0.000217995
0.0399997
0.000218336
0.0399997
0.000218676
0.0399997
0.000219014
0.0399997
0.000219349
0.0399997
0.000219683
0.0399997
0.000220016
0.0399997
0.000220346
0.0399997
0.000220674
0.0399997
0.000221001
0.0399997
0.000221325
0.0399997
0.000221648
0.0399997
0.000221969
0.0399997
0.000222288
0.0399997
0.000222605
0.0399997
0.000222919
0.0399997
0.000223232
0.0399997
0.000223541
0.0399997
0.000223848
0.0399997
0.000224151
0.0399997
0.00022445
0.0399997
0.000224745
0.0399997
0.000225035
0.0399997
0.00022532
0.0399997
0.000225599
0.0399997
0.000225872
0.0399997
0.00022614
0.0399997
0.000226401
0.0399997
0.000226656
0.0399997
0.000226906
0.0399998
0.00022715
0.0399998
0.000227389
0.0399998
0.000227623
0.0399998
0.000227853
0.0399998
0.000228078
0.0399998
0.0002283
0.0399998
0.000228519
0.0399998
0.000228735
0.0399998
0.000228947
0.0399998
0.000229158
0.0399998
0.000229365
0.0399998
0.000229571
0.0399998
0.000229775
0.0399998
0.000229977
0.0399998
0.000230177
0.0399998
0.000230376
0.0399998
0.000230573
0.0399998
0.000230769
0.0399998
0.000230964
0.0399998
0.000231158
0.0399998
0.000231351
0.0399998
0.000231544
0.0399998
0.000231735
0.0399998
0.000231926
0.0399998
0.000232116
0.0399998
0.000232306
0.0399998
0.000232496
0.0399998
0.000232685
0.0399998
0.000232873
0.0399998
0.000233061
0.0399998
0.000233249
0.0399998
0.000233435
0.0399998
0.00023362
0.0399998
0.000233805
0.0399998
0.000233988
0.0399998
0.000234169
0.0399998
0.000234349
0.0399998
0.000234528
0.0399998
0.000234704
0.0399998
0.000234879
0.0399998
0.000235052
0.0399998
0.000235224
0.0399998
0.000235394
0.0399998
0.000235563
0.0399998
0.00023573
0.0399998
0.000235896
0.0399998
0.000236061
0.0399998
0.000236225
0.0399998
0.000236389
0.0399998
0.000236551
0.0399998
0.000236713
0.0399998
0.000236875
0.0399998
0.000237035
0.0399998
0.000237196
0.0399998
0.000237356
0.0399998
0.000237516
0.0399998
0.000237675
0.0399998
0.000237835
0.0399998
0.000237994
0.0399998
0.000238153
0.0399998
0.000238312
0.0399998
0.000238471
0.0399998
0.00023863
0.0399998
0.000238789
0.0399998
0.000238948
0.0399998
0.000239107
0.0399998
0.000239265
0.0399998
0.000239424
0.0399998
0.000239582
0.0399998
0.00023974
0.0399998
0.000239897
0.0399998
0.000240055
0.0399998
0.000240211
0.0399998
0.000240368
0.0399998
0.000240524
0.0399998
0.000240679
0.0399998
0.000240834
0.0399998
0.000240989
0.0399998
0.000241143
0.0399998
0.000241297
0.0399998
0.000241451
0.0399998
0.000241605
0.0399998
0.000241758
0.0399998
0.000241911
0.0399998
0.000242063
0.0399998
0.000242216
0.0399998
0.000242368
0.0399998
0.00024252
0.0399998
0.000242672
0.0399998
0.000242824
0.0399998
0.000242976
0.0399998
0.000243127
0.0399998
0.000243279
0.0399998
0.000243431
0.0399998
0.000243582
0.0399998
0.000243733
0.0399998
0.000243885
0.0399998
0.000244036
0.0399998
0.000244187
0.0399998
0.000244338
0.0399998
0.000244489
0.0399998
0.000244639
0.0399998
0.000244789
0.0399998
0.000244939
0.0399998
0.000245089
0.0399999
0.000245239
0.0399999
0.000245388
0.0399999
0.000245537
0.0399999
0.000245686
0.0399999
0.000245835
0.0399999
0.000245984
0.0399999
0.000246132
0.0399999
0.000246281
0.0399999
0.000246429
0.0399999
0.000246578
0.0399999
0.000246726
0.0399999
0.000246875
0.0399999
0.000247024
0.0399999
0.000247172
0.0399999
0.000247321
0.0399999
0.00024747
0.0399999
0.000247619
0.0399999
0.000247768
0.0399999
0.000247917
0.0399999
0.000248066
0.0399999
0.000248215
0.0399999
0.000248364
0.0399999
0.000248513
0.0399999
0.000248662
0.0399999
0.00024881
0.0399999
0.000248959
0.0399999
0.000249107
0.0399999
0.000249256
0.0399999
0.000249404
0.0399999
0.000249552
0.0399999
0.0002497
0.0399999
0.000249848
0.0399999
0.000249995
0.0399999
0.000250143
0.0399999
0.00025029
0.0399999
0.000250437
0.0399999
0.000250584
0.0399999
0.000250731
0.0399999
0.000250878
0.0399999
0.000251025
0.0399999
0.000251171
0.0399999
0.000251318
0.0399999
0.000251465
0.0399999
0.000251611
0.0399999
0.000251758
0.0399999
0.000251905
0.0399999
0.000252051
0.0399999
0.000252198
0.0399999
0.000252344
0.0399999
0.000252491
0.0399999
0.000252637
0.0399999
0.000252784
0.0399999
0.00025293
0.0399999
0.000253077
0.0399999
0.000253223
0.0399999
0.00025337
0.0399999
0.000253516
0.0399999
0.000253662
0.0399999
0.000253809
0.0399999
0.000253955
0.0399999
0.000254101
0.0399999
0.000254247
0.0399999
0.000254394
0.0399999
0.00025454
0.0399999
0.000254686
0.0399999
0.000254832
0.0399999
0.000254978
0.0399999
0.000255124
0.0399999
0.00025527
0.0399999
0.000255417
0.0399999
0.000255563
0.0399999
0.000255709
0.0399999
0.000255855
0.0399999
0.000256001
0.0399999
0.000256147
0.0399999
0.000256292
0.0399999
0.000256438
0.0399999
0.000256584
0.0399999
0.00025673
0.0399999
0.000256876
0.0399999
0.000257022
0.0399999
0.000257167
0.0399999
0.000257313
0.0399999
0.000257458
0.0399999
0.000257604
0.0399999
0.00025775
0.0399999
0.000257895
0.0399999
0.000258041
0.0399999
0.000258186
0.0399999
0.000258331
0.0399999
0.000258477
0.0399999
0.000258622
0.0399999
0.000258767
0.0399999
0.000258913
0.0399999
0.000259058
0.0399999
0.000259203
0.0399999
0.000259348
0.0399999
0.000259493
0.0399999
0.000259639
0.0399999
0.000259784
0.0399999
0.000259929
0.0399999
0.000260074
0.0399999
0.000260219
0.0399999
0.000260364
0.0399999
0.000260509
0.0399999
0.000260653
0.0399999
0.000260798
0.0399999
0.000260943
0.0399999
0.000261088
0.0399999
0.000261233
0.0399999
0.000261377
0.0399999
0.000261522
0.0399999
0.000261666
0.0399999
0.000261811
0.0399999
0.000261956
0.0399999
0.0002621
0.0399999
0.000262245
0.0399999
0.000262389
0.0399999
0.000262533
0.0399999
0.000262678
0.0399999
0.000262822
0.0399999
0.000262966
0.0399999
0.000263111
0.0399999
0.000263255
0.0399999
0.000263399
0.0399999
0.000263543
0.0399999
0.000263687
0.0399999
0.000263831
0.0399999
0.000263975
0.0399999
0.000264119
0.0399999
0.000264263
0.0399999
0.000264407
0.0399999
0.000264551
0.0399999
0.000264695
0.0399999
0.000264838
0.0399999
0.000264982
0.0399999
0.000265126
0.0399999
0.00026527
0.0399999
0.000265413
0.0399999
0.000265557
0.0399999
0.000265701
0.0399999
0.000265844
0.0399999
0.000265988
0.0399999
0.000266131
0.0399999
0.000266274
0.0399999
0.000266418
0.0399999
0.000266561
0.0399999
0.000266705
0.0399999
0.000266848
0.0399999
0.000266991
0.0399999
0.000267134
0.0399999
0.000267278
0.0399999
0.000267421
0.0399999
0.000267564
0.0399999
0.000267707
0.0399999
0.00026785
0.0399999
0.000267993
0.0399999
0.000268136
0.0399999
0.000268279
0.0399999
0.000268422
0.0399999
0.000268565
0.0399999
0.000268708
0.0399999
0.00026885
0.0399999
0.000268993
0.0399999
0.000269136
0.0399999
0.000269278
0.0399999
0.000269421
0.0399999
0.000269564
0.0399999
0.000269706
0.0399999
0.000269849
0.0399999
0.000269991
0.0399999
0.000270134
0.0399999
0.000270276
0.0399999
0.000270419
0.0399999
0.000270561
0.0399999
0.000270703
0.0399999
0.000270846
0.0399999
0.000270988
0.0399999
0.00027113
0.0399999
0.000271272
0.0399999
0.000271415
0.0399999
0.000271557
0.0399999
0.000271699
0.0399999
0.000271841
0.0399999
0.000271983
0.0399999
0.000272125
0.0399999
0.000272267
0.0399999
0.000272409
0.0399999
0.00027255
0.0399999
0.000272692
0.0399999
0.000272834
0.0399999
0.000272976
0.0399999
0.000273118
0.0399999
0.000273259
0.0399999
0.000273401
0.0399999
0.000273543
0.0399999
0.000273684
0.0399999
0.000273826
0.0399999
0.000273967
0.0399999
0.000274109
0.0399999
0.00027425
0.0399999
0.000274391
0.0399999
0.000274533
0.0399999
0.000274674
0.0399999
0.000274815
0.0399999
0.000274957
0.0399999
0.000275098
0.0399999
0.000275239
0.0399999
0.00027538
0.0399999
0.000275521
0.0399999
0.000275662
0.0399999
0.000275803
0.0399999
0.000275944
0.0399999
0.000276085
0.0399999
0.000276226
0.0399999
0.000276367
0.0399999
0.000276508
0.0399999
0.000276649
0.0399999
0.000276789
0.0399999
0.00027693
0.0399999
0.000277071
0.0399999
0.000277212
0.0399999
0.000277352
0.0399999
0.000277493
0.0399999
0.000277633
0.0399999
0.000277774
0.0399999
0.000277914
0.0399999
0.000278055
0.0399999
0.000278195
0.0399999
0.000278335
0.0399999
0.000278476
0.0399999
0.000278616
0.0399999
0.000278756
0.0399999
0.000278896
0.0399999
0.000279037
0.0399999
0.000279177
0.0399999
0.000279317
0.0399999
0.000279457
0.0399999
0.000279597
0.0399999
0.000279737
0.0399999
0.000279877
0.0399999
0.000280017
0.0399999
0.000280157
0.0399999
0.000280296
0.0399999
0.000280436
0.0399999
0.000280576
0.0399999
0.000280716
0.0399999
0.000280855
0.0399999
0.000280995
0.0399999
0.000281135
0.0399999
0.000281274
0.0399999
0.000281414
0.0399999
0.000281553
0.0399999
0.000281693
0.0399999
0.000281832
0.0399999
0.000281971
0.0399999
0.000282111
0.0399999
0.00028225
0.0399999
0.000282389
0.0399999
0.000282529
0.0399999
0.000282668
0.0399999
0.000282807
0.0399999
0.000282946
0.0399999
0.000283085
0.0399999
0.000283224
0.0399999
0.000283363
0.0399999
0.000283502
0.0399999
0.000283641
0.0399999
0.00028378
0.0399999
0.000283919
0.0399999
0.000284057
0.0399999
0.000284196
0.0399999
0.000284335
0.0399999
0.000284474
0.0399999
0.000284612
0.0399999
0.000284751
0.0399999
0.000284889
0.0399999
0.000285028
0.0399999
0.000285166
0.0399999
0.000285305
0.0399999
0.000285443
0.0399999
0.000285582
0.0399999
0.00028572
0.0399999
0.000285858
0.0399999
0.000285996
0.0399999
0.000286135
0.0399999
0.000286273
0.0399999
0.000286411
0.0399999
0.000286549
0.0399999
0.000286687
0.0399999
0.000286825
0.0399999
0.000286963
0.0399999
0.000287101
0.0399999
0.000287239
0.0399999
0.000287377
0.0399999
0.000287515
0.0399999
0.000287652
0.0399999
0.00028779
0.0399999
0.000287928
0.0399999
0.000288066
0.0399999
0.000288203
0.0399999
0.000288341
0.0399999
0.000288478
0.0399999
0.000288616
0.0399999
0.000288753
0.0399999
0.000288891
0.0399999
0.000289028
0.0399999
0.000289166
0.0399999
0.000289303
0.0399999
0.00028944
0.0399999
0.000289577
0.0399999
0.000289715
0.0399999
0.000289852
0.0399999
0.000289989
0.0399999
0.000290126
0.0399999
0.000290263
0.0399999
0.0002904
0.0399999
0.000290537
0.0399999
0.000290674
0.0399999
0.000290811
0.0399999
0.000290948
0.0399999
0.000291084
0.0399999
0.000291221
0.0399999
0.000291358
0.0399999
0.000291495
0.0399999
0.000291631
0.0399999
0.000291768
0.0399999
0.000291905
0.0399999
0.000292041
0.0399999
0.000292178
0.0399999
0.000292314
0.0399999
0.00029245
0.0399999
0.000292587
0.0399999
0.000292723
0.0399999
0.000292859
0.0399999
0.000292996
0.0399999
0.000293132
0.0399999
0.000293268
0.0399999
0.000293404
0.0399999
0.00029354
0.0399999
0.000293677
0.0399999
0.000293813
0.0399999
0.000293949
0.0399999
0.000294084
0.0399999
0.00029422
0.0399999
0.000294356
0.0399999
0.000294492
0.0399999
0.000294628
0.0399999
0.000294764
0.0399999
0.000294899
0.0399999
0.000295035
0.0399999
0.000295171
0.0399999
0.000295306
0.0399999
0.000295442
0.0399999
0.000295577
0.0399999
0.000295713
0.0399999
0.000295848
0.0399999
0.000295984
0.0399999
0.000296119
0.0399999
0.000296254
0.0399999
0.00029639
0.0399999
0.000296525
0.0399999
0.00029666
0.0399999
0.000296795
0.0399999
0.000296931
0.0399999
0.000297066
0.0399999
0.000297201
0.0399999
0.000297336
0.0399999
0.000297471
0.0399999
0.000297606
0.0399999
0.000297741
0.0399999
0.000297875
0.0399999
0.00029801
0.0399999
0.000298145
0.0399999
0.00029828
0.0399999
0.000298414
0.0399999
0.000298549
0.0399999
0.000298684
0.0399999
0.000298818
0.0399999
0.000298953
0.0399999
0.000299087
0.0399999
0.000299222
0.0399999
0.000299356
0.0399999
0.000299491
0.0399999
0.000299625
0.0399999
0.000299759
0.0399999
0.000299894
0.0399999
0.000300028
0.0399999
0.000300162
0.0399999
0.000300296
0.0399999
0.000300431
0.0399999
0.000300565
0.0399999
0.000300699
0.0399999
0.000300833
0.0399999
0.000300967
0.0399999
0.000301101
0.0399999
0.000301235
0.0399999
0.000301368
0.0399999
0.000301502
0.0399999
0.000301636
0.0399999
0.00030177
0.0399999
0.000301904
0.0399999
0.000302037
0.0399999
0.000302171
0.0399999
0.000302304
0.0399999
0.000302438
0.0399999
0.000302572
0.0399999
0.000302705
0.0399999
0.000302838
0.0399999
0.000302972
0.0399999
0.000303105
0.0399999
0.000303239
0.0399999
0.000303372
0.0399999
0.000303505
0.0399999
0.000303638
0.0399999
0.000303772
0.0399999
0.000303905
0.0399999
0.000304038
0.0399999
0.000304171
0.0399999
0.000304304
0.0399999
0.000304437
0.0399999
0.00030457
0.0399999
0.000304703
0.0399999
0.000304836
0.0399999
0.000304969
0.0399999
0.000305101
0.0399999
0.000305234
0.0399999
0.000305367
0.0399999
0.0003055
0.0399999
0.000305632
0.0399999
0.000305765
0.0399999
0.000305898
0.0399999
0.00030603
0.0399999
0.000306163
0.0399999
0.000306295
0.0399999
0.000306428
0.0399999
0.00030656
0.0399999
0.000306692
0.0399999
0.000306825
0.0399999
0.000306957
0.0399999
0.000307089
0.0399999
0.000307221
0.0399999
0.000307354
0.0399999
0.000307486
0.0399999
0.000307618
0.0399999
0.00030775
0.0399999
0.000307882
0.0399999
0.000308014
0.0399999
0.000308146
0.0399999
0.000308278
0.0399999
0.00030841
0.0399999
0.000308542
0.0399999
0.000308674
0.0399999
0.000308805
0.0399999
0.000308937
0.0399999
0.000309069
0.0399999
0.000309201
0.0399999
0.000309332
0.0399999
0.000309464
0.0399999
0.000309595
0.0399999
0.000309727
0.0399999
0.000309858
0.0399999
0.00030999
0.0399999
0.000310121
0.0399999
0.000310253
0.0399999
0.000310384
0.0399999
0.000310515
0.0399999
0.000310647
0.0399999
0.000310778
0.0399999
0.000310909
0.0399999
0.00031104
0.0399999
0.000311172
0.0399999
0.000311303
0.0399999
0.000311434
0.0399999
0.000311565
0.0399999
0.000311696
0.0399999
0.000311827
0.0399999
0.000311958
0.0399999
0.000312089
0.0399999
0.00031222
0.0399999
0.00031235
0.0399999
0.000312481
0.0399999
0.000312612
0.0399999
0.000312743
0.0399999
0.000312873
0.0399999
0.000313004
0.0399999
0.000313135
0.0399999
0.000313265
0.0399999
0.000313396
0.0399999
0.000313527
0.0399999
0.000313657
0.0399999
0.000313787
0.0399999
0.000313918
0.0399999
0.000314048
0.0399999
0.000314179
0.0399999
0.000314309
0.0399999
0.000314439
0.0399999
0.00031457
0.0399999
0.0003147
0.0399999
0.00031483
0.0399999
0.00031496
0.0399999
0.00031509
0.0399999
0.00031522
0.0399999
0.00031535
0.0399999
0.000315481
0.0399999
0.000315611
0.0399999
0.00031574
0.0399999
0.00031587
0.0399999
0.000316
0.0399999
0.00031613
0.0399999
0.00031626
0.0399999
0.00031639
0.0399999
0.00031652
0.0399999
0.000316649
0.0399999
0.000316779
0.0399999
0.000316909
0.0399999
0.000317038
0.0399999
0.000317168
0.0399999
0.000317298
0.0399999
0.000317427
0.0399999
0.000317557
0.0399999
0.000317686
0.0399999
0.000317816
0.0399999
0.000317945
0.0399999
0.000318074
0.0399999
0.000318204
0.0399999
0.000318333
0.0399999
0.000318462
0.0399999
0.000318592
0.0399999
0.000318721
0.0399999
0.00031885
0.0399999
0.000318979
0.0399999
0.000319108
0.0399999
0.000319237
0.0399999
0.000319367
0.0399999
0.000319496
0.0399999
0.000319625
0.0399999
0.000319754
0.0399999
0.000319883
0.0399999
0.000320012
0.0399999
0.00032014
0.0399999
0.000320269
0.0399999
0.000320398
0.0399999
0.000320527
0.0399999
0.000320656
0.0399999
0.000320784
0.0399999
0.000320913
0.0399999
0.000321042
0.0399999
0.00032117
0.0399999
0.000321299
0.0399999
0.000321428
0.0399999
0.000321556
0.0399999
0.000321685
0.0399999
0.000321813
0.0399999
0.000321942
0.0399999
0.00032207
0.0399999
0.000322199
0.0399999
0.000322327
0.0399999
0.000322455
0.0399999
0.000322584
0.0399999
0.000322712
0.0399999
0.00032284
0.0399999
0.000322969
0.0399999
0.000323097
0.0399999
0.000323225
0.0399999
0.000323353
0.0399999
0.000323481
0.0399999
0.00032361
0.0399999
0.000323738
0.0399999
0.000323866
0.0399999
0.000323994
0.0399999
0.000324122
0.0399999
0.00032425
0.0399999
0.000324378
0.0399999
0.000324506
0.0399999
0.000324633
0.0399999
0.000324761
0.0399999
0.000324889
0.0399999
0.000325017
0.0399999
0.000325145
0.0399999
0.000325273
0.0399999
0.0003254
0.0399999
0.000325528
0.0399999
0.000325656
0.0399999
0.000325783
0.0399999
0.000325911
0.0399999
0.000326039
0.0399999
0.000326166
0.0399999
0.000326294
0.0399999
0.000326421
0.0399999
0.000326549
0.0399999
0.000326676
0.0399999
0.000326804
0.0399999
0.000326931
0.0399999
0.000327059
0.0399999
0.000327186
0.0399999
0.000327314
0.0399999
0.000327441
0.0399999
0.000327568
0.0399999
0.000327696
0.0399999
0.000327823
0.0399999
0.00032795
0.0399999
0.000328077
0.0399999
0.000328205
0.0399999
0.000328332
0.0399999
0.000328459
0.0399999
0.000328586
0.0399999
0.000328713
0.0399999
0.00032884
0.0399999
0.000328967
0.0399999
0.000329094
0.0399999
0.000329221
0.0399999
0.000329348
0.0399999
0.000329475
0.0399999
0.000329602
0.0399999
0.000329729
0.0399999
0.000329856
0.0399999
0.000329983
0.0399999
0.00033011
0.0399999
0.000330237
0.0399999
0.000330364
0.0399999
0.000330491
0.0399999
0.000330618
0.0399999
0.000330744
0.0399999
0.000330871
0.0399999
0.000330998
0.0399999
0.000331125
0.0399999
0.000331252
0.0399999
0.000331378
0.0399999
0.000331505
0.0399999
0.000331632
0.0399999
0.000331758
0.0399999
0.000331885
0.0399999
0.000332012
0.0399999
0.000332138
0.0399999
0.000332265
0.0399999
0.000332392
0.0399999
0.000332518
0.0399999
0.000332645
0.0399999
0.000332771
0.0399999
0.000332898
0.0399999
0.000333025
0.0399999
0.000333151
0.0399999
0.000333278
0.0399999
0.000333404
0.0399999
0.000333531
0.0399999
0.000333657
0.0399999
0.000333784
0.0399999
0.00033391
0.0399999
0.000334037
0.0399999
0.000334163
0.0399999
0.00033429
0.0399999
0.000334416
0.0399999
0.000334543
0.0399999
0.000334669
0.0399999
0.000334795
0.0399999
0.000334922
0.0399999
0.000335048
0.0399999
0.000335175
0.0399999
0.000335301
0.0399999
0.000335428
0.0399999
0.000335554
0.0399999
0.000335681
0.0399999
0.000335807
0.0399999
0.000335933
0.0399999
0.00033606
0.0399999
0.000336186
0.0399999
0.000336313
0.0399999
0.000336439
0.0399999
0.000336566
0.0399999
0.000336692
0.0399999
0.000336819
0.0399999
0.000336945
0.0399999
0.000337072
0.0399999
0.000337198
0.0399999
0.000337325
0.0399999
0.000337451
0.0399999
0.000337578
0.0399999
0.000337704
0.0399999
0.000337831
0.0399999
0.000337958
0.0399999
0.000338084
0.0399999
0.000338211
0.0399999
0.000338338
0.0399999
0.000338464
0.0399999
0.000338591
0.0399999
0.000338718
0.0399999
0.000338845
0.0399999
0.000338972
0.0399999
0.000339098
0.0399999
0.000339225
0.0399999
0.000339352
0.0399999
0.000339479
0.0399999
0.000339606
0.0399999
0.000339733
0.0399999
0.00033986
0.0399999
0.000339987
0.0399999
0.000340115
0.0399999
0.000340242
0.0399999
0.000340369
0.0399999
0.000340496
0.0399999
0.000340624
0.0399999
0.000340751
0.0399999
0.000340879
0.0399999
0.000341006
0.0399999
0.000341134
0.0399999
0.000341262
0.0399999
0.00034139
0.0399999
0.000341517
0.0399999
0.000341645
0.0399999
0.000341773
0.0399999
0.000341902
0.0399999
0.00034203
0.0399999
0.000342158
0.0399999
0.000342287
0.0399999
0.000342415
0.0399999
0.000342544
0.0399999
0.000342672
0.0399999
0.000342801
0.0399999
0.00034293
0.0399999
0.000343059
0.0399999
0.000343189
0.0399999
0.000343318
0.0399999
0.000343447
0.0399999
0.000343577
0.0399999
0.000343707
0.0399999
0.000343837
0.0399999
0.000343967
0.0399999
0.000344097
0.0399999
0.000344228
0.0399999
0.000344358
0.0399999
0.000344489
0.0399999
0.00034462
0.0399999
0.000344752
0.0399999
0.000344883
0.0399999
0.000345015
0.0399999
0.000345147
0.0399999
0.000345279
0.0399999
0.000345411
0.0399999
0.000345544
0.0399999
0.000345677
0.0399999
0.00034581
0.0399999
0.000345944
0.0399999
0.000346078
0.0399999
0.000346212
0.0399999
0.000346346
0.0399999
0.000346481
0.0399999
0.000346616
0.0399999
0.000346752
0.0399999
0.000346888
0.0399999
0.000347025
0.0399999
0.000347161
0.0399999
0.000347299
0.0399999
0.000347437
0.0399999
0.000347575
0.0399999
0.000347714
0.0399999
0.000347853
0.0399999
0.000347993
0.0399999
0.000348133
0.0399999
0.000348274
0.0399999
0.000348416
0.0399999
0.000348559
0.0399999
0.000348702
0.0399999
0.000348846
0.0399999
0.000348991
0.0399999
0.000349136
0.0399999
0.000349283
0.0399999
0.00034943
0.0399999
0.000349578
0.0399999
0.000349727
0.0399999
0.000349878
0.0399998
0.000350029
0.0399998
0.000350182
0.0399998
0.000350336
0.0399998
0.000350492
0.0399998
0.000350648
0.0399998
0.000350807
0.0399998
0.000350966
0.0399998
0.000351128
0.0399998
0.000351291
0.0399998
0.000351457
0.0399998
0.000351624
0.0399998
0.000351794
0.0399998
0.000351965
0.0399998
0.00035214
0.0399998
0.000352317
0.0399998
0.000352497
0.0399998
0.00035268
0.0399998
0.000352866
0.0399998
0.000353056
0.0399998
0.00035325
0.0399998
0.000353448
0.0399998
0.00035365
0.0399998
0.000353857
0.0399998
0.00035407
0.0399998
0.000354288
0.0399998
0.000354513
0.0399998
0.000354745
0.0399998
0.000354984
0.0399998
0.000355232
0.0399998
0.000355488
0.0399997
0.000355756
0.0399997
0.000356035
0.0399997
0.000356328
0.0399997
0.000356638
0.0399997
0.00035697
0.0399997
0.00035733
0.0399996
0.000357727
0.0399996
0.000358174
0.0399996
0.000358692
0.0399995
0.000359306
0.0399994
0.000360064
0.0399992
0.000361035
0.039999
0.000362296
0.0399987
0.0399984
0.000675375
0.0400388
0.000683274
0.0400289
0.000683344
0.0400523
0.000670491
0.0400657
0.000649389
0.0400681
0.000625268
0.0400638
0.000601458
0.0400564
0.000579726
0.0400479
0.000560828
0.0400394
0.00054491
0.0400318
0.00053179
0.0400252
0.00052113
0.0400197
0.000512547
0.0400153
0.000505669
0.0400118
0.000500169
0.0400091
0.000495767
0.040007
0.000492237
0.0400054
0.000489397
0.0400042
0.000487106
0.0400032
0.000485254
0.0400025
0.000483753
0.0400019
0.000482538
0.0400014
0.000481556
0.0400011
0.000480767
0.0400008
0.000480139
0.0400005
0.000479646
0.0400003
0.000479267
0.0400002
0.000478986
0.0400001
0.000478789
0.0399999
0.000478664
0.0399998
0.000478603
0.0399998
0.000478597
0.0399997
0.00047864
0.0399996
0.000478725
0.0399996
0.000478848
0.0399995
0.000479005
0.0399995
0.000479192
0.0399995
0.000479405
0.0399994
0.000479643
0.0399994
0.000479901
0.0399994
0.000480179
0.0399994
0.000480474
0.0399994
0.000480785
0.0399993
0.000481109
0.0399993
0.000481445
0.0399993
0.000481792
0.0399993
0.000482149
0.0399993
0.000482515
0.0399993
0.000482889
0.0399993
0.00048327
0.0399993
0.000483657
0.0399993
0.00048405
0.0399993
0.000484448
0.0399993
0.00048485
0.0399993
0.000485256
0.0399993
0.000485666
0.0399993
0.000486078
0.0399993
0.000486494
0.0399993
0.000486912
0.0399993
0.000487332
0.0399993
0.000487754
0.0399993
0.000488177
0.0399993
0.000488601
0.0399993
0.000489027
0.0399993
0.000489453
0.0399993
0.000489879
0.0399993
0.000490305
0.0399993
0.00049073
0.0399993
0.000491155
0.0399993
0.000491579
0.0399993
0.000492
0.0399993
0.000492419
0.0399993
0.000492836
0.0399993
0.000493249
0.0399993
0.000493658
0.0399993
0.000494064
0.0399993
0.000494465
0.0399993
0.000494862
0.0399993
0.000495254
0.0399994
0.000495643
0.0399994
0.000496027
0.0399994
0.000496407
0.0399994
0.000496783
0.0399994
0.000497156
0.0399994
0.000497525
0.0399994
0.000497891
0.0399994
0.000498255
0.0399994
0.000498616
0.0399994
0.000498975
0.0399994
0.000499332
0.0399994
0.000499686
0.0399994
0.000500039
0.0399994
0.00050039
0.0399994
0.00050074
0.0399994
0.000501088
0.0399995
0.000501435
0.0399995
0.000501781
0.0399995
0.000502125
0.0399995
0.000502469
0.0399995
0.000502811
0.0399995
0.000503153
0.0399995
0.000503494
0.0399995
0.000503835
0.0399995
0.000504175
0.0399995
0.000504514
0.0399995
0.000504853
0.0399995
0.000505192
0.0399995
0.00050553
0.0399995
0.000505868
0.0399995
0.000506205
0.0399995
0.000506541
0.0399995
0.000506877
0.0399995
0.000507212
0.0399995
0.000507546
0.0399995
0.000507879
0.0399995
0.000508211
0.0399995
0.000508541
0.0399995
0.00050887
0.0399995
0.000509197
0.0399995
0.000509523
0.0399995
0.000509847
0.0399995
0.00051017
0.0399995
0.000510491
0.0399995
0.000510811
0.0399995
0.000511129
0.0399995
0.000511447
0.0399995
0.000511763
0.0399995
0.000512079
0.0399995
0.000512394
0.0399995
0.000512707
0.0399995
0.000513021
0.0399995
0.000513333
0.0399995
0.000513646
0.0399995
0.000513957
0.0399995
0.000514269
0.0399995
0.00051458
0.0399995
0.00051489
0.0399995
0.000515201
0.0399995
0.000515511
0.0399995
0.000515822
0.0399995
0.000516132
0.0399995
0.000516442
0.0399995
0.000516752
0.0399995
0.000517062
0.0399995
0.000517372
0.0399995
0.000517682
0.0399995
0.000517992
0.0399995
0.000518301
0.0399995
0.000518611
0.0399995
0.00051892
0.0399995
0.000519229
0.0399995
0.000519537
0.0399995
0.000519845
0.0399995
0.000520153
0.0399995
0.000520461
0.0399995
0.000520768
0.0399995
0.000521075
0.0399995
0.000521381
0.0399995
0.000521687
0.0399995
0.000521993
0.0399995
0.000522298
0.0399995
0.000522604
0.0399995
0.000522908
0.0399995
0.000523213
0.0399995
0.000523518
0.0399995
0.000523822
0.0399995
0.000524126
0.0399995
0.00052443
0.0399995
0.000524734
0.0399995
0.000525037
0.0399995
0.000525341
0.0399995
0.000525644
0.0399995
0.000525948
0.0399995
0.000526251
0.0399995
0.000526554
0.0399995
0.000526857
0.0399995
0.00052716
0.0399995
0.000527463
0.0399995
0.000527766
0.0399995
0.000528069
0.0399995
0.000528371
0.0399995
0.000528674
0.0399995
0.000528976
0.0399995
0.000529278
0.0399995
0.00052958
0.0399995
0.000529881
0.0399995
0.000530183
0.0399995
0.000530484
0.0399995
0.000530785
0.0399995
0.000531086
0.0399996
0.000531387
0.0399996
0.000531688
0.0399996
0.000531988
0.0399996
0.000532289
0.0399996
0.00053259
0.0399996
0.000532891
0.0399996
0.000533192
0.0399996
0.000533493
0.0399996
0.000533794
0.0399996
0.000534095
0.0399996
0.000534396
0.0399995
0.000534698
0.0399995
0.000534999
0.0399995
0.0005353
0.0399995
0.000535602
0.0399995
0.000535903
0.0399995
0.000536205
0.0399995
0.000536506
0.0399995
0.000536807
0.0399995
0.000537108
0.0399996
0.00053741
0.0399996
0.000537711
0.0399996
0.000538012
0.0399996
0.000538312
0.0399996
0.000538613
0.0399996
0.000538914
0.0399996
0.000539214
0.0399996
0.000539515
0.0399996
0.000539815
0.0399996
0.000540115
0.0399996
0.000540415
0.0399996
0.000540715
0.0399996
0.000541015
0.0399996
0.000541314
0.0399996
0.000541614
0.0399996
0.000541914
0.0399996
0.000542213
0.0399996
0.000542513
0.0399996
0.000542813
0.0399996
0.000543112
0.0399996
0.000543412
0.0399996
0.000543711
0.0399996
0.000544011
0.0399996
0.000544311
0.0399996
0.00054461
0.0399996
0.00054491
0.0399996
0.00054521
0.0399996
0.000545509
0.0399996
0.000545809
0.0399996
0.000546109
0.0399996
0.000546408
0.0399996
0.000546708
0.0399996
0.000547008
0.0399996
0.000547307
0.0399996
0.000547607
0.0399996
0.000547907
0.0399996
0.000548207
0.0399996
0.000548506
0.0399996
0.000548806
0.0399996
0.000549106
0.0399996
0.000549405
0.0399996
0.000549705
0.0399996
0.000550005
0.0399996
0.000550305
0.0399996
0.000550604
0.0399996
0.000550904
0.0399996
0.000551204
0.0399996
0.000551504
0.0399996
0.000551803
0.0399996
0.000552103
0.0399996
0.000552403
0.0399996
0.000552703
0.0399996
0.000553002
0.0399996
0.000553302
0.0399996
0.000553602
0.0399996
0.000553902
0.0399996
0.000554201
0.0399996
0.000554501
0.0399996
0.000554801
0.0399996
0.0005551
0.0399996
0.0005554
0.0399996
0.0005557
0.0399996
0.000555999
0.0399996
0.000556299
0.0399996
0.000556599
0.0399996
0.000556898
0.0399996
0.000557198
0.0399996
0.000557498
0.0399996
0.000557797
0.0399996
0.000558097
0.0399996
0.000558396
0.0399996
0.000558696
0.0399996
0.000558996
0.0399996
0.000559295
0.0399996
0.000559595
0.0399996
0.000559894
0.0399996
0.000560194
0.0399996
0.000560494
0.0399996
0.000560793
0.0399996
0.000561093
0.0399996
0.000561392
0.0399996
0.000561692
0.0399996
0.000561991
0.0399996
0.000562291
0.0399996
0.00056259
0.0399996
0.00056289
0.0399996
0.00056319
0.0399996
0.000563489
0.0399996
0.000563789
0.0399996
0.000564088
0.0399996
0.000564387
0.0399996
0.000564687
0.0399996
0.000564986
0.0399996
0.000565286
0.0399996
0.000565585
0.0399996
0.000565885
0.0399996
0.000566184
0.0399996
0.000566483
0.0399996
0.000566783
0.0399996
0.000567082
0.0399996
0.000567382
0.0399996
0.000567681
0.0399996
0.00056798
0.0399996
0.00056828
0.0399996
0.000568579
0.0399996
0.000568878
0.0399996
0.000569178
0.0399996
0.000569477
0.0399996
0.000569776
0.0399996
0.000570076
0.0399996
0.000570375
0.0399996
0.000570674
0.0399996
0.000570974
0.0399996
0.000571273
0.0399996
0.000571572
0.0399996
0.000571871
0.0399996
0.000572171
0.0399996
0.00057247
0.0399996
0.000572769