/*--------------------------------*- C++ -*----------------------------------*\
| =========                 |                                                 |
| \\      /  F ield         | OpenFOAM: The Open Source CFD Toolbox           |
|  \\    /   O peration     | Version:  2512                                  |
|   \\  /    A nd           | Website:  www.openfoam.com                      |
|    \\/     M anipulation  |                                                 |
\*---------------------------------------------------------------------------*/
FoamFile
{
    version     2.0;
    format      ascii;
    arch        "LSB;label=32;scalar=64";
    class       volVectorField;
    location    "0.005";
    object      U;
}
// * * * * * * * * * * * * * * * * * * * * * * * * * * * * * * * * * * * * * //

dimensions      [0 1 -1 0 0 0 0];

internalField   nonuniform List<vector> 
100000
(
(0.757655 0.129303 0)
(0.653985 0.0993942 0)
(0.484023 0.0494062 0)
(0.37171 0.0264148 0)
(0.303631 0.0151987 0)
(0.260035 0.00903189 0)
(0.230797 0.00559849 0)
(0.210555 0.00367356 0)
(0.1961 0.00255562 0)
(0.185463 0.00187548 0)
(0.177419 0.00144259 0)
(0.171183 0.00115539 0)
(0.166242 0.000957443 0)
(0.162246 0.000816168 0)
(0.158957 0.000712048 0)
(0.156206 0.000632991 0)
(0.153874 0.000571298 0)
(0.151874 0.000521953 0)
(0.150143 0.000481626 0)
(0.148632 0.00044806 0)
(0.147305 0.000419697 0)
(0.146133 0.000395431 0)
(0.145094 0.00037446 0)
(0.14417 0.000356188 0)
(0.143345 0.000340157 0)
(0.142606 0.000326009 0)
(0.141945 0.00031346 0)
(0.141351 0.000302279 0)
(0.140817 0.000292276 0)
(0.140337 0.000283293 0)
(0.139905 0.000275201 0)
(0.139517 0.000267887 0)
(0.139168 0.000261259 0)
(0.138854 0.000255237 0)
(0.138573 0.000249752 0)
(0.13832 0.000244747 0)
(0.138095 0.00024017 0)
(0.137893 0.000235978 0)
(0.137714 0.000232133 0)
(0.137555 0.000228602 0)
(0.137415 0.000225355 0)
(0.137292 0.000222366 0)
(0.137185 0.000219613 0)
(0.137093 0.000217074 0)
(0.137014 0.00021473 0)
(0.136947 0.000212565 0)
(0.136891 0.000210563 0)
(0.136846 0.000208711 0)
(0.136811 0.000206995 0)
(0.136785 0.000205405 0)
(0.136767 0.00020393 0)
(0.136757 0.000202562 0)
(0.136754 0.000201291 0)
(0.136757 0.00020011 0)
(0.136767 0.000199013 0)
(0.136782 0.000197992 0)
(0.136803 0.000197042 0)
(0.136829 0.000196158 0)
(0.136859 0.000195334 0)
(0.136893 0.000194566 0)
(0.136932 0.00019385 0)
(0.136974 0.000193181 0)
(0.137019 0.000192557 0)
(0.137068 0.000191975 0)
(0.137119 0.000191432 0)
(0.137173 0.000190926 0)
(0.13723 0.000190457 0)
(0.137289 0.000190023 0)
(0.13735 0.000189625 0)
(0.137413 0.000189261 0)
(0.137478 0.000188932 0)
(0.137544 0.000188637 0)
(0.137612 0.000188375 0)
(0.137681 0.000188144 0)
(0.13775 0.000187942 0)
(0.137821 0.000187765 0)
(0.137892 0.000187609 0)
(0.137964 0.000187471 0)
(0.138036 0.000187347 0)
(0.138109 0.000187233 0)
(0.138182 0.000187126 0)
(0.138256 0.000187025 0)
(0.13833 0.000186927 0)
(0.138404 0.000186832 0)
(0.138479 0.00018674 0)
(0.138553 0.000186649 0)
(0.138629 0.000186562 0)
(0.138704 0.000186477 0)
(0.13878 0.000186394 0)
(0.138856 0.000186315 0)
(0.138932 0.000186238 0)
(0.139008 0.000186164 0)
(0.139085 0.000186092 0)
(0.139162 0.000186023 0)
(0.139239 0.000185956 0)
(0.139317 0.000185891 0)
(0.139394 0.000185827 0)
(0.139472 0.000185765 0)
(0.13955 0.000185704 0)
(0.139628 0.000185644 0)
(0.139706 0.000185584 0)
(0.139784 0.000185525 0)
(0.139863 0.000185465 0)
(0.139942 0.000185406 0)
(0.140021 0.000185347 0)
(0.1401 0.000185288 0)
(0.140179 0.000185229 0)
(0.140259 0.000185172 0)
(0.140338 0.000185117 0)
(0.140418 0.000185064 0)
(0.140498 0.000185015 0)
(0.140577 0.000184971 0)
(0.140657 0.000184932 0)
(0.140737 0.0001849 0)
(0.140817 0.000184873 0)
(0.140897 0.000184852 0)
(0.140977 0.000184836 0)
(0.141056 0.000184824 0)
(0.141136 0.000184814 0)
(0.141215 0.000184807 0)
(0.141294 0.000184799 0)
(0.141374 0.000184791 0)
(0.141453 0.000184782 0)
(0.141531 0.000184772 0)
(0.14161 0.000184759 0)
(0.141689 0.000184744 0)
(0.141767 0.000184728 0)
(0.141846 0.000184709 0)
(0.141924 0.000184689 0)
(0.142002 0.000184667 0)
(0.14208 0.000184644 0)
(0.142159 0.00018462 0)
(0.142237 0.000184594 0)
(0.142315 0.000184567 0)
(0.142393 0.000184539 0)
(0.142471 0.000184509 0)
(0.142549 0.000184478 0)
(0.142627 0.000184446 0)
(0.142704 0.000184414 0)
(0.142782 0.00018438 0)
(0.14286 0.000184345 0)
(0.142938 0.00018431 0)
(0.143016 0.000184274 0)
(0.143094 0.000184239 0)
(0.143172 0.000184204 0)
(0.14325 0.00018417 0)
(0.143327 0.000184137 0)
(0.143405 0.000184105 0)
(0.143483 0.000184074 0)
(0.143561 0.000184044 0)
(0.143638 0.000184016 0)
(0.143716 0.000183989 0)
(0.143794 0.000183963 0)
(0.143871 0.000183937 0)
(0.143948 0.000183912 0)
(0.144026 0.000183887 0)
(0.144103 0.000183862 0)
(0.14418 0.000183837 0)
(0.144257 0.000183811 0)
(0.144334 0.000183785 0)
(0.144411 0.000183759 0)
(0.144488 0.000183732 0)
(0.144565 0.000183705 0)
(0.144642 0.000183677 0)
(0.144718 0.000183649 0)
(0.144795 0.000183621 0)
(0.144871 0.000183591 0)
(0.144948 0.000183562 0)
(0.145024 0.000183532 0)
(0.145101 0.000183501 0)
(0.145177 0.00018347 0)
(0.145253 0.000183438 0)
(0.145329 0.000183406 0)
(0.145405 0.000183374 0)
(0.145481 0.000183342 0)
(0.145557 0.00018331 0)
(0.145633 0.000183278 0)
(0.145709 0.000183246 0)
(0.145785 0.000183214 0)
(0.14586 0.000183183 0)
(0.145936 0.000183153 0)
(0.146012 0.000183123 0)
(0.146087 0.000183094 0)
(0.146162 0.000183065 0)
(0.146238 0.000183036 0)
(0.146313 0.000183006 0)
(0.146388 0.000182977 0)
(0.146463 0.000182947 0)
(0.146538 0.000182916 0)
(0.146613 0.000182884 0)
(0.146687 0.000182851 0)
(0.146762 0.000182817 0)
(0.146837 0.000182782 0)
(0.146911 0.000182746 0)
(0.146986 0.000182709 0)
(0.14706 0.000182672 0)
(0.147135 0.000182634 0)
(0.147209 0.000182596 0)
(0.147283 0.000182558 0)
(0.147358 0.00018252 0)
(0.147432 0.000182482 0)
(0.147506 0.000182444 0)
(0.14758 0.000182407 0)
(0.147654 0.000182369 0)
(0.147728 0.000182332 0)
(0.147802 0.000182296 0)
(0.147875 0.000182259 0)
(0.147949 0.000182223 0)
(0.148023 0.000182187 0)
(0.148096 0.000182152 0)
(0.14817 0.000182117 0)
(0.148243 0.000182082 0)
(0.148316 0.000182048 0)
(0.148389 0.000182014 0)
(0.148462 0.000181979 0)
(0.148535 0.000181945 0)
(0.148608 0.000181911 0)
(0.148681 0.000181877 0)
(0.148754 0.000181842 0)
(0.148826 0.000181807 0)
(0.148899 0.000181771 0)
(0.148971 0.000181735 0)
(0.149043 0.000181699 0)
(0.149116 0.000181662 0)
(0.149188 0.000181625 0)
(0.14926 0.000181587 0)
(0.149332 0.000181549 0)
(0.149403 0.00018151 0)
(0.149475 0.000181471 0)
(0.149547 0.000181432 0)
(0.149618 0.000181392 0)
(0.14969 0.000181352 0)
(0.149761 0.000181312 0)
(0.149833 0.000181271 0)
(0.149904 0.000181231 0)
(0.149975 0.00018119 0)
(0.150046 0.000181149 0)
(0.150117 0.000181108 0)
(0.150188 0.000181068 0)
(0.150259 0.000181027 0)
(0.150329 0.000180986 0)
(0.1504 0.000180945 0)
(0.150471 0.000180904 0)
(0.150541 0.000180863 0)
(0.150611 0.000180821 0)
(0.150682 0.00018078 0)
(0.150752 0.000180738 0)
(0.150822 0.000180696 0)
(0.150892 0.000180654 0)
(0.150962 0.000180611 0)
(0.151032 0.000180568 0)
(0.151101 0.000180526 0)
(0.151171 0.000180483 0)
(0.151241 0.00018044 0)
(0.15131 0.000180397 0)
(0.151379 0.000180353 0)
(0.151449 0.00018031 0)
(0.151518 0.000180267 0)
(0.151587 0.000180223 0)
(0.151656 0.00018018 0)
(0.151725 0.000180136 0)
(0.151793 0.000180092 0)
(0.151862 0.000180048 0)
(0.151931 0.000180005 0)
(0.151999 0.00017996 0)
(0.152067 0.000179916 0)
(0.152136 0.000179872 0)
(0.152204 0.000179828 0)
(0.152272 0.000179783 0)
(0.15234 0.000179739 0)
(0.152408 0.000179694 0)
(0.152475 0.000179649 0)
(0.152543 0.000179604 0)
(0.152611 0.000179558 0)
(0.152678 0.000179513 0)
(0.152745 0.000179467 0)
(0.152813 0.000179421 0)
(0.15288 0.000179375 0)
(0.152947 0.000179329 0)
(0.153014 0.000179283 0)
(0.153081 0.000179236 0)
(0.153147 0.000179189 0)
(0.153214 0.000179142 0)
(0.15328 0.000179096 0)
(0.153347 0.000179048 0)
(0.153413 0.000179001 0)
(0.153479 0.000178954 0)
(0.153545 0.000178907 0)
(0.153611 0.000178859 0)
(0.153677 0.000178812 0)
(0.153743 0.000178764 0)
(0.153809 0.000178716 0)
(0.153874 0.000178668 0)
(0.15394 0.00017862 0)
(0.154005 0.000178572 0)
(0.15407 0.000178523 0)
(0.154135 0.000178475 0)
(0.1542 0.000178426 0)
(0.154265 0.000178377 0)
(0.15433 0.000178328 0)
(0.154395 0.000178279 0)
(0.154459 0.00017823 0)
(0.154524 0.000178181 0)
(0.154588 0.000178131 0)
(0.154652 0.000178081 0)
(0.154716 0.000178032 0)
(0.15478 0.000177982 0)
(0.154844 0.000177931 0)
(0.154908 0.000177881 0)
(0.154971 0.000177831 0)
(0.155035 0.00017778 0)
(0.155098 0.000177729 0)
(0.155162 0.000177678 0)
(0.155225 0.000177627 0)
(0.155288 0.000177576 0)
(0.155351 0.000177525 0)
(0.155414 0.000177473 0)
(0.155476 0.000177422 0)
(0.155539 0.00017737 0)
(0.155602 0.000177318 0)
(0.155664 0.000177266 0)
(0.155726 0.000177214 0)
(0.155788 0.000177161 0)
(0.15585 0.000177109 0)
(0.155912 0.000177056 0)
(0.155974 0.000177003 0)
(0.156036 0.000176951 0)
(0.156097 0.000176897 0)
(0.156159 0.000176844 0)
(0.15622 0.000176791 0)
(0.156281 0.000176737 0)
(0.156342 0.000176684 0)
(0.156403 0.00017663 0)
(0.156464 0.000176576 0)
(0.156525 0.000176522 0)
(0.156585 0.000176467 0)
(0.156646 0.000176413 0)
(0.156706 0.000176358 0)
(0.156766 0.000176303 0)
(0.156826 0.000176249 0)
(0.156886 0.000176194 0)
(0.156946 0.000176138 0)
(0.157006 0.000176083 0)
(0.157066 0.000176028 0)
(0.157125 0.000175972 0)
(0.157185 0.000175916 0)
(0.157244 0.00017586 0)
(0.157303 0.000175804 0)
(0.157362 0.000175748 0)
(0.157421 0.000175692 0)
(0.15748 0.000175635 0)
(0.157538 0.000175579 0)
(0.157597 0.000175522 0)
(0.157655 0.000175465 0)
(0.157713 0.000175408 0)
(0.157772 0.00017535 0)
(0.15783 0.000175293 0)
(0.157888 0.000175236 0)
(0.157945 0.000175178 0)
(0.158003 0.00017512 0)
(0.15806 0.000175062 0)
(0.158118 0.000175004 0)
(0.158175 0.000174946 0)
(0.158232 0.000174887 0)
(0.158289 0.000174829 0)
(0.158346 0.00017477 0)
(0.158403 0.000174711 0)
(0.15846 0.000174652 0)
(0.158516 0.000174593 0)
(0.158572 0.000174534 0)
(0.158629 0.000174474 0)
(0.158685 0.000174415 0)
(0.158741 0.000174355 0)
(0.158797 0.000174295 0)
(0.158853 0.000174235 0)
(0.158908 0.000174175 0)
(0.158964 0.000174114 0)
(0.159019 0.000174054 0)
(0.159074 0.000173993 0)
(0.159129 0.000173932 0)
(0.159184 0.000173872 0)
(0.159239 0.000173811 0)
(0.159294 0.000173749 0)
(0.159348 0.000173688 0)
(0.159403 0.000173626 0)
(0.159457 0.000173565 0)
(0.159511 0.000173503 0)
(0.159566 0.000173441 0)
(0.15962 0.000173379 0)
(0.159673 0.000173317 0)
(0.159727 0.000173254 0)
(0.159781 0.000173192 0)
(0.159834 0.000173129 0)
(0.159887 0.000173066 0)
(0.15994 0.000173003 0)
(0.159993 0.00017294 0)
(0.160046 0.000172877 0)
(0.160099 0.000172814 0)
(0.160152 0.00017275 0)
(0.160204 0.000172686 0)
(0.160257 0.000172623 0)
(0.160309 0.000172559 0)
(0.160361 0.000172494 0)
(0.160413 0.00017243 0)
(0.160465 0.000172366 0)
(0.160517 0.000172301 0)
(0.160568 0.000172236 0)
(0.16062 0.000172172 0)
(0.160671 0.000172107 0)
(0.160722 0.000172041 0)
(0.160773 0.000171976 0)
(0.160824 0.000171911 0)
(0.160875 0.000171845 0)
(0.160925 0.000171779 0)
(0.160976 0.000171713 0)
(0.161026 0.000171647 0)
(0.161077 0.000171581 0)
(0.161127 0.000171515 0)
(0.161177 0.000171448 0)
(0.161227 0.000171382 0)
(0.161276 0.000171315 0)
(0.161326 0.000171248 0)
(0.161375 0.000171181 0)
(0.161425 0.000171114 0)
(0.161474 0.000171047 0)
(0.161523 0.000170979 0)
(0.161572 0.000170912 0)
(0.161621 0.000170844 0)
(0.161669 0.000170776 0)
(0.161718 0.000170708 0)
(0.161766 0.00017064 0)
(0.161814 0.000170571 0)
(0.161862 0.000170503 0)
(0.16191 0.000170434 0)
(0.161958 0.000170365 0)
(0.162006 0.000170296 0)
(0.162053 0.000170227 0)
(0.162101 0.000170158 0)
(0.162148 0.000170089 0)
(0.162195 0.000170019 0)
(0.162242 0.000169949 0)
(0.162289 0.00016988 0)
(0.162336 0.00016981 0)
(0.162382 0.00016974 0)
(0.162429 0.000169669 0)
(0.162475 0.000169599 0)
(0.162521 0.000169528 0)
(0.162567 0.000169458 0)
(0.162613 0.000169387 0)
(0.162659 0.000169316 0)
(0.162705 0.000169245 0)
(0.16275 0.000169174 0)
(0.162796 0.000169102 0)
(0.162841 0.000169031 0)
(0.162886 0.000168959 0)
(0.162931 0.000168887 0)
(0.162976 0.000168815 0)
(0.16302 0.000168743 0)
(0.163065 0.000168671 0)
(0.163109 0.000168598 0)
(0.163154 0.000168526 0)
(0.163198 0.000168453 0)
(0.163242 0.00016838 0)
(0.163286 0.000168307 0)
(0.163329 0.000168234 0)
(0.163373 0.000168161 0)
(0.163416 0.000168087 0)
(0.16346 0.000168014 0)
(0.163503 0.00016794 0)
(0.163546 0.000167866 0)
(0.163589 0.000167792 0)
(0.163631 0.000167718 0)
(0.163674 0.000167644 0)
(0.163717 0.000167569 0)
(0.163759 0.000167495 0)
(0.163801 0.00016742 0)
(0.163843 0.000167345 0)
(0.163885 0.00016727 0)
(0.163927 0.000167195 0)
(0.163968 0.00016712 0)
(0.16401 0.000167044 0)
(0.164051 0.000166969 0)
(0.164093 0.000166893 0)
(0.164134 0.000166817 0)
(0.164175 0.000166741 0)
(0.164215 0.000166665 0)
(0.164256 0.000166589 0)
(0.164297 0.000166512 0)
(0.164337 0.000166435 0)
(0.164377 0.000166359 0)
(0.164417 0.000166282 0)
(0.164457 0.000166205 0)
(0.164497 0.000166128 0)
(0.164537 0.00016605 0)
(0.164576 0.000165973 0)
(0.164616 0.000165895 0)
(0.164655 0.000165817 0)
(0.164694 0.000165739 0)
(0.164733 0.000165661 0)
(0.164772 0.000165583 0)
(0.164811 0.000165505 0)
(0.16485 0.000165426 0)
(0.164888 0.000165348 0)
(0.164926 0.000165269 0)
(0.164964 0.00016519 0)
(0.165002 0.000165111 0)
(0.16504 0.000165032 0)
(0.165078 0.000164952 0)
(0.165116 0.000164873 0)
(0.165153 0.000164793 0)
(0.165191 0.000164713 0)
(0.165228 0.000164633 0)
(0.165265 0.000164553 0)
(0.165302 0.000164473 0)
(0.165339 0.000164393 0)
(0.165375 0.000164312 0)
(0.165412 0.000164231 0)
(0.165448 0.000164151 0)
(0.165484 0.00016407 0)
(0.16552 0.000163989 0)
(0.165556 0.000163907 0)
(0.165592 0.000163826 0)
(0.165628 0.000163744 0)
(0.165663 0.000163663 0)
(0.165699 0.000163581 0)
(0.165734 0.000163499 0)
(0.165769 0.000163417 0)
(0.165804 0.000163334 0)
(0.165839 0.000163252 0)
(0.165874 0.000163169 0)
(0.165908 0.000163087 0)
(0.165943 0.000163004 0)
(0.165977 0.000162921 0)
(0.166011 0.000162838 0)
(0.166045 0.000162755 0)
(0.166079 0.000162672 0)
(0.166113 0.000162588 0)
(0.166146 0.000162505 0)
(0.16618 0.000162422 0)
(0.166213 0.000162338 0)
(0.166246 0.000162255 0)
(0.166279 0.000162171 0)
(0.166312 0.000162088 0)
(0.166345 0.000162004 0)
(0.166378 0.000161921 0)
(0.16641 0.000161837 0)
(0.166442 0.000161754 0)
(0.166475 0.00016167 0)
(0.166507 0.000161587 0)
(0.166539 0.000161503 0)
(0.16657 0.00016142 0)
(0.166602 0.000161336 0)
(0.166634 0.000161253 0)
(0.166665 0.00016117 0)
(0.166696 0.000161086 0)
(0.166727 0.000161003 0)
(0.166758 0.00016092 0)
(0.166789 0.000160837 0)
(0.16682 0.000160753 0)
(0.16685 0.00016067 0)
(0.166881 0.000160587 0)
(0.166911 0.000160504 0)
(0.166941 0.000160421 0)
(0.166971 0.000160338 0)
(0.167001 0.000160256 0)
(0.167031 0.000160173 0)
(0.167061 0.00016009 0)
(0.16709 0.000160007 0)
(0.167119 0.000159925 0)
(0.167149 0.000159843 0)
(0.167178 0.00015976 0)
(0.167207 0.000159678 0)
(0.167235 0.000159596 0)
(0.167264 0.000159514 0)
(0.167293 0.000159431 0)
(0.167321 0.00015935 0)
(0.167349 0.000159268 0)
(0.167377 0.000159186 0)
(0.167405 0.000159104 0)
(0.167433 0.000159023 0)
(0.167461 0.000158941 0)
(0.167489 0.00015886 0)
(0.167516 0.000158778 0)
(0.167543 0.000158697 0)
(0.167571 0.000158616 0)
(0.167598 0.000158535 0)
(0.167624 0.000158454 0)
(0.167651 0.000158373 0)
(0.167678 0.000158292 0)
(0.167704 0.000158212 0)
(0.167731 0.000158131 0)
(0.167757 0.000158051 0)
(0.167783 0.00015797 0)
(0.167809 0.00015789 0)
(0.167835 0.00015781 0)
(0.167861 0.00015773 0)
(0.167886 0.00015765 0)
(0.167912 0.00015757 0)
(0.167937 0.00015749 0)
(0.167962 0.000157411 0)
(0.167987 0.000157331 0)
(0.168012 0.000157252 0)
(0.168037 0.000157172 0)
(0.168061 0.000157093 0)
(0.168086 0.000157014 0)
(0.16811 0.000156935 0)
(0.168135 0.000156856 0)
(0.168159 0.000156777 0)
(0.168183 0.000156699 0)
(0.168207 0.00015662 0)
(0.16823 0.000156542 0)
(0.168254 0.000156463 0)
(0.168277 0.000156385 0)
(0.168301 0.000156307 0)
(0.168324 0.000156229 0)
(0.168347 0.000156151 0)
(0.16837 0.000156073 0)
(0.168393 0.000155996 0)
(0.168415 0.000155918 0)
(0.168438 0.000155841 0)
(0.16846 0.000155763 0)
(0.168483 0.000155686 0)
(0.168505 0.000155609 0)
(0.168527 0.000155532 0)
(0.168549 0.000155455 0)
(0.16857 0.000155378 0)
(0.168592 0.000155302 0)
(0.168614 0.000155225 0)
(0.168635 0.000155149 0)
(0.168656 0.000155072 0)
(0.168677 0.000154996 0)
(0.168698 0.00015492 0)
(0.168719 0.000154844 0)
(0.16874 0.000154768 0)
(0.168761 0.000154692 0)
(0.168781 0.000154617 0)
(0.168802 0.000154541 0)
(0.168822 0.000154466 0)
(0.168842 0.00015439 0)
(0.168862 0.000154315 0)
(0.168882 0.00015424 0)
(0.168901 0.000154165 0)
(0.168921 0.00015409 0)
(0.168941 0.000154016 0)
(0.16896 0.000153941 0)
(0.168979 0.000153867 0)
(0.168998 0.000153792 0)
(0.169017 0.000153718 0)
(0.169036 0.000153644 0)
(0.169055 0.00015357 0)
(0.169073 0.000153496 0)
(0.169092 0.000153422 0)
(0.16911 0.000153348 0)
(0.169128 0.000153275 0)
(0.169147 0.000153201 0)
(0.169165 0.000153128 0)
(0.169182 0.000153055 0)
(0.1692 0.000152982 0)
(0.169218 0.000152909 0)
(0.169235 0.000152836 0)
(0.169253 0.000152763 0)
(0.16927 0.000152691 0)
(0.169287 0.000152618 0)
(0.169304 0.000152546 0)
(0.169321 0.000152473 0)
(0.169338 0.000152401 0)
(0.169354 0.000152329 0)
(0.169371 0.000152257 0)
(0.169387 0.000152186 0)
(0.169404 0.000152114 0)
(0.16942 0.000152042 0)
(0.169436 0.000151971 0)
(0.169452 0.0001519 0)
(0.169467 0.000151828 0)
(0.169483 0.000151757 0)
(0.169499 0.000151686 0)
(0.169514 0.000151615 0)
(0.169529 0.000151545 0)
(0.169545 0.000151474 0)
(0.16956 0.000151404 0)
(0.169575 0.000151333 0)
(0.16959 0.000151263 0)
(0.169604 0.000151193 0)
(0.169619 0.000151123 0)
(0.169633 0.000151053 0)
(0.169648 0.000150983 0)
(0.169662 0.000150913 0)
(0.169676 0.000150844 0)
(0.16969 0.000150774 0)
(0.169704 0.000150705 0)
(0.169718 0.000150636 0)
(0.169732 0.000150567 0)
(0.169745 0.000150498 0)
(0.169759 0.000150429 0)
(0.169772 0.00015036 0)
(0.169785 0.000150292 0)
(0.169798 0.000150223 0)
(0.169811 0.000150155 0)
(0.169824 0.000150086 0)
(0.169837 0.000150018 0)
(0.16985 0.00014995 0)
(0.169862 0.000149882 0)
(0.169875 0.000149815 0)
(0.169887 0.000149747 0)
(0.169899 0.000149679 0)
(0.169911 0.000149612 0)
(0.169923 0.000149545 0)
(0.169935 0.000149478 0)
(0.169947 0.00014941 0)
(0.169959 0.000149344 0)
(0.16997 0.000149277 0)
(0.169981 0.00014921 0)
(0.169993 0.000149143 0)
(0.170004 0.000149077 0)
(0.170015 0.000149011 0)
(0.170026 0.000148944 0)
(0.170037 0.000148878 0)
(0.170048 0.000148812 0)
(0.170058 0.000148746 0)
(0.170069 0.000148681 0)
(0.170079 0.000148615 0)
(0.17009 0.000148549 0)
(0.1701 0.000148484 0)
(0.17011 0.000148419 0)
(0.17012 0.000148353 0)
(0.17013 0.000148288 0)
(0.17014 0.000148224 0)
(0.17015 0.000148159 0)
(0.170159 0.000148094 0)
(0.170169 0.000148029 0)
(0.170178 0.000147965 0)
(0.170187 0.000147901 0)
(0.170196 0.000147836 0)
(0.170205 0.000147772 0)
(0.170214 0.000147708 0)
(0.170223 0.000147645 0)
(0.170232 0.000147581 0)
(0.170241 0.000147517 0)
(0.170249 0.000147454 0)
(0.170258 0.00014739 0)
(0.170266 0.000147327 0)
(0.170274 0.000147264 0)
(0.170282 0.000147201 0)
(0.17029 0.000147138 0)
(0.170298 0.000147075 0)
(0.170306 0.000147013 0)
(0.170314 0.00014695 0)
(0.170322 0.000146888 0)
(0.170329 0.000146825 0)
(0.170337 0.000146763 0)
(0.170344 0.000146701 0)
(0.170351 0.000146639 0)
(0.170358 0.000146577 0)
(0.170365 0.000146516 0)
(0.170372 0.000146454 0)
(0.170379 0.000146393 0)
(0.170386 0.000146331 0)
(0.170393 0.00014627 0)
(0.170399 0.000146209 0)
(0.170406 0.000146148 0)
(0.170412 0.000146087 0)
(0.170418 0.000146026 0)
(0.170424 0.000145966 0)
(0.17043 0.000145905 0)
(0.170436 0.000145845 0)
(0.170442 0.000145785 0)
(0.170448 0.000145724 0)
(0.170454 0.000145664 0)
(0.170459 0.000145604 0)
(0.170465 0.000145545 0)
(0.17047 0.000145485 0)
(0.170476 0.000145425 0)
(0.170481 0.000145366 0)
(0.170486 0.000145307 0)
(0.170491 0.000145247 0)
(0.170496 0.000145188 0)
(0.170501 0.000145129 0)
(0.170506 0.000145071 0)
(0.17051 0.000145012 0)
(0.170515 0.000144953 0)
(0.17052 0.000144895 0)
(0.170524 0.000144836 0)
(0.170528 0.000144778 0)
(0.170533 0.00014472 0)
(0.170537 0.000144662 0)
(0.170541 0.000144604 0)
(0.170545 0.000144546 0)
(0.170549 0.000144489 0)
(0.170552 0.000144431 0)
(0.170556 0.000144374 0)
(0.17056 0.000144317 0)
(0.170563 0.000144259 0)
(0.170567 0.000144202 0)
(0.17057 0.000144145 0)
(0.170573 0.000144089 0)
(0.170577 0.000144032 0)
(0.17058 0.000143975 0)
(0.170583 0.000143919 0)
(0.170586 0.000143862 0)
(0.170589 0.000143806 0)
(0.170591 0.00014375 0)
(0.170594 0.000143694 0)
(0.170597 0.000143638 0)
(0.170599 0.000143582 0)
(0.170602 0.000143527 0)
(0.170604 0.000143471 0)
(0.170606 0.000143416 0)
(0.170609 0.000143361 0)
(0.170611 0.000143306 0)
(0.170613 0.00014325 0)
(0.170615 0.000143196 0)
(0.170617 0.000143141 0)
(0.170619 0.000143086 0)
(0.17062 0.000143031 0)
(0.170622 0.000142977 0)
(0.170624 0.000142923 0)
(0.170625 0.000142868 0)
(0.170626 0.000142814 0)
(0.170628 0.00014276 0)
(0.170629 0.000142707 0)
(0.17063 0.000142653 0)
(0.170631 0.000142599 0)
(0.170632 0.000142546 0)
(0.170633 0.000142492 0)
(0.170634 0.000142439 0)
(0.170635 0.000142386 0)
(0.170636 0.000142333 0)
(0.170637 0.00014228 0)
(0.170637 0.000142227 0)
(0.170638 0.000142175 0)
(0.170638 0.000142122 0)
(0.170639 0.00014207 0)
(0.170639 0.000142017 0)
(0.170639 0.000141965 0)
(0.170639 0.000141913 0)
(0.17064 0.000141861 0)
(0.17064 0.000141809 0)
(0.17064 0.000141757 0)
(0.170639 0.000141706 0)
(0.170639 0.000141654 0)
(0.170639 0.000141603 0)
(0.170639 0.000141552 0)
(0.170638 0.000141501 0)
(0.170638 0.000141449 0)
(0.170638 0.000141399 0)
(0.170637 0.000141348 0)
(0.170636 0.000141297 0)
(0.170636 0.000141247 0)
(0.170635 0.000141196 0)
(0.170634 0.000141146 0)
(0.170633 0.000141096 0)
(0.170632 0.000141046 0)
(0.170631 0.000140996 0)
(0.17063 0.000140946 0)
(0.170629 0.000140896 0)
(0.170628 0.000140846 0)
(0.170627 0.000140797 0)
(0.170625 0.000140748 0)
(0.170624 0.000140698 0)
(0.170622 0.000140649 0)
(0.170621 0.0001406 0)
(0.170619 0.000140551 0)
(0.170618 0.000140503 0)
(0.170616 0.000140454 0)
(0.170614 0.000140405 0)
(0.170612 0.000140357 0)
(0.170611 0.000140309 0)
(0.170609 0.00014026 0)
(0.170607 0.000140212 0)
(0.170605 0.000140164 0)
(0.170603 0.000140116 0)
(0.1706 0.000140069 0)
(0.170598 0.000140021 0)
(0.170596 0.000139974 0)
(0.170594 0.000139926 0)
(0.170591 0.000139879 0)
(0.170589 0.000139832 0)
(0.170586 0.000139785 0)
(0.170584 0.000139738 0)
(0.170581 0.000139691 0)
(0.170579 0.000139644 0)
(0.170576 0.000139598 0)
(0.170573 0.000139551 0)
(0.170571 0.000139505 0)
(0.170568 0.000139459 0)
(0.170565 0.000139413 0)
(0.170562 0.000139367 0)
(0.170559 0.000139321 0)
(0.170556 0.000139275 0)
(0.170553 0.00013923 0)
(0.17055 0.000139184 0)
(0.170547 0.000139139 0)
(0.170543 0.000139093 0)
(0.17054 0.000139048 0)
(0.170537 0.000139003 0)
(0.170533 0.000138958 0)
(0.17053 0.000138913 0)
(0.170527 0.000138869 0)
(0.170523 0.000138824 0)
(0.17052 0.00013878 0)
(0.170516 0.000138735 0)
(0.170513 0.000138691 0)
(0.170509 0.000138647 0)
(0.170505 0.000138603 0)
(0.170502 0.000138559 0)
(0.170498 0.000138515 0)
(0.170494 0.000138471 0)
(0.17049 0.000138428 0)
(0.170486 0.000138384 0)
(0.170483 0.000138341 0)
(0.170479 0.000138297 0)
(0.170475 0.000138254 0)
(0.170471 0.000138211 0)
(0.170467 0.000138168 0)
(0.170463 0.000138125 0)
(0.170459 0.000138082 0)
(0.170454 0.00013804 0)
(0.17045 0.000137997 0)
(0.170446 0.000137955 0)
(0.170442 0.000137912 0)
(0.170438 0.00013787 0)
(0.170434 0.000137828 0)
(0.170429 0.000137786 0)
(0.170425 0.000137744 0)
(0.170421 0.000137702 0)
(0.170417 0.00013766 0)
(0.170412 0.000137618 0)
(0.170408 0.000137576 0)
(0.170404 0.000137534 0)
(0.170399 0.000137493 0)
(0.170395 0.000137451 0)
(0.170391 0.00013741 0)
(0.170387 0.000137368 0)
(0.170382 0.000137327 0)
(0.170378 0.000137285 0)
(0.170374 0.000137244 0)
(0.170369 0.000137202 0)
(0.170365 0.000137161 0)
(0.170361 0.000137119 0)
(0.170357 0.000137078 0)
(0.170353 0.000137036 0)
(0.170349 0.000136994 0)
(0.170344 0.000136953 0)
(0.17034 0.000136911 0)
(0.170336 0.000136869 0)
(0.170332 0.000136826 0)
(0.170329 0.000136784 0)
(0.170325 0.000136741 0)
(0.170321 0.000136698 0)
(0.170318 0.000136655 0)
(0.170314 0.000136612 0)
(0.170311 0.000136568 0)
(0.170307 0.000136523 0)
(0.170304 0.000136478 0)
(0.170301 0.000136433 0)
(0.170298 0.000136386 0)
(0.170296 0.00013634 0)
(0.170293 0.000136292 0)
(0.170291 0.000136243 0)
(0.170289 0.000136194 0)
(0.170287 0.000136143 0)
(0.170285 0.000136091 0)
(0.170284 0.000136037 0)
(0.170283 0.000135983 0)
(0.170282 0.000135926 0)
(0.170282 0.000135867 0)
(0.170282 0.000135806 0)
(0.170283 0.000135743 0)
(0.170284 0.000135677 0)
(0.170285 0.000135608 0)
(0.170287 0.000135535 0)
(0.17029 0.000135458 0)
(0.170293 0.000135376 0)
(0.170297 0.000135289 0)
(0.170302 0.000135196 0)
(0.170308 0.000135096 0)
(0.170314 0.000134988 0)
(0.170322 0.00013487 0)
(0.170331 0.000134743 0)
(0.170341 0.000134603 0)
(0.170352 0.000134449 0)
(0.170365 0.000134278 0)
(0.170379 0.000134089 0)
(0.170396 0.000133878 0)
(0.170414 0.00013364 0)
(0.170435 0.00013337 0)
(0.170458 0.000133059 0)
(0.170484 0.000132692 0)
(0.170514 0.000132247 0)
(0.170548 0.000131683 0)
(0.170587 0.000130934 0)
(0.170632 0.000129891 0)
(0.170686 0.000128378 0)
(0.170751 0.000126105 0)
(0.170833 0.00012255 0)
(0.170937 0.000116821 0)
(0.171071 0.000108355 0)
(0.17125 9.88163e-05 0)
(0.171539 8.34153e-05 0)
(0.172025 1.93643e-05 0)
(0.999596 0.265762 0)
(0.980359 0.289898 0)
(0.869908 0.211834 0)
(0.757391 0.144391 0)
(0.666009 0.0975782 0)
(0.595584 0.0667382 0)
(0.542087 0.0467082 0)
(0.501561 0.0336025 0)
(0.470703 0.0248613 0)
(0.446966 0.0188965 0)
(0.428472 0.0147333 0)
(0.413859 0.0117651 0)
(0.40214 0.00960581 0)
(0.392604 0.00800407 0)
(0.384732 0.00679272 0)
(0.37815 0.00585881 0)
(0.37258 0.00512498 0)
(0.367816 0.00453775 0)
(0.363707 0.00405974 0)
(0.360134 0.00366456 0)
(0.357009 0.00333336 0)
(0.354261 0.00305245 0)
(0.351833 0.00281174 0)
(0.349681 0.00260365 0)
(0.347769 0.00242241 0)
(0.346065 0.0022635 0)
(0.344545 0.00212336 0)
(0.343187 0.00199916 0)
(0.341972 0.00188856 0)
(0.340886 0.00178969 0)
(0.339915 0.00170096 0)
(0.339046 0.00162107 0)
(0.338271 0.00154893 0)
(0.33758 0.00148359 0)
(0.336966 0.00142427 0)
(0.33642 0.00137029 0)
(0.335938 0.00132107 0)
(0.335513 0.00127612 0)
(0.335141 0.001235 0)
(0.334818 0.00119732 0)
(0.334538 0.00116276 0)
(0.334299 0.00113102 0)
(0.334098 0.00110184 0)
(0.33393 0.00107499 0)
(0.333795 0.00105025 0)
(0.333688 0.00102745 0)
(0.333609 0.00100641 0)
(0.333554 0.000986975 0)
(0.333522 0.000969016 0)
(0.333512 0.000952406 0)
(0.333521 0.000937033 0)
(0.333549 0.000922795 0)
(0.333593 0.000909602 0)
(0.333653 0.00089737 0)
(0.333728 0.000886025 0)
(0.333816 0.000875498 0)
(0.333916 0.000865727 0)
(0.334029 0.000856654 0)
(0.334152 0.000848226 0)
(0.334285 0.000840398 0)
(0.334427 0.000833125 0)
(0.334578 0.000826369 0)
(0.334738 0.000820098 0)
(0.334904 0.000814282 0)
(0.335078 0.000808899 0)
(0.335258 0.000803929 0)
(0.335444 0.000799361 0)
(0.335635 0.000795184 0)
(0.335831 0.000791392 0)
(0.336032 0.000787979 0)
(0.336236 0.000784939 0)
(0.336445 0.00078226 0)
(0.336656 0.000779928 0)
(0.33687 0.000777921 0)
(0.337086 0.00077621 0)
(0.337304 0.000774762 0)
(0.337524 0.000773537 0)
(0.337745 0.000772496 0)
(0.337967 0.000771599 0)
(0.338191 0.000770811 0)
(0.338415 0.000770103 0)
(0.33864 0.00076945 0)
(0.338866 0.000768836 0)
(0.339093 0.000768249 0)
(0.33932 0.000767684 0)
(0.339548 0.000767137 0)
(0.339777 0.000766607 0)
(0.340006 0.000766096 0)
(0.340236 0.000765604 0)
(0.340467 0.000765131 0)
(0.340698 0.000764677 0)
(0.34093 0.000764243 0)
(0.341162 0.000763827 0)
(0.341395 0.000763429 0)
(0.341628 0.000763045 0)
(0.341862 0.000762676 0)
(0.342096 0.000762318 0)
(0.342331 0.000761971 0)
(0.342566 0.000761632 0)
(0.342801 0.0007613 0)
(0.343037 0.000760973 0)
(0.343274 0.00076065 0)
(0.343511 0.00076033 0)
(0.343748 0.000760014 0)
(0.343986 0.000759703 0)
(0.344224 0.0007594 0)
(0.344462 0.00075911 0)
(0.344701 0.000758837 0)
(0.344941 0.000758591 0)
(0.34518 0.00075838 0)
(0.34542 0.000758211 0)
(0.34566 0.000758095 0)
(0.3459 0.000758035 0)
(0.34614 0.000758036 0)
(0.34638 0.000758098 0)
(0.34662 0.000758216 0)
(0.34686 0.000758383 0)
(0.347099 0.00075859 0)
(0.347339 0.000758825 0)
(0.347578 0.000759078 0)
(0.347817 0.000759336 0)
(0.348055 0.000759592 0)
(0.348293 0.000759837 0)
(0.348531 0.000760067 0)
(0.348769 0.000760278 0)
(0.349006 0.00076047 0)
(0.349243 0.000760641 0)
(0.34948 0.000760793 0)
(0.349717 0.000760927 0)
(0.349954 0.000761044 0)
(0.35019 0.000761144 0)
(0.350427 0.000761229 0)
(0.350663 0.000761299 0)
(0.3509 0.000761356 0)
(0.351136 0.000761399 0)
(0.351372 0.00076143 0)
(0.351608 0.000761449 0)
(0.351844 0.000761458 0)
(0.35208 0.000761457 0)
(0.352317 0.000761448 0)
(0.352553 0.000761433 0)
(0.352789 0.000761415 0)
(0.353025 0.000761398 0)
(0.353261 0.000761383 0)
(0.353498 0.000761374 0)
(0.353734 0.000761374 0)
(0.35397 0.000761386 0)
(0.354206 0.000761412 0)
(0.354442 0.000761451 0)
(0.354679 0.000761505 0)
(0.354915 0.000761573 0)
(0.35515 0.000761653 0)
(0.355386 0.000761744 0)
(0.355622 0.000761842 0)
(0.355858 0.000761946 0)
(0.356093 0.000762053 0)
(0.356328 0.000762161 0)
(0.356563 0.00076227 0)
(0.356798 0.000762377 0)
(0.357033 0.000762481 0)
(0.357268 0.000762583 0)
(0.357502 0.000762681 0)
(0.357737 0.000762775 0)
(0.357971 0.000762865 0)
(0.358205 0.000762951 0)
(0.358439 0.000763033 0)
(0.358673 0.00076311 0)
(0.358907 0.000763184 0)
(0.359141 0.000763254 0)
(0.359375 0.00076332 0)
(0.359608 0.000763384 0)
(0.359841 0.000763445 0)
(0.360075 0.000763504 0)
(0.360308 0.000763563 0)
(0.360541 0.000763622 0)
(0.360774 0.000763683 0)
(0.361007 0.000763747 0)