/*--------------------------------*- C++ -*----------------------------------*\
| =========                 |                                                 |
| \\      /  F ield         | OpenFOAM: The Open Source CFD Toolbox           |
|  \\    /   O peration     | Version:  2512                                  |
|   \\  /    A nd           | Website:  www.openfoam.com                      |
|    \\/     M anipulation  |                                                 |
\*---------------------------------------------------------------------------*/
FoamFile
{
    version     2.0;
    format      ascii;
    arch        "LSB;label=32;scalar=64";
    class       volScalarField;
    location    "0.005";
    object      Ux;
}
// * * * * * * * * * * * * * * * * * * * * * * * * * * * * * * * * * * * * * //

dimensions      [0 1 -1 0 0 0 0];

internalField   nonuniform List<scalar> 
100000
(
0.757655
0.653985
0.484023
0.37171
0.303631
0.260035
0.230797
0.210555
0.1961
0.185463
0.177419
0.171183
0.166242
0.162246
0.158957
0.156206
0.153874
0.151874
0.150143
0.148632
0.147305
0.146133
0.145094
0.14417
0.143345
0.142606
0.141945
0.141351
0.140817
0.140337
0.139905
0.139517
0.139168
0.138854
0.138573
0.13832
0.138095
0.137893
0.137714
0.137555
0.137415
0.137292
0.137185
0.137093
0.137014
0.136947
0.136891
0.136846
0.136811
0.136785
0.136767
0.136757
0.136754
0.136757
0.136767
0.136782
0.136803
0.136829
0.136859
0.136893
0.136932
0.136974
0.137019
0.137068
0.137119
0.137173
0.13723
0.137289
0.13735
0.137413
0.137478
0.137544
0.137612
0.137681
0.13775
0.137821
0.137892
0.137964
0.138036
0.138109
0.138182
0.138256
0.13833
0.138404
0.138479
0.138553
0.138629
0.138704
0.13878
0.138856
0.138932
0.139008
0.139085
0.139162
0.139239
0.139317
0.139394
0.139472
0.13955
0.139628
0.139706
0.139784
0.139863
0.139942
0.140021
0.1401
0.140179
0.140259
0.140338
0.140418
0.140498
0.140577
0.140657
0.140737
0.140817
0.140897
0.140977
0.141056
0.141136
0.141215
0.141294
0.141374
0.141453
0.141531
0.14161
0.141689
0.141767
0.141846
0.141924
0.142002
0.14208
0.142159
0.142237
0.142315
0.142393
0.142471
0.142549
0.142627
0.142704
0.142782
0.14286
0.142938
0.143016
0.143094
0.143172
0.14325
0.143327
0.143405
0.143483
0.143561
0.143638
0.143716
0.143794
0.143871
0.143948
0.144026
0.144103
0.14418
0.144257
0.144334
0.144411
0.144488
0.144565
0.144642
0.144718
0.144795
0.144871
0.144948
0.145024
0.145101
0.145177
0.145253
0.145329
0.145405
0.145481
0.145557
0.145633
0.145709
0.145785
0.14586
0.145936
0.146012
0.146087
0.146162
0.146238
0.146313
0.146388
0.146463
0.146538
0.146613
0.146687
0.146762
0.146837
0.146911
0.146986
0.14706
0.147135
0.147209
0.147283
0.147358
0.147432
0.147506
0.14758
0.147654
0.147728
0.147802
0.147875
0.147949
0.148023
0.148096
0.14817
0.148243
0.148316
0.148389
0.148462
0.148535
0.148608
0.148681
0.148754
0.148826
0.148899
0.148971
0.149043
0.149116
0.149188
0.14926
0.149332
0.149403
0.149475
0.149547
0.149618
0.14969
0.149761
0.149833
0.149904
0.149975
0.150046
0.150117
0.150188
0.150259
0.150329
0.1504
0.150471
0.150541
0.150611
0.150682
0.150752
0.150822
0.150892
0.150962
0.151032
0.151101
0.151171
0.151241
0.15131
0.151379
0.151449
0.151518
0.151587
0.151656
0.151725
0.151793
0.151862
0.151931
0.151999
0.152067
0.152136
0.152204
0.152272
0.15234
0.152408
0.152475
0.152543
0.152611
0.152678
0.152745
0.152813
0.15288
0.152947
0.153014
0.153081
0.153147
0.153214
0.15328
0.153347
0.153413
0.153479
0.153545
0.153611
0.153677
0.153743
0.153809
0.153874
0.15394
0.154005
0.15407
0.154135
0.1542
0.154265
0.15433
0.154395
0.154459
0.154524
0.154588
0.154652
0.154716
0.15478
0.154844
0.154908
0.154971
0.155035
0.155098
0.155162
0.155225
0.155288
0.155351
0.155414
0.155476
0.155539
0.155602
0.155664
0.155726
0.155788
0.15585
0.155912
0.155974
0.156036
0.156097
0.156159
0.15622
0.156281
0.156342
0.156403
0.156464
0.156525
0.156585
0.156646
0.156706
0.156766
0.156826
0.156886
0.156946
0.157006
0.157066
0.157125
0.157185
0.157244
0.157303
0.157362
0.157421
0.15748
0.157538
0.157597
0.157655
0.157713
0.157772
0.15783
0.157888
0.157945
0.158003
0.15806
0.158118
0.158175
0.158232
0.158289
0.158346
0.158403
0.15846
0.158516
0.158572
0.158629
0.158685
0.158741
0.158797
0.158853
0.158908
0.158964
0.159019
0.159074
0.159129
0.159184
0.159239
0.159294
0.159348
0.159403
0.159457
0.159511
0.159566
0.15962
0.159673
0.159727
0.159781
0.159834
0.159887
0.15994
0.159993
0.160046
0.160099
0.160152
0.160204
0.160257
0.160309
0.160361
0.160413
0.160465
0.160517
0.160568
0.16062
0.160671
0.160722
0.160773
0.160824
0.160875
0.160925
0.160976
0.161026
0.161077
0.161127
0.161177
0.161227
0.161276
0.161326
0.161375
0.161425
0.161474
0.161523
0.161572
0.161621
0.161669
0.161718
0.161766
0.161814
0.161862
0.16191
0.161958
0.162006
0.162053
0.162101
0.162148
0.162195
0.162242
0.162289
0.162336
0.162382
0.162429
0.162475
0.162521
0.162567
0.162613
0.162659
0.162705
0.16275
0.162796
0.162841
0.162886
0.162931
0.162976
0.16302
0.163065
0.163109
0.163154
0.163198
0.163242
0.163286
0.163329
0.163373
0.163416
0.16346
0.163503
0.163546
0.163589
0.163631
0.163674
0.163717
0.163759
0.163801
0.163843
0.163885
0.163927
0.163968
0.16401
0.164051
0.164093
0.164134
0.164175
0.164215
0.164256
0.164297
0.164337
0.164377
0.164417
0.164457
0.164497
0.164537
0.164576
0.164616
0.164655
0.164694
0.164733
0.164772
0.164811
0.16485
0.164888
0.164926
0.164964
0.165002
0.16504
0.165078
0.165116
0.165153
0.165191
0.165228
0.165265
0.165302
0.165339
0.165375
0.165412
0.165448
0.165484
0.16552
0.165556
0.165592
0.165628
0.165663
0.165699
0.165734
0.165769
0.165804
0.165839
0.165874
0.165908
0.165943
0.165977
0.166011
0.166045
0.166079
0.166113
0.166146
0.16618
0.166213
0.166246
0.166279
0.166312
0.166345
0.166378
0.16641
0.166442
0.166475
0.166507
0.166539
0.16657
0.166602
0.166634
0.166665
0.166696
0.166727
0.166758
0.166789
0.16682
0.16685
0.166881
0.166911
0.166941
0.166971
0.167001
0.167031
0.167061
0.16709
0.167119
0.167149
0.167178
0.167207
0.167235
0.167264
0.167293
0.167321
0.167349
0.167377
0.167405
0.167433
0.167461
0.167489
0.167516
0.167543
0.167571
0.167598
0.167624
0.167651
0.167678
0.167704
0.167731
0.167757
0.167783
0.167809
0.167835
0.167861
0.167886
0.167912
0.167937
0.167962
0.167987
0.168012
0.168037
0.168061
0.168086
0.16811
0.168135
0.168159
0.168183
0.168207
0.16823
0.168254
0.168277
0.168301
0.168324
0.168347
0.16837
0.168393
0.168415
0.168438
0.16846
0.168483
0.168505
0.168527
0.168549
0.16857
0.168592
0.168614
0.168635
0.168656
0.168677
0.168698
0.168719
0.16874
0.168761
0.168781
0.168802
0.168822
0.168842
0.168862
0.168882
0.168901
0.168921
0.168941
0.16896
0.168979
0.168998
0.169017
0.169036
0.169055
0.169073
0.169092
0.16911
0.169128
0.169147
0.169165
0.169182
0.1692
0.169218
0.169235
0.169253
0.16927
0.169287
0.169304
0.169321
0.169338
0.169354
0.169371
0.169387
0.169404
0.16942
0.169436
0.169452
0.169467
0.169483
0.169499
0.169514
0.169529
0.169545
0.16956
0.169575
0.16959
0.169604
0.169619
0.169633
0.169648
0.169662
0.169676
0.16969
0.169704
0.169718
0.169732
0.169745
0.169759
0.169772
0.169785
0.169798
0.169811
0.169824
0.169837
0.16985
0.169862
0.169875
0.169887
0.169899
0.169911
0.169923
0.169935
0.169947
0.169959
0.16997
0.169981
0.169993
0.170004
0.170015
0.170026
0.170037
0.170048
0.170058
0.170069
0.170079
0.17009
0.1701
0.17011
0.17012
0.17013
0.17014
0.17015
0.170159
0.170169
0.170178
0.170187
0.170196
0.170205
0.170214
0.170223
0.170232
0.170241
0.170249
0.170258
0.170266
0.170274
0.170282
0.17029
0.170298
0.170306
0.170314
0.170322
0.170329
0.170337
0.170344
0.170351
0.170358
0.170365
0.170372
0.170379
0.170386
0.170393
0.170399
0.170406
0.170412
0.170418
0.170424
0.17043
0.170436
0.170442
0.170448
0.170454
0.170459
0.170465
0.17047
0.170476
0.170481
0.170486
0.170491
0.170496
0.170501
0.170506
0.17051
0.170515
0.17052
0.170524
0.170528
0.170533
0.170537
0.170541
0.170545
0.170549
0.170552
0.170556
0.17056
0.170563
0.170567
0.17057
0.170573
0.170577
0.17058
0.170583
0.170586
0.170589
0.170591
0.170594
0.170597
0.170599
0.170602
0.170604
0.170606
0.170609
0.170611
0.170613
0.170615
0.170617
0.170619
0.17062
0.170622
0.170624
0.170625
0.170626
0.170628
0.170629
0.17063
0.170631
0.170632
0.170633
0.170634
0.170635
0.170636
0.170637
0.170637
0.170638
0.170638
0.170639
0.170639
0.170639
0.170639
0.17064
0.17064
0.17064
0.170639
0.170639
0.170639
0.170639
0.170638
0.170638
0.170638
0.170637
0.170636
0.170636
0.170635
0.170634
0.170633
0.170632
0.170631
0.17063
0.170629
0.170628
0.170627
0.170625
0.170624
0.170622
0.170621
0.170619
0.170618
0.170616
0.170614
0.170612
0.170611
0.170609
0.170607
0.170605
0.170603
0.1706
0.170598
0.170596
0.170594
0.170591
0.170589
0.170586
0.170584
0.170581
0.170579
0.170576
0.170573
0.170571
0.170568
0.170565
0.170562
0.170559
0.170556
0.170553
0.17055
0.170547
0.170543
0.17054
0.170537
0.170533
0.17053
0.170527
0.170523
0.17052
0.170516
0.170513
0.170509
0.170505
0.170502
0.170498
0.170494
0.17049
0.170486
0.170483
0.170479
0.170475
0.170471
0.170467
0.170463
0.170459
0.170454
0.17045
0.170446
0.170442
0.170438
0.170434
0.170429
0.170425
0.170421
0.170417
0.170412
0.170408
0.170404
0.170399
0.170395
0.170391
0.170387
0.170382
0.170378
0.170374
0.170369
0.170365
0.170361
0.170357
0.170353
0.170349
0.170344
0.17034
0.170336
0.170332
0.170329
0.170325
0.170321
0.170318
0.170314
0.170311
0.170307
0.170304
0.170301
0.170298
0.170296
0.170293
0.170291
0.170289
0.170287
0.170285
0.170284
0.170283
0.170282
0.170282
0.170282
0.170283
0.170284
0.170285
0.170287
0.17029
0.170293
0.170297
0.170302
0.170308
0.170314
0.170322
0.170331
0.170341
0.170352
0.170365
0.170379
0.170396
0.170414
0.170435
0.170458
0.170484
0.170514
0.170548
0.170587
0.170632
0.170686
0.170751
0.170833
0.170937
0.171071
0.17125
0.171539
0.172025
0.999596
0.980359
0.869908
0.757391
0.666009
0.595584
0.542087
0.501561
0.470703
0.446966
0.428472
0.413859
0.40214
0.392604
0.384732
0.37815
0.37258
0.367816
0.363707
0.360134
0.357009
0.354261
0.351833
0.349681
0.347769
0.346065
0.344545
0.343187
0.341972
0.340886
0.339915
0.339046
0.338271
0.33758
0.336966
0.33642
0.335938
0.335513
0.335141
0.334818
0.334538
0.334299
0.334098
0.33393
0.333795
0.333688
0.333609
0.333554
0.333522
0.333512
0.333521
0.333549
0.333593
0.333653
0.333728
0.333816
0.333916
0.334029
0.334152
0.334285
0.334427
0.334578
0.334738
0.334904
0.335078
0.335258
0.335444
0.335635
0.335831
0.336032
0.336236
0.336445
0.336656
0.33687
0.337086
0.337304
0.337524
0.337745
0.337967
0.338191
0.338415
0.33864
0.338866
0.339093
0.33932
0.339548
0.339777
0.340006
0.340236
0.340467
0.340698
0.34093
0.341162
0.341395
0.341628
0.341862
0.342096
0.342331
0.342566
0.342801
0.343037
0.343274
0.343511
0.343748
0.343986
0.344224
0.344462
0.344701
0.344941
0.34518
0.34542
0.34566
0.3459
0.34614
0.34638
0.34662
0.34686
0.347099
0.347339
0.347578
0.347817
0.348055
0.348293
0.348531
0.348769
0.349006
0.349243
0.34948
0.349717
0.349954
0.35019
0.350427
0.350663
0.3509
0.351136
0.351372
0.351608
0.351844
0.35208
0.352317
0.352553
0.352789
0.353025
0.353261
0.353498
0.353734
0.35397
0.354206
0.354442
0.354679
0.354915
0.35515
0.355386
0.355622
0.355858
0.356093
0.356328
0.356563
0.356798
0.357033
0.357268
0.357502
0.357737
0.357971
0.358205
0.358439
0.358673
0.358907
0.359141
0.359375
0.359608
0.359841
0.360075
0.360308
0.360541
0.360774
0.361007
0.36124
0.361473
0.361705
0.361938
0.36217
0.362402
0.362634
0.362866
0.363098
0.363329
0.363561
0.363792
0.364023
0.364254
0.364485
0.364716
0.364946
0.365177
0.365407
0.365638
0.365868
0.366098
0.366328
0.366558
0.366788
0.367018
0.367248
0.367477
0.367707
0.367936
0.368166
0.368395
0.368624
0.368853
0.369081
0.36931
0.369538
0.369766
0.369994
0.370222
0.37045
0.370677
0.370905
0.371132
0.371359
0.371586
0.371812
0.372039
0.372265
0.372491
0.372717
0.372943
0.373169
0.373395
0.37362
0.373845
0.37407
0.374295
0.37452
0.374745
0.37497
0.375194
0.375418
0.375643
0.375867
0.37609
0.376314
0.376538
0.376761
0.376984
0.377207
0.37743
0.377653
0.377876
0.378098
0.37832
0.378543
0.378765
0.378986
0.379208
0.37943
0.379651
0.379872
0.380093
0.380314
0.380535
0.380755
0.380976
0.381196
0.381416
0.381636
0.381855
0.382075
0.382294
0.382513
0.382732
0.382951
0.38317
0.383388
0.383606
0.383824
0.384042
0.38426
0.384478
0.384695
0.384912
0.385129
0.385346
0.385563
0.385779
0.385995
0.386211
0.386427
0.386643
0.386859
0.387074
0.387289
0.387504
0.387719
0.387933
0.388148
0.388362
0.388576
0.38879
0.389004
0.389217
0.38943
0.389643
0.389856
0.390069
0.390281
0.390494
0.390706
0.390918
0.391129
0.391341
0.391552
0.391763
0.391974
0.392185
0.392395
0.392605
0.392815
0.393025
0.393235
0.393445
0.393654
0.393863
0.394072
0.39428
0.394489
0.394697
0.394905
0.395113
0.395321
0.395528
0.395735
0.395942
0.396149
0.396356
0.396562
0.396768
0.396974
0.39718
0.397386
0.397591
0.397796
0.398001
0.398206
0.39841
0.398615
0.398819
0.399023
0.399226
0.39943
0.399633
0.399836
0.400039
0.400242
0.400444
0.400646
0.400848
0.40105
0.401251
0.401453
0.401654
0.401855
0.402055
0.402256
0.402456
0.402656
0.402856
0.403055
0.403255
0.403454
0.403653
0.403851
0.40405
0.404248
0.404446
0.404644
0.404842
0.405039
0.405236
0.405433
0.40563
0.405826
0.406022
0.406219
0.406414
0.40661
0.406805
0.407
0.407195
0.40739
0.407585
0.407779
0.407973
0.408167
0.40836
0.408553
0.408747
0.408939
0.409132
0.409325
0.409517
0.409709
0.409901
0.410092
0.410283
0.410474
0.410665
0.410856
0.411046
0.411236
0.411426
0.411616
0.411805
0.411995
0.412184
0.412372
0.412561
0.412749
0.412937
0.413125
0.413313
0.4135
0.413687
0.413874
0.414061
0.414248
0.414434
0.41462
0.414805
0.414991
0.415176
0.415361
0.415546
0.415731
0.415915
0.416099
0.416283
0.416467
0.41665
0.416833
0.417016
0.417199
0.417382
0.417564
0.417746
0.417928
0.418109
0.41829
0.418472
0.418652
0.418833
0.419013
0.419193
0.419373
0.419553
0.419732
0.419912
0.420091
0.420269
0.420448
0.420626
0.420804
0.420982
0.421159
0.421337
0.421514
0.42169
0.421867
0.422043
0.422219
0.422395
0.422571
0.422746
0.422921
0.423096
0.423271
0.423445
0.42362
0.423794
0.423967
0.424141
0.424314
0.424487
0.42466
0.424832
0.425004
0.425177
0.425348
0.42552
0.425691
0.425862
0.426033
0.426204
0.426374
0.426544
0.426714
0.426884
0.427053
0.427222
0.427391
0.42756
0.427728
0.427897
0.428065
0.428232
0.4284
0.428567
0.428734
0.428901
0.429068
0.429234
0.4294
0.429566
0.429731
0.429897
0.430062
0.430227
0.430391
0.430556
0.43072
0.430884
0.431047
0.431211
0.431374
0.431537
0.4317
0.431862
0.432025
0.432187
0.432348
0.43251
0.432671
0.432832
0.432993
0.433154
0.433314
0.433474
0.433634
0.433794
0.433953
0.434112
0.434271
0.43443
0.434588
0.434747
0.434904
0.435062
0.43522
0.435377
0.435534
0.435691
0.435847
0.436004
0.43616
0.436316
0.436471
0.436627
0.436782
0.436937
0.437091
0.437246
0.4374
0.437554
0.437708
0.437861
0.438015
0.438168
0.43832
0.438473
0.438625
0.438777
0.438929
0.439081
0.439232
0.439384
0.439534
0.439685
0.439836
0.439986
0.440136
0.440286
0.440435
0.440585
0.440734
0.440882
0.441031
0.44118
0.441328
0.441476
0.441623
0.441771
0.441918
0.442065
0.442212
0.442358
0.442505
0.442651
0.442797
0.442942
0.443088
0.443233
0.443378
0.443523
0.443667
0.443812
0.443956
0.444099
0.444243
0.444386
0.44453
0.444673
0.444815
0.444958
0.4451
0.445242
0.445384
0.445525
0.445667
0.445808
0.445949
0.44609
0.44623
0.44637
0.44651
0.44665
0.44679
0.446929
0.447068
0.447207
0.447346
0.447484
0.447623
0.447761
0.447899
0.448036
0.448174
0.448311
0.448448
0.448585
0.448721
0.448857
0.448994
0.449129
0.449265
0.449401
0.449536
0.449671
0.449806
0.44994
0.450075
0.450209
0.450343
0.450477
0.45061
0.450743
0.450876
0.451009
0.451142
0.451275
0.451407
0.451539
0.451671
0.451802
0.451934
0.452065
0.452196
0.452327
0.452458
0.452588
0.452718
0.452848
0.452978
0.453108
0.453237
0.453366
0.453495
0.453624
0.453752
0.453881
0.454009
0.454137
0.454265
0.454392
0.45452
0.454647
0.454774
0.4549
0.455027
0.455153
0.45528
0.455405
0.455531
0.455657
0.455782
0.455907
0.456032
0.456157
0.456282
0.456406
0.45653
0.456654
0.456778
0.456902
0.457025
0.457149
0.457272
0.457394
0.457517
0.45764
0.457762
0.457884
0.458006
0.458128
0.458249
0.458371
0.458492
0.458613
0.458733
0.458854
0.458975
0.459095
0.459215
0.459335
0.459454
0.459574
0.459693
0.459812
0.459931
0.46005
0.460169
0.460287
0.460405
0.460524
0.460641
0.460759
0.460877
0.460994
0.461111
0.461228
0.461345
0.461462
0.461578
0.461695
0.461811
0.461927
0.462043
0.462158
0.462274
0.462389
0.462504
0.462619
0.462734
0.462848
0.462963
0.463077
0.463191
0.463305
0.463419
0.463533
0.463646
0.463759
0.463873
0.463986
0.464098
0.464211
0.464324
0.464436
0.464548
0.46466
0.464772
0.464884
0.464995
0.465107
0.465218
0.465329
0.46544
0.465551
0.465661
0.465772
0.465882
0.465992
0.466102
0.466212
0.466322
0.466431
0.466541
0.46665
0.466759
0.466868
0.466977
0.467085
0.467194
0.467302
0.46741
0.467519
0.467626
0.467734
0.467842
0.467949
0.468057
0.468164
0.468271
0.468378
0.468485
0.468592
0.468698
0.468804
0.468911
0.469017
0.469123
0.469229
0.469334
0.46944
0.469546
0.469651
0.469756
0.469861
0.469966
0.470071
0.470176
0.47028
0.470385
0.470489
0.470593
0.470697
0.470801
0.470905
0.471009
0.471112
0.471216
0.471319
0.471422
0.471525
0.471628
0.471731
0.471834
0.471936
0.472039
0.472141
0.472243
0.472346
0.472448
0.472549
0.472651
0.472753
0.472855
0.472956
0.473057
0.473159
0.47326
0.473361
0.473462
0.473563
0.473663
0.473764
0.473864
0.473965
0.474065
0.474165
0.474265
0.474365
0.474465
0.474565
0.474665
0.474764
0.474864
0.474963
0.475063
0.475162
0.475261
0.47536
0.475459
0.475558
0.475656
0.475755
0.475854
0.475952
0.476051
0.476149
0.476247
0.476345
0.476443
0.476541
0.476639
0.476737
0.476835
0.476932
0.47703
0.477127
0.477225
0.477322
0.477419
0.477517
0.477614
0.477711
0.477808
0.477905
0.478002
0.478098
0.478195
0.478292
0.478388
0.478485
0.478582
0.478678
0.478774
0.478871
0.478967
0.479063
0.47916
0.479256
0.479352
0.479448
0.479544
0.47964
0.479736
0.479832
0.479928
0.480024
0.48012
0.480216
0.480312
0.480408
0.480503
0.480599
0.480695
0.480791
0.480887
0.480983
0.481079
0.481176
0.481272
0.481368
0.481464
0.481561
0.481657
0.481754
0.481851
0.481947
0.482044
0.482142
0.482239
0.482336
0.482434
0.482532
0.48263
0.482729
0.482828
0.482927
0.483026
0.483126
0.483226
0.483327
0.483428
0.48353
0.483632
0.483735
0.483838
0.483943
0.484048
0.484153
0.48426
0.484368
0.484477
0.484587
0.484698
0.48481
0.484924
0.48504
0.485157
0.485276
0.485397
0.48552
0.485646
0.485774
0.485905
0.486039
0.486177
0.486318
0.486464
0.486614
0.486768
0.486929
0.487095
0.487268
0.487449
0.487639
0.48784
0.488052
0.488281
0.488529
0.488802
0.489109
0.489459
0.489863
0.490342
0.490983
0.49184
1.01524
1.04993
1.01157
0.94355
0.870551
0.803897
0.747278
0.700871
0.663457
0.633453
0.609355
0.589889
0.574033
0.560987
0.55014
0.541028
0.533296
0.526677
0.520965
0.516002
0.511663
0.507853
0.504492
0.501517
0.498878
0.496532
0.494443
0.492581
0.49092
0.48944
0.48812
0.486944
0.485899
0.484972
0.484151
0.483428
0.482793
0.482238
0.481757
0.481344
0.480993
0.480699
0.480456
0.480262
0.480113
0.480004
0.479932
0.479896
0.479892
0.479917
0.47997
0.480049
0.480151
0.480275
0.48042
0.480583
0.480764
0.480962
0.481174
0.481401
0.481641
0.481893
0.482156
0.48243
0.482713
0.483005
0.483306
0.483614
0.483929
0.48425
0.484577
0.484908
0.485244
0.485584
0.485926
0.486272
0.48662
0.48697
0.487321
0.487674
0.488028
0.488384
0.48874
0.489098
0.489456
0.489815
0.490176
0.490537
0.490899
0.491262
0.491626
0.49199
0.492355
0.492721
0.493088
0.493455
0.493823
0.494192
0.494561
0.494931
0.495302
0.495673
0.496045
0.496417
0.49679
0.497164
0.497538
0.497913
0.498288
0.498663
0.499039
0.499415
0.499791
0.500168
0.500544
0.50092
0.501297
0.501672
0.502048
0.502423
0.502798
0.503172
0.503546
0.50392
0.504293
0.504666
0.505039
0.505412
0.505784
0.506156
0.506528
0.5069
0.507272
0.507644
0.508015
0.508387
0.508759
0.50913
0.509502
0.509874
0.510245
0.510617
0.510989
0.511361
0.511733
0.512105
0.512477
0.512849
0.513221
0.513593
0.513965
0.514337
0.514709
0.51508
0.515452
0.515823
0.516194
0.516565
0.516936
0.517306
0.517677
0.518047
0.518417
0.518788
0.519158
0.519527
0.519897
0.520267
0.520636
0.521006
0.521375
0.521744
0.522113
0.522482
0.522851
0.52322
0.523589
0.523957
0.524326
0.524694
0.525063
0.525431
0.525799
0.526166
0.526534
0.526902
0.527269
0.527636
0.528003
0.52837
0.528736
0.529103
0.52947
0.529836
0.530202
0.530568
0.530935
0.531301
0.531667
0.532033
0.532399
0.532764
0.53313
0.533496
0.533861
0.534227
0.534592
0.534957
0.535322
0.535687
0.536052
0.536417
0.536781
0.537145
0.537509
0.537873
0.538237
0.5386
0.538964
0.539327
0.53969
0.540053
0.540415
0.540778
0.54114
0.541502
0.541864
0.542226
0.542588
0.542949
0.54331
0.543672
0.544033
0.544394
0.544755
0.545115
0.545476
0.545836
0.546196
0.546556
0.546916
0.547276
0.547636
0.547995
0.548355
0.548714
0.549073
0.549432
0.549791
0.550149
0.550508
0.550866
0.551224
0.551582
0.55194
0.552297
0.552655
0.553012
0.553369
0.553726
0.554083
0.55444
0.554796
0.555153
0.555509
0.555865
0.556221
0.556576
0.556932
0.557287
0.557642
0.557997
0.558352
0.558707
0.559061
0.559415
0.559769
0.560123
0.560477
0.56083
0.561184
0.561537
0.56189
0.562243
0.562595
0.562948
0.5633
0.563652
0.564004
0.564355
0.564707
0.565058
0.565409
0.56576
0.566111
0.566461
0.566812
0.567162
0.567512
0.567861
0.568211
0.56856
0.568909
0.569258
0.569607
0.569956
0.570304
0.570652
0.571
0.571348
0.571695
0.572043
0.57239
0.572737
0.573084
0.57343
0.573776
0.574122
0.574468
0.574814
0.57516
0.575505
0.57585
0.576195
0.576539
0.576884
0.577228
0.577572
0.577916
0.57826
0.578603
0.578946
0.579289
0.579632
0.579975
0.580317
0.580659
0.581001
0.581343
0.581684
0.582026
0.582367
0.582708
0.583048
0.583389
0.583729
0.584069
0.584409
0.584748
0.585088
0.585427
0.585766
0.586104
0.586443
0.586781
0.587119
0.587457
0.587794
0.588132
0.588469
0.588806
0.589143
0.589479
0.589815
0.590151
0.590487
0.590823
0.591158
0.591493
0.591828
0.592163
0.592498
0.592832
0.593166
0.5935
0.593833
0.594167
0.5945
0.594833
0.595165
0.595498
0.59583
0.596162
0.596494
0.596825
0.597157
0.597488
0.597819
0.598149
0.59848
0.59881
0.59914
0.599469
0.599799
0.600128
0.600457
0.600786
0.601114
0.601443
0.601771
0.602099
0.602426
0.602754
0.603081
0.603408
0.603734
0.604061
0.604387
0.604713
0.605039
0.605364
0.60569
0.606015
0.60634
0.606664
0.606988
0.607313
0.607636
0.60796
0.608283
0.608607
0.60893
0.609252
0.609575
0.609897
0.610219
0.610541
0.610862
0.611183
0.611504
0.611825
0.612146
0.612466
0.612786
0.613106
0.613425
0.613745
0.614064
0.614383
0.614701
0.61502
0.615338
0.615656
0.615974
0.616291
0.616608
0.616925
0.617242
0.617558
0.617874
0.61819
0.618506
0.618822
0.619137
0.619452
0.619767
0.620081
0.620395
0.62071
0.621023
0.621337
0.62165
0.621963
0.622276
0.622589
0.622901
0.623213
0.623525
0.623837
0.624148
0.624459
0.62477
0.62508
0.625391
0.625701
0.626011
0.626321
0.62663
0.626939
0.627248
0.627557
0.627865
0.628173
0.628481
0.628789
0.629096
0.629404
0.629711
0.630017
0.630324
0.63063
0.630936
0.631242
0.631547
0.631852
0.632157
0.632462
0.632767
0.633071
0.633375
0.633679
0.633982
0.634286
0.634589
0.634891
0.635194
0.635496
0.635798
0.6361
0.636402
0.636703
0.637004
0.637305
0.637606
0.637906
0.638206
0.638506
0.638805
0.639105
0.639404
0.639703
0.640001
0.6403
0.640598
0.640896
0.641194
0.641491
0.641788
0.642085
0.642382
0.642678
0.642974
0.64327
0.643566
0.643861
0.644157
0.644452
0.644746
0.645041
0.645335
0.645629
0.645923
0.646216
0.646509
0.646802
0.647095
0.647388
0.64768
0.647972
0.648264
0.648555
0.648847
0.649138
0.649429
0.649719
0.65001
0.6503
0.65059
0.650879
0.651169
0.651458
0.651747
0.652035
0.652324
0.652612
0.6529
0.653187
0.653475
0.653762
0.654049
0.654336
0.654622
0.654909
0.655195
0.65548
0.655766
0.656051
0.656336
0.656621
0.656906
0.65719
0.657474
0.657758
0.658042
0.658325
0.658608
0.658891
0.659174
0.659456
0.659738
0.66002
0.660302
0.660584
0.660865
0.661146
0.661427
0.661707
0.661988
0.662268
0.662548
0.662827
0.663107
0.663386
0.663665
0.663943
0.664222
0.6645
0.664778
0.665056
0.665333
0.665611
0.665888
0.666164
0.666441
0.666717
0.666994
0.667269
0.667545
0.667821
0.668096
0.668371
0.668646
0.66892
0.669194
0.669469
0.669742
0.670016
0.670289
0.670563
0.670836
0.671108
0.671381
0.671653
0.671925
0.672197
0.672468
0.67274
0.673011
0.673282
0.673553
0.673823
0.674093
0.674363
0.674633
0.674903
0.675172
0.675441
0.67571
0.675979
0.676247
0.676516
0.676784
0.677052
0.677319
0.677587
0.677854
0.678121
0.678387
0.678654
0.67892
0.679186
0.679452
0.679718
0.679983
0.680248
0.680513
0.680778
0.681043
0.681307
0.681571
0.681835
0.682099
0.682363
0.682626
0.682889
0.683152
0.683415
0.683677
0.683939
0.684201
0.684463
0.684725
0.684986
0.685247
0.685508
0.685769
0.68603
0.68629
0.68655
0.68681
0.68707
0.68733
0.687589
0.687848
0.688107
0.688366
0.688625
0.688883
0.689141
0.689399
0.689657
0.689914
0.690172
0.690429
0.690686
0.690943
0.691199
0.691456
0.691712
0.691968
0.692224
0.692479
0.692735
0.69299
0.693245
0.6935
0.693754
0.694009
0.694263
0.694517
0.694771
0.695024
0.695278
0.695531
0.695784
0.696037
0.69629
0.696542
0.696795
0.697047
0.697299
0.697551
0.697802
0.698054
0.698305
0.698556
0.698807
0.699058
0.699308
0.699558
0.699809
0.700059
0.700308
0.700558
0.700807
0.701057
0.701306
0.701555
0.701803
0.702052
0.7023
0.702548
0.702796
0.703044
0.703292
0.703539
0.703787
0.704034
0.704281
0.704528
0.704774
0.705021
0.705267
0.705513
0.705759
0.706005
0.706251
0.706496
0.706741
0.706987
0.707232
0.707476
0.707721
0.707966
0.70821
0.708454
0.708698
0.708942
0.709186
0.709429
0.709672
0.709916
0.710159
0.710402
0.710644
0.710887
0.711129
0.711372
0.711614
0.711856
0.712097
0.712339
0.712581
0.712822
0.713063
0.713304
0.713545
0.713786
0.714027
0.714267
0.714507
0.714747
0.714987
0.715227
0.715467
0.715707
0.715946
0.716185
0.716425
0.716664
0.716903
0.717141
0.71738
0.717618
0.717857
0.718095
0.718333
0.718571
0.718809
0.719046
0.719284
0.719521
0.719758
0.719996
0.720232
0.720469
0.720706
0.720943
0.721179
0.721415
0.721652
0.721888
0.722124
0.72236
0.722595
0.722831
0.723066
0.723302
0.723537
0.723772
0.724007
0.724242
0.724477
0.724711
0.724946
0.72518
0.725414
0.725648
0.725882
0.726116
0.72635
0.726584
0.726817
0.727051
0.727284
0.727518
0.727751
0.727984
0.728217
0.728449
0.728682
0.728915
0.729147
0.72938
0.729612
0.729844
0.730076
0.730308
0.73054
0.730772
0.731003
0.731235
0.731467
0.731698
0.731929
0.73216
0.732392
0.732623
0.732854
0.733084
0.733315
0.733546
0.733776
0.734007
0.734237
0.734468
0.734698
0.734928
0.735158
0.735388
0.735618
0.735848
0.736077
0.736307
0.736537
0.736766
0.736996
0.737225
0.737455
0.737684
0.737913
0.738142
0.738371
0.7386
0.738829
0.739058
0.739287
0.739516
0.739745
0.739974
0.740202
0.740431
0.74066
0.740888
0.741117
0.741345
0.741574
0.741803
0.742031
0.74226
0.742488
0.742717
0.742945
0.743174
0.743402
0.743631
0.74386
0.744089
0.744317
0.744546
0.744775
0.745004
0.745233
0.745463
0.745692
0.745921
0.746151
0.746381
0.746611
0.746841
0.747072
0.747302
0.747533
0.747764
0.747996
0.748228
0.74846
0.748693
0.748926
0.749159
0.749393
0.749628
0.749863
0.750099
0.750335
0.750572
0.75081
0.751049
0.751289
0.75153
0.751772
0.752015
0.752259
0.752505
0.752752
0.753001
0.753251
0.753503
0.753758
0.754014
0.754273
0.754534
0.754798
0.755065
0.755336
0.75561
0.755887
0.756169
0.756456
0.756747
0.757044
0.757346
0.757656
0.757972
0.758296
0.758629
0.758972
0.759325
0.759691
0.760072
0.760469
0.760887
0.76133
0.761804
0.762316
0.762874
0.763483
0.764154
0.764962
0.765953
1.01173
1.05477
1.05474
1.02445
0.978087
0.92736
0.878995
0.835983
0.799144
0.768217
0.742494
0.721152
0.703408
0.688583
0.676115
0.665552
0.656535
0.648784
0.642075
0.636236
0.631126
0.626635
0.622675
0.619171
0.616065
0.613306
0.610852
0.608669
0.606725
0.604996
0.603459
0.602094
0.600885
0.599817
0.598877
0.598053
0.597334
0.596712
0.596179
0.595726
0.595347
0.595037
0.594789
0.594599
0.594462
0.594374
0.594331
0.59433
0.594368
0.594441
0.594548
0.594685
0.594851
0.595043
0.595259
0.595498
0.595759
0.596039
0.596337
0.596652
0.596983
0.597328
0.597687
0.598059
0.598442
0.598836
0.59924
0.599652
0.600073
0.600502
0.600937
0.601377
0.601823
0.602274
0.602728
0.603185
0.603646
0.604108
0.604573
0.60504
0.605508
0.605977
0.606448
0.60692
0.607394
0.607868
0.608343
0.60882
0.609297
0.609776
0.610255
0.610735
0.611217
0.611699
0.612181
0.612665
0.61315
0.613635
0.614121
0.614608
0.615096
0.615584
0.616073
0.616563
0.617054
0.617545
0.618037
0.618529
0.619022
0.619516
0.620009
0.620504
0.620998
0.621492
0.621987
0.622481
0.622975
0.623469
0.623963
0.624456
0.624949
0.625441
0.625933
0.626424
0.626916
0.627406
0.627897
0.628387
0.628877
0.629367
0.629857
0.630346
0.630836
0.631325
0.631814
0.632304
0.632793
0.633282
0.633772
0.634261
0.634751
0.63524
0.63573
0.63622
0.63671
0.6372
0.637689
0.638179
0.638669
0.639159
0.639649
0.640139
0.640628
0.641118
0.641607
0.642096
0.642585
0.643074
0.643563
0.644051
0.64454
0.645028
0.645516
0.646004
0.646492
0.64698
0.647467
0.647955
0.648442
0.648929
0.649417
0.649904
0.650391
0.650878
0.651365
0.651851
0.652338
0.652825
0.653311
0.653798
0.654284
0.65477
0.655256
0.655742
0.656227
0.656713
0.657198
0.657683
0.658168
0.658653
0.659138
0.659622
0.660107
0.660591
0.661075
0.66156
0.662044
0.662528
0.663012
0.663496
0.66398
0.664464
0.664948
0.665431
0.665915
0.666399
0.666882
0.667365
0.667848
0.668332
0.668814
0.669297
0.66978
0.670262
0.670745
0.671227
0.671708
0.67219
0.672672
0.673153
0.673634
0.674115
0.674596
0.675076
0.675557
0.676037
0.676517
0.676997
0.677477
0.677957
0.678436
0.678916
0.679395
0.679874
0.680353
0.680832
0.681311
0.681789
0.682268
0.682746
0.683224
0.683702
0.68418
0.684658
0.685135
0.685613
0.68609
0.686567
0.687044
0.687521
0.687998
0.688474
0.688951
0.689427
0.689903
0.690379
0.690855
0.691331
0.691806
0.692282
0.692757
0.693232
0.693707
0.694181
0.694656
0.69513
0.695604
0.696078
0.696552
0.697026
0.697499
0.697973
0.698446
0.698919