/*--------------------------------*- C++ -*----------------------------------*\
| =========                 |                                                 |
| \\      /  F ield         | OpenFOAM: The Open Source CFD Toolbox           |
|  \\    /   O peration     | Version:  2512                                  |
|   \\  /    A nd           | Website:  www.openfoam.com                      |
|    \\/     M anipulation  |                                                 |
\*---------------------------------------------------------------------------*/
FoamFile
{
    version     2.0;
    format      ascii;
    arch        "LSB;label=32;scalar=64";
    class       volVectorField;
    location    "0.1";
    object      B;
}
// * * * * * * * * * * * * * * * * * * * * * * * * * * * * * * * * * * * * * //

dimensions      [1 0 -2 0 0 -1 0];

internalField   nonuniform List<vector> 
8333
(
(2.89999e-06 19.9997 -2.79854e-21)
(2.91307e-06 19.9997 -2.6346e-20)
(2.93633e-06 19.9997 -3.55716e-20)
(2.96495e-06 19.9997 -6.0982e-20)
(2.99384e-06 19.9997 -5.71683e-20)
(3.02492e-06 19.9997 -4.4951e-20)
(3.06592e-06 19.9997 -3.1499e-20)
(3.12448e-06 19.9997 -5.8541e-21)
(3.20452e-06 19.9997 1.14713e-20)
(3.30592e-06 19.9997 4.2546e-20)
(3.42593e-06 19.9998 6.36436e-20)
(3.56037e-06 19.9998 9.53245e-20)
(3.70437e-06 19.9998 1.16865e-19)
(3.85342e-06 19.9998 1.39363e-19)
(4.00331e-06 19.9998 1.5873e-19)
(4.14904e-06 19.9998 1.70669e-19)
(4.2854e-06 19.9998 1.87149e-19)
(-2.53737e-06 19.9997 -2.10595e-20)
(-2.52153e-06 19.9997 -4.75583e-20)
(-2.49509e-06 19.9997 -6.50922e-20)
(-2.47452e-06 19.9997 -9.57891e-20)
(-2.4814e-06 19.9997 -1.0412e-19)
(-2.52533e-06 19.9997 -9.24565e-20)
(-2.6029e-06 19.9997 -7.54415e-20)
(-2.7057e-06 19.9997 -3.53161e-20)
(-2.82706e-06 19.9997 -1.00862e-20)
(-2.96343e-06 19.9997 3.85416e-20)
(-3.11239e-06 19.9998 6.8054e-20)
(-3.27152e-06 19.9998 1.154e-19)
(-3.43778e-06 19.9998 1.44433e-19)
(-3.60792e-06 19.9998 1.74905e-19)
(-3.77853e-06 19.9998 2.00138e-19)
(-3.94678e-06 19.9998 2.10367e-19)
(-4.11128e-06 19.9998 2.29165e-19)
(-4.26315e-06 19.9998 2.32155e-19)
(-4.40241e-06 19.9998 2.42876e-19)
(-4.53387e-06 19.9998 2.42143e-19)
(-4.65483e-06 19.9998 2.52192e-19)
(-4.76432e-06 19.9998 2.48635e-19)
(-4.86389e-06 19.9999 2.53443e-19)
(-4.95415e-06 19.9999 2.47134e-19)
(-5.03543e-06 19.9999 2.53035e-19)
(-5.10824e-06 19.9999 2.47173e-19)
(-5.17312e-06 19.9999 2.50408e-19)
(-5.23073e-06 19.9999 2.44758e-19)
(-5.28172e-06 19.9999 2.499e-19)
(-5.32669e-06 19.9999 2.48332e-19)
(-5.36625e-06 19.9999 2.51535e-19)
(-5.40099e-06 19.9999 2.52069e-19)
(-5.43148e-06 19.9999 2.61849e-19)
(-5.45821e-06 19.9999 2.62787e-19)
(-5.48162e-06 19.9999 2.73107e-19)
(-5.50208e-06 19.9999 2.71664e-19)
(-5.51993e-06 19.9999 2.68092e-19)
(-5.53549e-06 19.9999 2.66299e-19)
(-5.54904e-06 19.9999 2.63401e-19)
(-5.56083e-06 19.9999 2.72972e-19)
(-5.57108e-06 19.9999 2.72983e-19)
(-5.57997e-06 19.9999 2.79342e-19)
(-5.58767e-06 19.9999 2.72993e-19)
(-5.59433e-06 19.9999 2.65735e-19)
(-5.60008e-06 19.9999 2.59175e-19)
(-5.60503e-06 19.9999 2.60771e-19)
(-5.60929e-06 19.9999 2.64579e-19)
(-5.61293e-06 19.9999 2.79217e-19)
(-5.61602e-06 19.9999 2.82038e-19)
(-5.61865e-06 19.9999 2.89976e-19)
(-5.62086e-06 19.9999 2.83113e-19)
(-5.6227e-06 19.9999 2.75402e-19)
(-5.62422e-06 19.9999 2.68173e-19)
(-5.62546e-06 19.9999 2.72048e-19)
(-5.62644e-06 19.9999 2.72828e-19)
(-5.6272e-06 19.9999 2.9659e-19)
(-5.62777e-06 19.9999 2.92897e-19)
(-5.62816e-06 19.9999 3.09902e-19)
(-5.6284e-06 19.9999 2.9688e-19)
(-5.6285e-06 19.9999 2.8619e-19)
(-5.62847e-06 19.9999 2.79422e-19)
(-5.62833e-06 19.9999 2.82227e-19)
(-5.6281e-06 19.9999 2.94203e-19)
(-5.62777e-06 19.9999 3.12525e-19)
(-5.62737e-06 19.9999 3.26701e-19)
(-5.62689e-06 19.9999 3.46365e-19)
(-5.62635e-06 19.9999 3.40484e-19)
(-5.62574e-06 19.9999 3.6853e-19)
(-5.62508e-06 19.9999 3.3276e-19)
(-5.62437e-06 19.9999 3.60865e-19)
(-5.62361e-06 19.9999 3.02471e-19)
(-5.62281e-06 19.9999 2.82613e-19)
(-5.62196e-06 19.9999 2.71008e-19)
(-5.62108e-06 19.9999 2.73232e-19)
(-5.62016e-06 19.9999 2.89093e-19)
(-5.61921e-06 19.9999 3.11894e-19)
(-5.61823e-06 19.9999 3.33776e-19)
(-5.61721e-06 19.9999 3.49963e-19)
(-5.61617e-06 19.9999 3.62017e-19)
(-5.6151e-06 19.9999 3.66338e-19)
(-5.614e-06 19.9999 3.76536e-19)
(-5.61287e-06 19.9999 3.63072e-19)
(-5.61171e-06 19.9999 3.85584e-19)
(-5.61053e-06 19.9999 3.45771e-19)
(-5.60931e-06 19.9999 3.72192e-19)
(-5.60808e-06 19.9999 3.11937e-19)
(-5.60681e-06 19.9999 2.89913e-19)
(-5.60552e-06 19.9999 2.76868e-19)
(-5.6042e-06 19.9999 2.78713e-19)
(-5.60285e-06 19.9999 2.94494e-19)
(-5.60147e-06 19.9999 3.16985e-19)
(-5.60005e-06 19.9999 3.39209e-19)
(-5.59861e-06 19.9999 3.56318e-19)
(-5.59714e-06 19.9999 3.66992e-19)
(-5.59563e-06 19.9999 3.74796e-19)
(-5.59409e-06 19.9999 3.75894e-19)
(-5.59251e-06 19.9999 3.83958e-19)
(-5.5909e-06 19.9999 3.68245e-19)
(-5.58924e-06 19.9999 3.89876e-19)
(-5.58755e-06 19.9999 3.48695e-19)
(-5.58581e-06 19.9999 3.73826e-19)
(-5.58403e-06 19.9999 3.1352e-19)
(-5.58221e-06 19.9999 2.9112e-19)
(-5.58033e-06 19.9999 2.77397e-19)
(-5.57841e-06 19.9999 2.78908e-19)
(-5.57644e-06 19.9999 2.94771e-19)
(-5.57442e-06 19.9999 3.17554e-19)
(-5.57235e-06 19.9999 3.38959e-19)
(-5.57022e-06 19.9999 3.55017e-19)
(-5.56803e-06 19.9999 3.65321e-19)
(-5.56579e-06 19.9999 3.7251e-19)
(-5.56348e-06 19.9999 3.74282e-19)
(-5.56112e-06 19.9999 3.81371e-19)
(-5.5587e-06 19.9999 3.68468e-19)
(-5.55622e-06 19.9999 3.85356e-19)
(-5.55368e-06 19.9999 3.50813e-19)
(-5.55108e-06 19.9999 3.64497e-19)
(-5.54843e-06 19.9999 3.22276e-19)
(-5.54572e-06 19.9999 2.9495e-19)
(-5.54296e-06 19.9999 2.77383e-19)
(-5.54015e-06 19.9999 2.76853e-19)
(-5.5373e-06 19.9999 2.91705e-19)
(-5.53442e-06 19.9999 3.13975e-19)
(-5.53152e-06 19.9999 3.35468e-19)
(-5.52862e-06 19.9999 3.52055e-19)
(-5.52571e-06 19.9999 3.63757e-19)
(-5.52283e-06 19.9999 3.71446e-19)
(-5.52e-06 19.9999 3.76321e-19)
(-5.51723e-06 19.9999 3.79707e-19)
(-5.51457e-06 19.9999 3.81893e-19)
(-5.51205e-06 19.9999 3.82893e-19)
(-5.50971e-06 19.9999 3.83307e-19)
(-5.5076e-06 19.9999 3.83184e-19)
(-5.50577e-06 19.9999 3.83334e-19)
(-5.50431e-06 19.9999 3.81433e-19)
(-5.50328e-06 19.9999 3.82675e-19)
(-5.50278e-06 19.9999 3.74901e-19)
(-5.5029e-06 19.9999 3.79957e-19)
(-5.50376e-06 19.9999 3.63888e-19)
(-5.5055e-06 19.9999 3.6407e-19)
(-5.5082e-06 19.9999 3.41539e-19)
(-5.51216e-06 19.9999 3.0043e-19)
(-5.5173e-06 19.9999 2.93121e-19)
(-5.52427e-06 19.9999 2.90171e-19)
(-5.53253e-06 19.9999 3.11947e-19)
(-5.54356e-06 19.9999 3.18932e-19)
(-5.55624e-06 19.9999 3.47963e-19)
(-5.57332e-06 19.9999 3.45535e-19)
(-5.59522e-06 19.9999 3.31556e-19)
(-7.97537e-06 19.9997 -3.71594e-20)
(-7.96121e-06 19.9997 -6.18943e-20)
(-7.93911e-06 19.9997 -8.48005e-20)
(-7.93345e-06 19.9997 -1.14978e-19)
(-7.97736e-06 19.9997 -1.29596e-19)
(-8.09187e-06 19.9997 -1.18196e-19)
(-8.28118e-06 19.9997 -1.03305e-19)
(-8.53925e-06 19.9997 -5.21091e-20)
(-8.85804e-06 19.9997 -2.75856e-20)
(-9.23022e-06 19.9997 3.94461e-20)
(-9.6475e-06 19.9998 7.20703e-20)
(-1.01004e-05 19.9998 1.3781e-19)
(-1.05773e-05 19.9998 1.71231e-19)
(-1.10671e-05 19.9998 2.10902e-19)
(-1.15586e-05 19.9998 2.41611e-19)
(-1.20413e-05 19.9998 2.48192e-19)
(-1.25077e-05 19.9998 2.72014e-19)
(-1.29501e-05 19.9998 2.6588e-19)
(-1.33632e-05 19.9998 2.75484e-19)
(-1.37464e-05 19.9998 2.65299e-19)
(-1.40989e-05 19.9998 2.77089e-19)
(-1.44191e-05 19.9998 2.64351e-19)
(-1.47085e-05 19.9999 2.69826e-19)
(-1.49687e-05 19.9999 2.5659e-19)
(-1.52013e-05 19.9999 2.67038e-19)
(-1.54081e-05 19.9999 2.55001e-19)
(-1.55912e-05 19.9999 2.60611e-19)
(-1.57527e-05 19.9999 2.50969e-19)
(-1.58947e-05 19.9999 2.61398e-19)
(-1.60192e-05 19.9999 2.57902e-19)
(-1.61278e-05 19.9999 2.64071e-19)
(-1.62224e-05 19.9999 2.65109e-19)
(-1.63048e-05 19.9999 2.81568e-19)
(-1.63763e-05 19.9999 2.81665e-19)
(-1.64383e-05 19.9999 3.00125e-19)
(-1.64918e-05 19.9999 2.97425e-19)
(-1.6538e-05 19.9999 2.94163e-19)
(-1.65778e-05 19.9999 2.93969e-19)
(-1.6612e-05 19.9999 2.90183e-19)
(-1.66412e-05 19.9999 3.05653e-19)
(-1.66663e-05 19.9999 3.03863e-19)
(-1.66876e-05 19.9999 3.15607e-19)
(-1.67057e-05 19.9999 3.05671e-19)
(-1.67211e-05 19.9999 2.974e-19)
(-1.6734e-05 19.9999 2.89695e-19)
(-1.67448e-05 19.9999 2.93214e-19)
(-1.67538e-05 19.9999 2.97149e-19)
(-1.67612e-05 19.9999 3.1784e-19)
(-1.67672e-05 19.9999 3.18677e-19)
(-1.67721e-05 19.9999 3.3227e-19)
(-1.67759e-05 19.9999 3.21414e-19)
(-1.67789e-05 19.9999 3.13186e-19)
(-1.6781e-05 19.9999 3.03611e-19)
(-1.67825e-05 19.9999 3.13557e-19)
(-1.67835e-05 19.9999 3.06432e-19)
(-1.67839e-05 19.9999 3.50669e-19)
(-1.67838e-05 19.9999 3.26725e-19)
(-1.67834e-05 19.9999 3.651e-19)
(-1.67827e-05 19.9999 3.26429e-19)
(-1.67817e-05 19.9999 3.05273e-19)
(-1.67804e-05 19.9999 2.92529e-19)
(-1.67789e-05 19.9999 2.96638e-19)
(-1.67772e-05 19.9999 3.1648e-19)
(-1.67753e-05 19.9999 3.44507e-19)
(-1.67733e-05 19.9999 3.68065e-19)
(-1.67711e-05 19.9999 3.90192e-19)
(-1.67689e-05 19.9999 3.92315e-19)
(-1.67665e-05 19.9999 4.11838e-19)
(-1.6764e-05 19.9999 3.90479e-19)
(-1.67615e-05 19.9999 3.99293e-19)
(-1.67588e-05 19.9999 3.70658e-19)
(-1.67561e-05 19.9999 3.49134e-19)
(-1.67534e-05 19.9999 3.34572e-19)
(-1.67506e-05 19.9999 3.33156e-19)
(-1.67477e-05 19.9999 3.44267e-19)
(-1.67448e-05 19.9999 3.62951e-19)
(-1.67418e-05 19.9999 3.81873e-19)
(-1.67388e-05 19.9999 3.96089e-19)
(-1.67358e-05 19.9999 4.06548e-19)
(-1.67327e-05 19.9999 4.11335e-19)
(-1.67296e-05 19.9999 4.18523e-19)
(-1.67264e-05 19.9999 4.10196e-19)
(-1.67233e-05 19.9999 4.23055e-19)
(-1.672e-05 19.9999 3.97805e-19)
(-1.67168e-05 19.9999 4.05485e-19)
(-1.67135e-05 19.9999 3.75817e-19)
(-1.67102e-05 19.9999 3.52554e-19)
(-1.67069e-05 19.9999 3.37319e-19)
(-1.67035e-05 19.9999 3.3603e-19)
(-1.67001e-05 19.9999 3.47362e-19)
(-1.66967e-05 19.9999 3.65748e-19)
(-1.66932e-05 19.9999 3.85464e-19)
(-1.66897e-05 19.9999 4.01009e-19)
(-1.66862e-05 19.9999 4.10607e-19)
(-1.66827e-05 19.9999 4.17707e-19)
(-1.66791e-05 19.9999 4.19559e-19)
(-1.66754e-05 19.9999 4.25289e-19)
(-1.66717e-05 19.9999 4.14596e-19)
(-1.6668e-05 19.9999 4.26854e-19)
(-1.66643e-05 19.9999 4.01019e-19)
(-1.66605e-05 19.9999 4.06761e-19)
(-1.66566e-05 19.9999 3.76495e-19)
(-1.66527e-05 19.9999 3.53949e-19)
(-1.66488e-05 19.9999 3.38628e-19)
(-1.66448e-05 19.9999 3.37019e-19)
(-1.66407e-05 19.9999 3.48371e-19)
(-1.66366e-05 19.9999 3.67342e-19)
(-1.66325e-05 19.9999 3.86009e-19)
(-1.66283e-05 19.9999 4.00345e-19)
(-1.6624e-05 19.9999 4.09499e-19)
(-1.66197e-05 19.9999 4.16521e-19)
(-1.66153e-05 19.9999 4.17077e-19)
(-1.66109e-05 19.9999 4.26994e-19)
(-1.66063e-05 19.9999 4.07427e-19)
(-1.66018e-05 19.9999 4.33918e-19)
(-1.65971e-05 19.9999 3.84028e-19)
(-1.65925e-05 19.9999 4.05308e-19)
(-1.65877e-05 19.9999 3.4674e-19)
(-1.65829e-05 19.9999 3.07748e-19)
(-1.6578e-05 19.9999 2.82128e-19)
(-1.65731e-05 19.9999 2.81378e-19)
(-1.65682e-05 19.9999 3.02795e-19)
(-1.65632e-05 19.9999 3.3466e-19)
(-1.65582e-05 19.9999 3.6483e-19)
(-1.65531e-05 19.9999 3.87411e-19)
(-1.65481e-05 19.9999 4.0293e-19)
(-1.65431e-05 19.9999 4.12501e-19)
(-1.65382e-05 19.9999 4.1891e-19)
(-1.65333e-05 19.9999 4.21028e-19)
(-1.65284e-05 19.9999 4.28263e-19)
(-1.65238e-05 19.9999 4.18607e-19)
(-1.65193e-05 19.9999 4.37785e-19)
(-1.6515e-05 19.9999 4.08178e-19)
(-1.6511e-05 19.9999 4.42466e-19)
(-1.65073e-05 19.9999 3.87255e-19)
(-1.6504e-05 19.9999 3.84641e-19)
(-1.65013e-05 19.9999 3.78507e-19)
(-1.64991e-05 19.9999 3.8745e-19)
(-1.64977e-05 19.9999 3.82601e-19)
(-1.6497e-05 19.9999 3.94047e-19)
(-1.64973e-05 19.9999 3.80712e-19)
(-1.64987e-05 19.9999 3.7929e-19)
(-1.65014e-05 19.9999 3.67751e-19)
(-1.65054e-05 19.9999 3.63902e-19)
(-1.65111e-05 19.9999 3.71287e-19)
(-1.65186e-05 19.9999 3.84391e-19)
(-1.65281e-05 19.9999 3.91397e-19)
(-1.654e-05 19.9999 4.11508e-19)
(-1.6558e-05 19.9999 4.10421e-19)
(-1.34136e-05 19.9997 -5.08928e-20)
(-1.34039e-05 19.9997 -7.51681e-20)
(-1.33923e-05 19.9997 -1.02191e-19)
(-1.34078e-05 19.9997 -1.33107e-19)
(-1.34915e-05 19.9997 -1.50547e-19)
(-1.36749e-05 19.9997 -1.38432e-19)
(-1.39718e-05 19.9997 -1.25438e-19)
(-1.43812e-05 19.9997 -6.41585e-20)
(-1.48948e-05 19.9997 -4.45173e-20)
(-1.55017e-05 19.9997 4.36625e-20)
(-1.61874e-05 19.9998 7.4797e-20)
(-1.69346e-05 19.9998 1.61544e-19)
(-1.77232e-05 19.9998 1.94686e-19)
(-1.85334e-05 19.9998 2.45973e-19)
(-1.93463e-05 19.9998 2.7903e-19)
(-2.01442e-05 19.9998 2.81243e-19)
(-2.09143e-05 19.9998 3.13279e-19)
(-2.16468e-05 19.9998 2.93506e-19)
(-2.23323e-05 19.9998 3.02623e-19)
(-2.29667e-05 19.9998 2.81895e-19)
(-2.35499e-05 19.9998 2.98102e-19)
(-2.40801e-05 19.9998 2.71733e-19)
(-2.45587e-05 19.9999 2.78878e-19)
(-2.49882e-05 19.9999 2.58185e-19)
(-2.53716e-05 19.9999 2.76436e-19)
(-2.5712e-05 19.9999 2.54282e-19)
(-2.60129e-05 19.9999 2.6313e-19)
(-2.6278e-05 19.9999 2.49359e-19)
(-2.65105e-05 19.9999 2.68054e-19)
(-2.6714e-05 19.9999 2.58816e-19)
(-2.68913e-05 19.9999 2.68678e-19)
(-2.70456e-05 19.9999 2.70803e-19)
(-2.71796e-05 19.9999 2.94978e-19)
(-2.72958e-05 19.9999 2.92852e-19)
(-2.73961e-05 19.9999 3.22023e-19)
(-2.74826e-05 19.9999 3.13694e-19)
(-2.7557e-05 19.9999 3.11387e-19)
(-2.76208e-05 19.9999 3.13745e-19)
(-2.76755e-05 19.9999 3.09548e-19)
(-2.77221e-05 19.9999 3.31532e-19)
(-2.77619e-05 19.9999 3.26589e-19)
(-2.77955e-05 19.9999 3.46108e-19)
(-2.7824e-05 19.9999 3.28324e-19)
(-2.78479e-05 19.9999 3.19619e-19)
(-2.78679e-05 19.9999 3.11693e-19)
(-2.78846e-05 19.9999 3.17959e-19)
(-2.78982e-05 19.9999 3.22018e-19)
(-2.79094e-05 19.9999 3.49115e-19)
(-2.79184e-05 19.9999 3.46621e-19)
(-2.79255e-05 19.9999 3.68309e-19)
(-2.79309e-05 19.9999 3.49395e-19)
(-2.79349e-05 19.9999 3.41181e-19)
(-2.79378e-05 19.9999 3.30871e-19)
(-2.79395e-05 19.9999 3.46402e-19)
(-2.79404e-05 19.9999 3.33842e-19)
(-2.79404e-05 19.9999 3.9561e-19)
(-2.79398e-05 19.9999 3.53229e-19)
(-2.79386e-05 19.9999 4.16946e-19)
(-2.79369e-05 19.9999 3.42831e-19)
(-2.79347e-05 19.9999 3.18684e-19)
(-2.79322e-05 19.9999 3.05624e-19)
(-2.79293e-05 19.9999 3.13199e-19)
(-2.79262e-05 19.9999 3.39405e-19)
(-2.79228e-05 19.9999 3.74333e-19)
(-2.79191e-05 19.9999 4.04488e-19)
(-2.79153e-05 19.9999 4.27009e-19)
(-2.79113e-05 19.9999 4.36176e-19)
(-2.79071e-05 19.9999 4.47122e-19)
(-2.79029e-05 19.9999 4.38209e-19)
(-2.78985e-05 19.9999 4.32722e-19)
(-2.7894e-05 19.9999 4.26525e-19)
(-2.78894e-05 19.9999 4.05656e-19)
(-2.78847e-05 19.9999 3.90767e-19)
(-2.78799e-05 19.9999 3.87356e-19)
(-2.78751e-05 19.9999 3.9376e-19)
(-2.78702e-05 19.9999 4.07508e-19)
(-2.78653e-05 19.9999 4.22617e-19)
(-2.78603e-05 19.9999 4.34047e-19)
(-2.78553e-05 19.9999 4.42456e-19)
(-2.78502e-05 19.9999 4.47527e-19)
(-2.78451e-05 19.9999 4.51309e-19)
(-2.78399e-05 19.9999 4.48233e-19)
(-2.78347e-05 19.9999 4.51994e-19)
(-2.78295e-05 19.9999 4.39558e-19)
(-2.78242e-05 19.9999 4.33646e-19)
(-2.78189e-05 19.9999 4.27338e-19)
(-2.78136e-05 19.9999 4.05199e-19)
(-2.78082e-05 19.9999 3.9057e-19)
(-2.78028e-05 19.9999 3.87712e-19)
(-2.77974e-05 19.9999 3.9453e-19)
(-2.77919e-05 19.9999 4.08046e-19)
(-2.77864e-05 19.9999 4.24259e-19)
(-2.77808e-05 19.9999 4.3748e-19)
(-2.77753e-05 19.9999 4.45336e-19)
(-2.77696e-05 19.9999 4.51584e-19)
(-2.7764e-05 19.9999 4.54044e-19)
(-2.77583e-05 19.9999 4.57525e-19)
(-2.77526e-05 19.9999 4.518e-19)
(-2.77468e-05 19.9999 4.55273e-19)
(-2.7741e-05 19.9999 4.43195e-19)
(-2.77351e-05 19.9999 4.34673e-19)
(-2.77292e-05 19.9999 4.27137e-19)
(-2.77232e-05 19.9999 4.06782e-19)
(-2.77172e-05 19.9999 3.92707e-19)
(-2.77111e-05 19.9999 3.89427e-19)
(-2.7705e-05 19.9999 3.96189e-19)
(-2.76989e-05 19.9999 4.10564e-19)
(-2.76926e-05 19.9999 4.25418e-19)
(-2.76863e-05 19.9999 4.37328e-19)
(-2.768e-05 19.9999 4.44926e-19)
(-2.76736e-05 19.9999 4.51356e-19)
(-2.76671e-05 19.9999 4.50948e-19)
(-2.76606e-05 19.9999 4.62823e-19)
(-2.7654e-05 19.9999 4.38317e-19)
(-2.76474e-05 19.9999 4.72305e-19)
(-2.76406e-05 19.9999 4.08637e-19)
(-2.76339e-05 19.9999 4.42492e-19)
(-2.7627e-05 19.9999 3.5723e-19)
(-2.76201e-05 19.9999 3.14266e-19)
(-2.76131e-05 19.9999 2.86415e-19)
(-2.76061e-05 19.9999 2.87673e-19)
(-2.75991e-05 19.9999 3.14242e-19)
(-2.7592e-05 19.9999 3.52924e-19)
(-2.75849e-05 19.9999 3.89065e-19)
(-2.75777e-05 19.9999 4.15674e-19)
(-2.75706e-05 19.9999 4.33915e-19)
(-2.75634e-05 19.9999 4.44995e-19)
(-2.75564e-05 19.9999 4.51983e-19)
(-2.75493e-05 19.9999 4.54304e-19)
(-2.75424e-05 19.9999 4.62566e-19)
(-2.75355e-05 19.9999 4.51295e-19)
(-2.75289e-05 19.9999 4.71763e-19)
(-2.75224e-05 19.9999 4.41632e-19)
(-2.75162e-05 19.9999 4.681e-19)
(-2.75103e-05 19.9999 4.30123e-19)
(-2.75048e-05 19.9999 4.15923e-19)
(-2.74998e-05 19.9999 4.04543e-19)
(-2.74953e-05 19.9999 4.07651e-19)
(-2.74915e-05 19.9999 4.09884e-19)
(-2.74885e-05 19.9999 4.19076e-19)
(-2.74864e-05 19.9999 4.24974e-19)
(-2.74852e-05 19.9999 4.2592e-19)
(-2.74852e-05 19.9999 4.20334e-19)
(-2.74864e-05 19.9999 4.20174e-19)
(-2.74893e-05 19.9999 4.21605e-19)
(-2.74931e-05 19.9999 4.34003e-19)
(-2.74995e-05 19.9999 4.3607e-19)
(-2.75062e-05 19.9999 4.4691e-19)
(-2.75163e-05 19.9999 4.56353e-19)
(-2.75402e-05 19.9999 4.48652e-19)
(-1.88521e-05 19.9997 -6.1706e-20)
(-1.8848e-05 19.9997 -8.80142e-20)
(-1.88506e-05 19.9997 -1.18531e-19)
(-1.88919e-05 19.9997 -1.5359e-19)
(-1.90187e-05 19.9997 -1.71237e-19)
(-1.92719e-05 19.9997 -1.61709e-19)
(-1.96757e-05 19.9997 -1.4351e-19)
(-2.02352e-05 19.9997 -8.01655e-20)
(-2.09431e-05 19.9997 -5.76201e-20)
(-2.17852e-05 19.9997 4.4678e-20)
(-2.27404e-05 19.9998 7.66586e-20)
(-2.37833e-05 19.9998 1.77077e-19)
(-2.48848e-05 19.9998 2.08823e-19)
(-2.60164e-05 19.9998 2.71435e-19)
(-2.71513e-05 19.9998 2.99852e-19)
(-2.8265e-05 19.9998 3.03075e-19)
(-2.9339e-05 19.9998 3.39385e-19)
(-3.03607e-05 19.9998 3.03355e-19)
(-3.13172e-05 19.9998 3.09636e-19)
(-3.22021e-05 19.9998 2.81015e-19)
(-3.30147e-05 19.9998 2.97113e-19)
(-3.37535e-05 19.9998 2.55295e-19)
(-3.442e-05 19.9999 2.63241e-19)
(-3.50176e-05 19.9999 2.39837e-19)
(-3.55506e-05 19.9999 2.62709e-19)
(-3.60236e-05 19.9999 2.29353e-19)
(-3.64414e-05 19.9999 2.40544e-19)
(-3.68091e-05 19.9999 2.27691e-19)
(-3.71315e-05 19.9999 2.51871e-19)
(-3.74133e-05 19.9999 2.34227e-19)
(-3.76589e-05 19.9999 2.49607e-19)
(-3.78724e-05 19.9999 2.55239e-19)
(-3.80577e-05 19.9999 2.83796e-19)
(-3.8218e-05 19.9999 2.81634e-19)
(-3.83563e-05 19.9999 3.18258e-19)
(-3.84753e-05 19.9999 3.00927e-19)
(-3.85776e-05 19.9999 3.03438e-19)
(-3.86653e-05 19.9999 3.09081e-19)
(-3.87402e-05 19.9999 3.07091e-19)
(-3.8804e-05 19.9999 3.30728e-19)
(-3.88583e-05 19.9999 3.24779e-19)
(-3.89042e-05 19.9999 3.49303e-19)
(-3.89429e-05 19.9999 3.2103e-19)
(-3.89753e-05 19.9999 3.1522e-19)
(-3.90023e-05 19.9999 3.09527e-19)
(-3.90247e-05 19.9999 3.17772e-19)
(-3.9043e-05 19.9999 3.22834e-19)
(-3.90579e-05 19.9999 3.51531e-19)
(-3.90697e-05 19.9999 3.484e-19)
(-3.9079e-05 19.9999 3.75321e-19)
(-3.9086e-05 19.9999 3.46746e-19)
(-3.90911e-05 19.9999 3.42045e-19)
(-3.90945e-05 19.9999 3.34879e-19)
(-3.90965e-05 19.9999 3.52051e-19)
(-3.90973e-05 19.9999 3.42215e-19)
(-3.9097e-05 19.9999 4.04576e-19)
(-3.90958e-05 19.9999 3.63673e-19)
(-3.90938e-05 19.9999 4.31228e-19)
(-3.90911e-05 19.9999 3.49444e-19)
(-3.90878e-05 19.9999 3.28856e-19)
(-3.9084e-05 19.9999 3.18217e-19)
(-3.90797e-05 19.9999 3.27049e-19)
(-3.90751e-05 19.9999 3.53011e-19)
(-3.90702e-05 19.9999 3.87771e-19)
(-3.90649e-05 19.9999 4.17688e-19)
(-3.90594e-05 19.9999 4.38417e-19)
(-3.90537e-05 19.9999 4.49594e-19)
(-3.90478e-05 19.9999 4.57105e-19)
(-3.90417e-05 19.9999 4.49058e-19)
(-3.90354e-05 19.9999 4.49285e-19)
(-3.90291e-05 19.9999 4.26574e-19)
(-3.90226e-05 19.9999 4.1548e-19)
(-3.9016e-05 19.9999 4.07093e-19)
(-3.90093e-05 19.9999 4.06085e-19)
(-3.90025e-05 19.9999 4.10618e-19)
(-3.89957e-05 19.9999 4.20871e-19)
(-3.89888e-05 19.9999 4.33015e-19)
(-3.89818e-05 19.9999 4.41808e-19)
(-3.89748e-05 19.9999 4.4852e-19)
(-3.89677e-05 19.9999 4.53143e-19)
(-3.89606e-05 19.9999 4.54819e-19)
(-3.89534e-05 19.9999 4.53946e-19)
(-3.89462e-05 19.9999 4.55009e-19)
(-3.8939e-05 19.9999 4.44067e-19)
(-3.89317e-05 19.9999 4.44671e-19)
(-3.89243e-05 19.9999 4.22557e-19)
(-3.8917e-05 19.9999 4.11245e-19)
(-3.89096e-05 19.9999 4.04053e-19)
(-3.89021e-05 19.9999 4.03863e-19)
(-3.88946e-05 19.9999 4.09077e-19)
(-3.88871e-05 19.9999 4.19609e-19)
(-3.88795e-05 19.9999 4.32439e-19)
(-3.8872e-05 19.9999 4.43362e-19)
(-3.88643e-05 19.9999 4.49651e-19)
(-3.88566e-05 19.9999 4.55225e-19)
(-3.88489e-05 19.9999 4.5765e-19)
(-3.88412e-05 19.9999 4.60407e-19)
(-3.88334e-05 19.9999 4.5677e-19)
(-3.88256e-05 19.9999 4.57821e-19)
(-3.88177e-05 19.9999 4.47886e-19)
(-3.88097e-05 19.9999 4.45829e-19)
(-3.88018e-05 19.9999 4.2268e-19)
(-3.87937e-05 19.9999 4.12933e-19)
(-3.87857e-05 19.9999 4.06739e-19)
(-3.87775e-05 19.9999 4.05862e-19)
(-3.87693e-05 19.9999 4.11041e-19)
(-3.87611e-05 19.9999 4.22366e-19)
(-3.87528e-05 19.9999 4.33858e-19)
(-3.87444e-05 19.9999 4.43779e-19)
(-3.8736e-05 19.9999 4.50108e-19)
(-3.87275e-05 19.9999 4.55625e-19)
(-3.8719e-05 19.9999 4.55124e-19)
(-3.87104e-05 19.9999 4.66364e-19)
(-3.87017e-05 19.9999 4.42613e-19)
(-3.8693e-05 19.9999 4.74352e-19)
(-3.86842e-05 19.9999 4.11976e-19)
(-3.86753e-05 19.9999 4.4272e-19)
(-3.86664e-05 19.9999 3.56802e-19)
(-3.86574e-05 19.9999 3.11969e-19)
(-3.86483e-05 19.9999 2.82809e-19)
(-3.86392e-05 19.9999 2.84071e-19)
(-3.863e-05 19.9999 3.1089e-19)
(-3.86208e-05 19.9999 3.50965e-19)
(-3.86116e-05 19.9999 3.88682e-19)
(-3.86024e-05 19.9999 4.16413e-19)
(-3.85931e-05 19.9999 4.35945e-19)
(-3.85838e-05 19.9999 4.47867e-19)
(-3.85746e-05 19.9999 4.54763e-19)
(-3.85654e-05 19.9999 4.57953e-19)
(-3.85563e-05 19.9999 4.64882e-19)
(-3.85474e-05 19.9999 4.56753e-19)
(-3.85385e-05 19.9999 4.70818e-19)
(-3.85299e-05 19.9999 4.4995e-19)
(-3.85215e-05 19.9999 4.63071e-19)
(-3.85134e-05 19.9999 4.40366e-19)
(-3.85056e-05 19.9999 4.25353e-19)
(-3.84983e-05 19.9999 4.12747e-19)
(-3.84916e-05 19.9999 4.13155e-19)
(-3.84854e-05 19.9999 4.13411e-19)
(-3.848e-05 19.9999 4.29885e-19)
(-3.84754e-05 19.9999 4.19697e-19)
(-3.84716e-05 19.9999 4.26679e-19)
(-3.8469e-05 19.9999 4.29771e-19)
(-3.84672e-05 19.9999 4.33935e-19)
(-3.84673e-05 19.9999 4.36468e-19)
(-3.84676e-05 19.9999 4.46469e-19)
(-3.84705e-05 19.9999 4.48319e-19)
(-3.8473e-05 19.9999 4.53537e-19)
(-3.84771e-05 19.9999 4.62184e-19)
(-3.8498e-05 19.9999 4.57668e-19)
(-3.85235e-05 19.9999 4.65415e-19)
(-2.42905e-05 19.9997 -6.92048e-20)
(-2.42929e-05 19.9997 -1.00359e-19)
(-2.43116e-05 19.9997 -1.33854e-19)
(-2.43819e-05 19.9997 -1.7758e-19)
(-2.45549e-05 19.9997 -1.92025e-19)
(-2.48803e-05 19.9997 -1.92105e-19)
(-2.53925e-05 19.9997 -1.54932e-19)
(-2.61033e-05 19.9997 -1.09695e-19)
(-2.70071e-05 19.9997 -5.23599e-20)
(-2.80862e-05 19.9997 1.01796e-20)
(-2.93133e-05 19.9998 7.79492e-20)
(-3.0654e-05 19.9998 1.44197e-19)
(-3.20704e-05 19.9998 2.07453e-19)
(-3.35248e-05 19.9998 2.50154e-19)
(-3.49824e-05 19.9998 2.88508e-19)
(-3.64122e-05 19.9998 2.93279e-19)
(-3.77901e-05 19.9998 3.01768e-19)
(-3.90998e-05 19.9998 2.78548e-19)
(-4.03259e-05 19.9998 2.63081e-19)
(-4.14598e-05 19.9998 2.29564e-19)
(-4.24999e-05 19.9998 2.19117e-19)
(-4.34454e-05 19.9998 1.94298e-19)
(-4.4298e-05 19.9999 1.88008e-19)
(-4.5062e-05 19.9999 1.69088e-19)
(-4.5743e-05 19.9999 1.70618e-19)
(-4.6347e-05 19.9999 1.59315e-19)
(-4.68803e-05 19.9999 1.57925e-19)
(-4.73494e-05 19.9999 1.52342e-19)
(-4.77606e-05 19.9999 1.57895e-19)
(-4.81198e-05 19.9999 1.62162e-19)
(-4.84327e-05 19.9999 1.73802e-19)
(-4.87047e-05 19.9999 1.80472e-19)
(-4.89404e-05 19.9999 2.01973e-19)
(-4.91441e-05 19.9999 2.09011e-19)
(-4.93198e-05 19.9999 2.30426e-19)
(-4.9471e-05 19.9999 2.3511e-19)
(-4.96008e-05 19.9999 2.37204e-19)
(-4.9712e-05 19.9999 2.4074e-19)
(-4.98068e-05 19.9999 2.42009e-19)
(-4.98876e-05 19.9999 2.55574e-19)
(-4.99561e-05 19.9999 2.57923e-19)
(-5.0014e-05 19.9999 2.66539e-19)
(-5.00628e-05 19.9999 2.59981e-19)
(-5.01036e-05 19.9999 2.50968e-19)
(-5.01375e-05 19.9999 2.44286e-19)
(-5.01655e-05 19.9999 2.47532e-19)
(-5.01883e-05 19.9999 2.54793e-19)
(-5.02068e-05 19.9999 2.74717e-19)
(-5.02214e-05 19.9999 2.81673e-19)
(-5.02328e-05 19.9999 2.93569e-19)
(-5.02414e-05 19.9999 2.8906e-19)
(-5.02475e-05 19.9999 2.83446e-19)
(-5.02515e-05 19.9999 2.77075e-19)
(-5.02537e-05 19.9999 2.87334e-19)
(-5.02544e-05 19.9999 2.88574e-19)
(-5.02537e-05 19.9999 3.27604e-19)
(-5.02519e-05 19.9999 3.16735e-19)
(-5.0249e-05 19.9999 3.47512e-19)
(-5.02454e-05 19.9999 3.21018e-19)
(-5.02409e-05 19.9999 3.02423e-19)
(-5.02359e-05 19.9999 2.90073e-19)
(-5.02302e-05 19.9999 2.9331e-19)
(-5.02241e-05 19.9999 3.12087e-19)
(-5.02176e-05 19.9999 3.3744e-19)
(-5.02108e-05 19.9999 3.60898e-19)
(-5.02036e-05 19.9999 3.76193e-19)
(-5.01961e-05 19.9999 3.87346e-19)
(-5.01884e-05 19.9999 3.87009e-19)
(-5.01805e-05 19.9999 3.88323e-19)
(-5.01724e-05 19.9999 3.76797e-19)
(-5.01642e-05 19.9999 3.71229e-19)
(-5.01558e-05 19.9999 3.60876e-19)
(-5.01473e-05 19.9999 3.53165e-19)
(-5.01387e-05 19.9999 3.49703e-19)
(-5.013e-05 19.9999 3.51226e-19)
(-5.01212e-05 19.9999 3.57123e-19)
(-5.01123e-05 19.9999 3.64882e-19)
(-5.01034e-05 19.9999 3.7169e-19)
(-5.00944e-05 19.9999 3.76373e-19)
(-5.00853e-05 19.9999 3.79816e-19)
(-5.00761e-05 19.9999 3.8043e-19)
(-5.0067e-05 19.9999 3.82567e-19)
(-5.00577e-05 19.9999 3.77393e-19)
(-5.00485e-05 19.9999 3.7737e-19)
(-5.00391e-05 19.9999 3.66149e-19)
(-5.00298e-05 19.9999 3.61842e-19)
(-5.00204e-05 19.9999 3.53195e-19)
(-5.00109e-05 19.9999 3.46705e-19)
(-5.00014e-05 19.9999 3.44733e-19)
(-4.99919e-05 19.9999 3.47594e-19)
(-4.99823e-05 19.9999 3.54368e-19)
(-4.99727e-05 19.9999 3.62542e-19)
(-4.99631e-05 19.9999 3.70158e-19)
(-4.99534e-05 19.9999 3.76141e-19)
(-4.99437e-05 19.9999 3.8012e-19)
(-4.99339e-05 19.9999 3.83078e-19)
(-4.99241e-05 19.9999 3.83054e-19)
(-4.99143e-05 19.9999 3.85031e-19)
(-4.99044e-05 19.9999 3.79343e-19)
(-4.98944e-05 19.9999 3.79553e-19)
(-4.98844e-05 19.9999 3.68161e-19)
(-4.98744e-05 19.9999 3.63532e-19)
(-4.98643e-05 19.9999 3.55123e-19)
(-4.98542e-05 19.9999 3.48969e-19)
(-4.9844e-05 19.9999 3.46671e-19)
(-4.98337e-05 19.9999 3.49168e-19)
(-4.98234e-05 19.9999 3.55653e-19)
(-4.9813e-05 19.9999 3.63664e-19)
(-4.98026e-05 19.9999 3.71102e-19)
(-4.97921e-05 19.9999 3.768e-19)
(-4.97816e-05 19.9999 3.82e-19)
(-4.97709e-05 19.9999 3.8166e-19)
(-4.97602e-05 19.9999 3.89076e-19)
(-4.97495e-05 19.9999 3.72137e-19)
(-4.97387e-05 19.9999 3.91706e-19)
(-4.97278e-05 19.9999 3.46739e-19)
(-4.97168e-05 19.9999 3.57777e-19)
(-4.97058e-05 19.9999 2.98413e-19)
(-4.96947e-05 19.9999 2.52609e-19)
(-4.96836e-05 19.9999 2.23012e-19)
(-4.96723e-05 19.9999 2.20726e-19)
(-4.96611e-05 19.9999 2.43942e-19)
(-4.96498e-05 19.9999 2.79579e-19)
(-4.96384e-05 19.9999 3.14449e-19)
(-4.96271e-05 19.9999 3.41971e-19)
(-4.96157e-05 19.9999 3.60916e-19)
(-4.96043e-05 19.9999 3.72519e-19)
(-4.9593e-05 19.9999 3.80201e-19)
(-4.95816e-05 19.9999 3.83279e-19)
(-4.95704e-05 19.9999 3.87762e-19)
(-4.95593e-05 19.9999 3.83845e-19)
(-4.95483e-05 19.9999 3.92033e-19)
(-4.95374e-05 19.9999 3.79385e-19)
(-4.95268e-05 19.9999 3.83294e-19)
(-4.95165e-05 19.9999 3.68661e-19)
(-4.95065e-05 19.9999 3.54457e-19)
(-4.94969e-05 19.9999 3.46514e-19)
(-4.94878e-05 19.9999 3.41491e-19)
(-4.94793e-05 19.9999 3.49466e-19)
(-4.94714e-05 19.9999 3.53139e-19)
(-4.94644e-05 19.9999 3.61245e-19)
(-4.9458e-05 19.9999 3.6594e-19)
(-4.94528e-05 19.9999 3.67543e-19)
(-4.94481e-05 19.9999 3.71237e-19)
(-4.94453e-05 19.9999 3.72465e-19)
(-4.94422e-05 19.9999 3.7754e-19)
(-4.94415e-05 19.9999 3.79804e-19)
(-4.94405e-05 19.9999 3.82305e-19)
(-4.94413e-05 19.9999 3.88303e-19)
(-4.94575e-05 19.9999 3.85631e-19)
(-4.94817e-05 19.9999 3.89616e-19)
(-4.95011e-05 19.9999 3.86689e-19)
(-2.97283e-05 19.9997 -7.29823e-20)
(-2.97378e-05 19.9997 -1.11945e-19)
(-2.97737e-05 19.9997 -1.48179e-19)
(-2.98748e-05 19.9997 -2.0514e-19)
(-3.00969e-05 19.9997 -2.14885e-19)
(-3.04977e-05 19.9997 -2.2651e-19)
(-3.11213e-05 19.9997 -1.67302e-19)
(-3.19867e-05 19.9997 -1.41256e-19)
(-3.30897e-05 19.9997 -4.98343e-20)
(-3.44095e-05 19.9998 -2.63625e-20)
(-3.59118e-05 19.9998 7.7905e-20)
(-3.75536e-05 19.9998 1.11359e-19)
(-3.92875e-05 19.9998 2.07814e-19)
(-4.10665e-05 19.9998 2.29739e-19)
(-4.28478e-05 19.9998 2.80573e-19)
(-4.4594e-05 19.9998 2.83151e-19)
(-4.62752e-05 19.9998 2.67859e-19)
(-4.78716e-05 19.9998 2.52653e-19)
(-4.93654e-05 19.9998 2.17582e-19)
(-5.07462e-05 19.9998 1.75693e-19)
(-5.20116e-05 19.9998 1.43402e-19)
(-5.31614e-05 19.9998 1.31653e-19)
(-5.41976e-05 19.9999 1.13753e-19)
(-5.51258e-05 19.9999 9.64071e-20)
(-5.59527e-05 19.9999 8.09649e-20)
(-5.66858e-05 19.9999 8.82553e-20)
(-5.73328e-05 19.9999 7.56777e-20)
(-5.79017e-05 19.9999 7.59246e-20)
(-5.84001e-05 19.9999 6.46607e-20)
(-5.88354e-05 19.9999 8.97701e-20)
(-5.92145e-05 19.9999 9.83023e-20)
(-5.95438e-05 19.9999 1.04398e-19)
(-5.9829e-05 19.9999 1.21137e-19)
(-6.00754e-05 19.9999 1.34669e-19)
(-6.02879e-05 19.9999 1.44733e-19)
(-6.04707e-05 19.9999 1.68792e-19)
(-6.06275e-05 19.9999 1.70122e-19)
(-6.07616e-05 19.9999 1.72528e-19)
(-6.0876e-05 19.9999 1.76088e-19)
(-6.09734e-05 19.9999 1.8217e-19)
(-6.10559e-05 19.9999 1.90566e-19)
(-6.11256e-05 19.9999 1.85775e-19)
(-6.11841e-05 19.9999 1.98817e-19)
(-6.12331e-05 19.9999 1.85834e-19)
(-6.12737e-05 19.9999 1.77501e-19)
(-6.13072e-05 19.9999 1.76483e-19)
(-6.13345e-05 19.9999 1.85216e-19)
(-6.13564e-05 19.9999 1.99118e-19)
(-6.13738e-05 19.9999 2.14088e-19)
(-6.13872e-05 19.9999 2.13611e-19)
(-6.13972e-05 19.9999 2.31116e-19)
(-6.14043e-05 19.9999 2.2382e-19)
(-6.14089e-05 19.9999 2.18088e-19)
(-6.14113e-05 19.9999 2.2074e-19)
(-6.14118e-05 19.9999 2.35135e-19)
(-6.14107e-05 19.9999 2.49491e-19)
(-6.14082e-05 19.9999 2.71395e-19)
(-6.14045e-05 19.9999 2.67062e-19)
(-6.13998e-05 19.9999 2.89157e-19)
(-6.13942e-05 19.9999 2.78822e-19)
(-6.13879e-05 19.9999 2.68388e-19)
(-6.13809e-05 19.9999 2.67043e-19)
(-6.13733e-05 19.9999 2.77586e-19)
(-6.13652e-05 19.9999 2.91794e-19)
(-6.13567e-05 19.9999 3.06724e-19)
(-6.13478e-05 19.9999 3.15874e-19)
(-6.13386e-05 19.9999 3.25092e-19)