/*--------------------------------*- C++ -*----------------------------------*\
| =========                 |                                                 |
| \\      /  F ield         | OpenFOAM: The Open Source CFD Toolbox           |
|  \\    /   O peration     | Version:  2512                                  |
|   \\  /    A nd           | Website:  www.openfoam.com                      |
|    \\/     M anipulation  |                                                 |
\*---------------------------------------------------------------------------*/
FoamFile
{
    version     2.0;
    format      ascii;
    arch        "LSB;label=32;scalar=64";
    class       volScalarField;
    location    "0.1";
    object      p;
}
// * * * * * * * * * * * * * * * * * * * * * * * * * * * * * * * * * * * * * //

dimensions      [1 -1 -2 0 0 0 0];

internalField   nonuniform List<scalar> 
8333
(
-208.732
-208.753
-208.759
-208.758
-208.774
-208.792
-208.804
-208.82
-208.842
-208.865
-208.888
-208.914
-208.941
-208.97
-209.001
-209.034
-209.068
-212.971
-212.991
-212.997
-212.997
-213.013
-213.03
-213.042
-213.058
-213.08
-213.103
-213.126
-213.152
-213.179
-213.209
-213.24
-213.272
-213.306
-213.342
-213.379
-213.417
-213.458
-213.499
-213.542
-213.587
-213.633
-213.68
-213.729
-213.78
-213.832
-213.885
-213.94
-213.996
-214.054
-214.113
-214.173
-214.235
-214.299
-214.364
-214.43
-214.498
-214.568
-214.639
-214.711
-214.785
-214.86
-214.937
-215.015
-215.094
-215.175
-215.258
-215.342
-215.427
-215.514
-215.602
-215.692
-215.783
-215.876
-215.97
-216.066
-216.163
-216.262
-216.362
-216.463
-216.566
-216.67
-216.776
-216.884
-216.992
-217.103
-217.214
-217.328
-217.442
-217.558
-217.676
-217.795
-217.915
-218.037
-218.161
-218.285
-218.412
-218.539
-218.669
-218.799
-218.931
-219.065
-219.2
-219.337
-219.475
-219.614
-219.755
-219.897
-220.041
-220.186
-220.333
-220.481
-220.631
-220.782
-220.934
-221.088
-221.244
-221.401
-221.559
-221.719
-221.88
-222.043
-222.207
-222.373
-222.54
-222.709
-222.879
-223.05
-223.223
-223.398
-223.574
-223.751
-223.93
-224.11
-224.292
-224.475
-224.66
-224.846
-225.033
-225.222
-225.413
-225.605
-225.798
-225.993
-226.189
-226.387
-226.586
-226.787
-226.989
-227.192
-227.398
-227.604
-227.812
-228.021
-228.232
-228.444
-228.658
-228.873
-229.09
-229.308
-229.528
-229.749
-229.971
-230.195
-230.42
-230.647
-217.209
-217.229
-217.235
-217.235
-217.251
-217.268
-217.28
-217.296
-217.318
-217.341
-217.364
-217.39
-217.418
-217.447
-217.478
-217.51
-217.544
-217.58
-217.617
-217.656
-217.696
-217.737
-217.78
-217.825
-217.871
-217.918
-217.967
-218.018
-218.07
-218.123
-218.178
-218.234
-218.292
-218.351
-218.412
-218.474
-218.537
-218.602
-218.669
-218.737
-218.806
-218.877
-218.949
-219.023
-219.098
-219.175
-219.253
-219.332
-219.413
-219.496
-219.58
-219.665
-219.752
-219.841
-219.93
-220.022
-220.114
-220.209
-220.304
-220.401
-220.5
-220.6
-220.701
-220.804
-220.909
-221.015
-221.122
-221.231
-221.341
-221.453
-221.566
-221.68
-221.796
-221.914
-222.033
-222.153
-222.275
-222.399
-222.524
-222.65
-222.778
-222.907
-223.037
-223.17
-223.303
-223.438
-223.575
-223.713
-223.852
-223.993
-224.135
-224.279
-224.424
-224.571
-224.719
-224.869
-225.02
-225.173
-225.327
-225.482
-225.639
-225.797
-225.957
-226.119
-226.281
-226.446
-226.611
-226.778
-226.947
-227.117
-227.289
-227.462
-227.636
-227.812
-227.989
-228.168
-228.348
-228.53
-228.713
-228.898
-229.084
-229.272
-229.461
-229.651
-229.843
-230.036
-230.231
-230.427
-230.625
-230.824
-231.025
-231.227
-231.431
-231.636
-231.842
-232.05
-232.259
-232.47
-232.683
-232.896
-233.112
-233.328
-233.546
-233.766
-233.987
-234.209
-234.433
-234.658
-234.885
-221.447
-221.467
-221.473
-221.473
-221.488
-221.506
-221.518
-221.534
-221.556
-221.579
-221.603
-221.628
-221.656
-221.685
-221.716
-221.748
-221.782
-221.818
-221.855
-221.894
-221.934
-221.975
-222.018
-222.063
-222.109
-222.157
-222.205
-222.256
-222.308
-222.361
-222.416
-222.472
-222.53
-222.589
-222.65
-222.712
-222.775
-222.84
-222.907
-222.975
-223.044
-223.115
-223.187
-223.261
-223.336
-223.413
-223.491
-223.571
-223.652
-223.734
-223.818
-223.903
-223.99
-224.079
-224.168
-224.26
-224.352
-224.447
-224.542
-224.639
-224.738
-224.838
-224.939
-225.042
-225.147
-225.253
-225.36
-225.469
-225.579
-225.691
-225.804
-225.918
-226.035
-226.152
-226.271
-226.392
-226.513
-226.637
-226.762
-226.888
-227.016
-227.145
-227.276
-227.408
-227.541
-227.676
-227.813
-227.951
-228.09
-228.231
-228.373
-228.517
-228.663
-228.809
-228.957
-229.107
-229.258
-229.411
-229.565
-229.72
-229.877
-230.036
-230.195
-230.357
-230.52
-230.684
-230.849
-231.017
-231.185
-231.355
-231.527
-231.7
-231.874
-232.05
-232.227
-232.406
-232.586
-232.768
-232.951
-233.136
-233.322
-233.51
-233.699
-233.889
-234.081
-234.274
-234.469
-234.666
-234.863
-235.062
-235.263
-235.465
-235.669
-235.874
-236.08
-236.288
-236.498
-236.708
-236.921
-237.135
-237.35
-237.566
-237.784
-238.004
-238.225
-238.447
-238.671
-238.896
-239.123
-239.351
-225.684
-225.705
-225.711
-225.71
-225.726
-225.744
-225.756
-225.772
-225.794
-225.817
-225.841
-225.866
-225.894
-225.923
-225.954
-225.986
-226.02
-226.056
-226.093
-226.132
-226.172
-226.214
-226.257
-226.301
-226.347
-226.395
-226.444
-226.494
-226.546
-226.599
-226.654
-226.71
-226.768
-226.827
-226.888
-226.95
-227.013
-227.078
-227.145
-227.213
-227.282
-227.353
-227.425
-227.499
-227.574
-227.651
-227.729
-227.809
-227.89
-227.972
-228.056
-228.142
-228.228
-228.317
-228.407
-228.498
-228.591
-228.685
-228.78
-228.878
-228.976
-229.076
-229.178
-229.281
-229.385
-229.491
-229.598
-229.707
-229.817
-229.929
-230.042
-230.157
-230.273
-230.39
-230.509
-230.63
-230.752
-230.875
-231
-231.126
-231.254
-231.383
-231.514
-231.646
-231.779
-231.915
-232.051
-232.189
-232.328
-232.469
-232.612
-232.755
-232.901
-233.047
-233.196
-233.345
-233.496
-233.649
-233.803
-233.958
-234.115
-234.274
-234.434
-234.595
-234.758
-234.922
-235.088
-235.255
-235.423
-235.593
-235.765
-235.938
-236.112
-236.288
-236.466
-236.644
-236.825
-237.006
-237.19
-237.374
-237.56
-237.748
-237.937
-238.127
-238.319
-238.513
-238.707
-238.904
-239.101
-239.301
-239.501
-239.703
-239.907
-240.112
-240.318
-240.526
-240.736
-240.947
-241.159
-241.373
-241.588
-241.805
-242.023
-242.242
-242.463
-242.686
-242.909
-243.135
-243.361
-243.589
-243.819
-229.922
-229.943
-229.948
-229.948
-229.964
-229.982
-229.994
-230.01
-230.032
-230.055
-230.078
-230.104
-230.132
-230.161
-230.192
-230.224
-230.258
-230.294
-230.331
-230.37
-230.41
-230.452
-230.495
-230.539
-230.585
-230.633
-230.682
-230.732
-230.784
-230.837
-230.892
-230.948
-231.006
-231.065
-231.126
-231.188
-231.252
-231.317
-231.383
-231.451
-231.52
-231.591
-231.663
-231.737
-231.812
-231.889
-231.967
-232.047
-232.128
-232.21
-232.294
-232.38
-232.467
-232.555
-232.645
-232.736
-232.829
-232.923
-233.019
-233.116
-233.214
-233.314
-233.416
-233.519
-233.623
-233.729
-233.836
-233.945
-234.055
-234.167
-234.28
-234.395
-234.511
-234.628
-234.747
-234.868
-234.99
-235.113
-235.238
-235.364
-235.492
-235.621
-235.752
-235.884
-236.018
-236.153
-236.289
-236.427
-236.567
-236.707
-236.85
-236.994
-237.139
-237.286
-237.434
-237.583
-237.734
-237.887
-238.041
-238.197
-238.353
-238.512
-238.672
-238.833
-238.996
-239.16
-239.326
-239.493
-239.661
-239.832
-240.003
-240.176
-240.35
-240.526
-240.704
-240.882
-241.063
-241.244
-241.428
-241.612
-241.798
-241.986
-242.175
-242.365
-242.557
-242.751
-242.946
-243.142
-243.34
-243.539
-243.739
-243.942
-244.145
-244.35
-244.557
-244.765
-244.974
-245.185
-245.397
-245.611
-245.826
-246.043
-246.261
-246.48
-246.701
-246.924
-247.148
-247.373
-247.599
-247.827
-248.057
-248.288
-234.159
-234.18
-234.186
-234.186
-234.201
-234.219
-234.232
-234.248
-234.27
-234.293
-234.316
-234.342
-234.37
-234.399
-234.43
-234.462
-234.497
-234.532
-234.569
-234.608
-234.648
-234.69
-234.733
-234.777
-234.823
-234.871
-234.92
-234.97
-235.022
-235.076
-235.13
-235.187
-235.244
-235.303
-235.364
-235.426
-235.49
-235.555
-235.621
-235.689
-235.758
-235.829
-235.902
-235.975
-236.051
-236.127
-236.205
-236.285
-236.366
-236.448
-236.532
-236.618
-236.705
-236.793
-236.883
-236.974
-237.067
-237.161
-237.257
-237.354
-237.452
-237.552
-237.654
-237.757
-237.861
-237.967
-238.074
-238.183
-238.293
-238.405
-238.518
-238.633
-238.749
-238.866
-238.985
-239.106
-239.228
-239.351
-239.476
-239.602
-239.73
-239.859
-239.99
-240.122
-240.256
-240.391
-240.527
-240.665
-240.805
-240.946
-241.088
-241.232
-241.377
-241.524
-241.672
-241.822
-241.973
-242.125
-242.279
-242.435
-242.592
-242.75
-242.91
-243.071
-243.234
-243.398
-243.564
-243.731
-243.9
-244.07
-244.241
-244.414
-244.589
-244.764
-244.942
-245.121
-245.301
-245.483
-245.666
-245.85
-246.036
-246.224
-246.413
-246.604
-246.795
-246.989
-247.184
-247.38
-247.578
-247.777
-247.978
-248.18
-248.383
-248.588
-248.795
-249.003
-249.212
-249.423
-249.635
-249.849
-250.064
-250.281
-250.499
-250.718
-250.939
-251.162
-251.386
-251.611
-251.838
-252.066
-252.295
-252.526
-238.397
-238.417
-238.423
-238.423
-238.439
-238.457
-238.469
-238.486
-238.507
-238.53
-238.554
-238.58
-238.608
-238.637
-238.668
-238.7
-238.735
-238.77
-238.807
-238.846
-238.886
-238.928
-238.971
-239.016
-239.062
-239.109
-239.158
-239.208
-239.26
-239.314
-239.368
-239.425
-239.482
-239.542
-239.602
-239.664
-239.728
-239.793
-239.859
-239.927
-239.997
-240.067
-240.14
-240.213
-240.289
-240.365
-240.443
-240.523
-240.604
-240.687
-240.771
-240.856
-240.943
-241.031
-241.121
-241.212
-241.305
-241.399
-241.495
-241.592
-241.69
-241.79
-241.892
-241.995
-242.099
-242.205
-242.312
-242.421
-242.531
-242.643
-242.756
-242.871
-242.987
-243.105
-243.224
-243.344
-243.466
-243.589
-243.714
-243.84
-243.968
-244.097
-244.228
-244.36
-244.494
-244.629
-244.765
-244.903
-245.043
-245.184
-245.326
-245.47
-245.615
-245.762
-245.91
-246.06
-246.211
-246.363
-246.517
-246.673
-246.83
-246.988
-247.148
-247.309
-247.472
-247.636
-247.802
-247.969
-248.138
-248.308
-248.479
-248.652
-248.827
-249.003
-249.18
-249.359
-249.539
-249.721
-249.904
-250.089
-250.275
-250.462
-250.651
-250.842
-251.034
-251.227
-251.422
-251.618
-251.816
-252.015
-252.216
-252.418
-252.621
-252.826
-253.033
-253.241
-253.45
-253.661
-253.873
-254.087
-254.302
-254.519
-254.737
-254.957
-255.178
-255.4
-255.624
-255.849
-256.076
-256.304
-256.534
-256.765
-256.997
-242.634
-242.654
-242.66
-242.66
-242.676
-242.694
-242.707
-242.723
-242.745
-242.768
-242.792
-242.818
-242.846
-242.875
-242.906
-242.939
-242.973
-243.008
-243.045
-243.084
-243.124
-243.166
-243.209
-243.254
-243.3
-243.347
-243.396
-243.447
-243.498
-243.552
-243.607
-243.663
-243.721
-243.78
-243.84
-243.902
-243.966
-244.031
-244.097
-244.165
-244.235
-244.306
-244.378
-244.452
-244.527
-244.603
-244.682
-244.761
-244.842
-244.925
-245.009
-245.094
-245.181
-245.269
-245.359
-245.45
-245.543
-245.637
-245.733
-245.83
-245.929
-246.029
-246.13
-246.233
-246.337
-246.443
-246.551
-246.659
-246.77
-246.881
-246.994
-247.109
-247.225
-247.343
-247.462
-247.582
-247.704
-247.827
-247.952
-248.079
-248.206
-248.336
-248.466
-248.598
-248.732
-248.867
-249.003
-249.141
-249.281
-249.422
-249.564
-249.708
-249.853
-250
-250.148
-250.298
-250.449
-250.601
-250.755
-250.911
-251.068
-251.226
-251.386
-251.547
-251.71
-251.874
-252.04
-252.207
-252.376
-252.546
-252.717
-252.89
-253.065
-253.241
-253.418
-253.597
-253.777
-253.959
-254.142
-254.327
-254.513
-254.7
-254.889
-255.08
-255.272
-255.465
-255.66
-255.856
-256.054
-256.253
-256.454
-256.656
-256.86
-257.065
-257.271
-257.479
-257.688
-257.899
-258.112
-258.325
-258.54
-258.757
-258.975
-259.195
-259.416
-259.638
-259.862
-260.087
-260.314
-260.542
-260.772
-261.003
-261.236
-261.47
-246.871
-246.891
-246.897
-246.897
-246.913
-246.931
-246.944
-246.961
-246.983
-247.006
-247.03
-247.056
-247.083
-247.113
-247.144
-247.177
-247.211
-247.246
-247.284
-247.322
-247.362
-247.404
-247.447
-247.492
-247.538
-247.585
-247.634
-247.685
-247.737
-247.79
-247.845
-247.901
-247.959
-248.018
-248.078
-248.14
-248.204
-248.269
-248.335
-248.403
-248.473
-248.544
-248.616
-248.69
-248.765
-248.842
-248.92
-248.999
-249.08
-249.163
-249.247
-249.332
-249.419
-249.507
-249.597
-249.688
-249.781
-249.875
-249.971
-250.068
-250.167
-250.267
-250.368
-250.471
-250.576
-250.681
-250.789
-250.897
-251.008
-251.119
-251.233
-251.347
-251.463
-251.581
-251.7
-251.82
-251.942
-252.066
-252.19
-252.317
-252.444
-252.574
-252.704
-252.836
-252.97
-253.105
-253.242
-253.38
-253.519
-253.66
-253.802
-253.946
-254.091
-254.238
-254.386
-254.536
-254.687
-254.84
-254.994
-255.149
-255.306
-255.464
-255.624
-255.785
-255.948
-256.112
-256.278
-256.445
-256.614
-256.784
-256.955
-257.128
-257.303
-257.479
-257.656
-257.835
-258.015
-258.197
-258.38
-258.565
-258.751
-258.938
-259.127
-259.318
-259.51
-259.703
-259.898
-260.094
-260.292
-260.491
-260.692
-260.894
-261.098
-261.303
-261.509
-261.717
-261.926
-262.137
-262.35
-262.563
-262.779
-262.995
-263.213
-263.433
-263.654
-263.876
-264.1
-264.326
-264.552
-264.78
-265.01
-265.241
-265.474
-265.708
-251.107
-251.128
-251.134
-251.134
-251.151
-251.169
-251.181
-251.198
-251.22
-251.244
-251.268
-251.293
-251.321
-251.351
-251.382
-251.415
-251.449
-251.484
-251.522
-251.56
-251.6
-251.642
-251.685
-251.73
-251.776
-251.823
-251.872
-251.923
-251.975
-252.028
-252.083
-252.139
-252.197
-252.256
-252.317
-252.379
-252.442
-252.507
-252.574
-252.642
-252.711
-252.782
-252.854
-252.928
-253.003
-253.08
-253.158
-253.237
-253.318
-253.401
-253.485
-253.57
-253.657
-253.745
-253.835
-253.927
-254.019
-254.113
-254.209
-254.306
-254.405
-254.505
-254.606
-254.709
-254.814
-254.919
-255.027
-255.136
-255.246
-255.357
-255.471
-255.585
-255.701
-255.819
-255.938
-256.058
-256.18
-256.304
-256.428
-256.555
-256.683
-256.812
-256.942
-257.075
-257.208
-257.343
-257.48
-257.618
-257.757
-257.898
-258.04
-258.184
-258.329
-258.476
-258.624
-258.774
-258.925
-259.078
-259.232
-259.387
-259.544
-259.702
-259.862
-260.024
-260.186
-260.351
-260.516
-260.683
-260.852
-261.022
-261.194
-261.367
-261.541
-261.717
-261.894
-262.073
-262.253
-262.435
-262.618
-262.803
-262.989
-263.177
-263.366
-263.556
-263.748
-263.941
-264.136
-264.332
-264.53
-264.729
-264.93
-265.132
-265.336
-265.541
-265.747
-265.955
-266.165
-266.375
-266.588
-266.802
-267.017
-267.233
-267.452
-267.671
-267.892
-268.115
-268.338
-268.564
-268.79
-269.019
-269.248
-269.48
-269.712
-269.946
-270.182
-255.344
-255.365
-255.371
-255.371
-255.388
-255.406
-255.419
-255.436
-255.458
-255.481
-255.505
-255.531
-255.559
-255.589
-255.62
-255.653
-255.687
-255.722
-255.76
-255.798
-255.839
-255.88
-255.923
-255.968
-256.014
-256.061
-256.11
-256.161
-256.213
-256.266
-256.321
-256.377
-256.435
-256.494
-256.555
-256.617
-256.68
-256.745
-256.812
-256.88
-256.949
-257.02
-257.092
-257.166
-257.241
-257.318
-257.396
-257.475
-257.556
-257.639
-257.723
-257.808
-257.895
-257.984
-258.073
-258.165
-258.257
-258.352
-258.447
-258.544
-258.643
-258.743
-258.844
-258.947
-259.052
-259.158
-259.265
-259.374
-259.484
-259.596
-259.709
-259.823
-259.939
-260.057
-260.176
-260.296
-260.418
-260.542
-260.667
-260.793
-260.921
-261.05
-261.18
-261.313
-261.446
-261.581
-261.718
-261.856
-261.995
-262.136
-262.278
-262.422
-262.567
-262.714
-262.862
-263.012
-263.163
-263.316
-263.47
-263.625
-263.782
-263.941
-264.1
-264.262
-264.424
-264.589
-264.754
-264.922
-265.09
-265.26
-265.432
-265.605
-265.779
-265.955
-266.132
-266.311
-266.491
-266.673
-266.856
-267.041
-267.227
-267.415
-267.604
-267.794
-267.986
-268.179
-268.374
-268.571
-268.768
-268.967
-269.168
-269.37
-269.574
-269.779
-269.985
-270.193
-270.403
-270.614
-270.826
-271.04
-271.255
-271.472
-271.69
-271.909
-272.13
-272.353
-272.577
-272.802
-273.029
-273.257
-273.487
-273.718
-273.951
-274.185
-274.42
-274.658
-259.581
-259.601
-259.608
-259.608
-259.624
-259.643
-259.656
-259.673
-259.695
-259.719
-259.743
-259.769
-259.797
-259.827
-259.858
-259.89
-259.925
-259.96
-259.998
-260.036
-260.077
-260.118
-260.161
-260.206
-260.252
-260.3
-260.348
-260.399
-260.451
-260.504
-260.559
-260.615
-260.673
-260.732
-260.793
-260.855
-260.918
-260.983
-261.05
-261.118
-261.187
-261.258
-261.33
-261.404
-261.479
-261.556
-261.634
-261.714
-261.795
-261.877
-261.961
-262.046
-262.133
-262.222
-262.311
-262.403
-262.495
-262.59
-262.685
-262.782
-262.881
-262.981
-263.082
-263.185
-263.29
-263.396
-263.503
-263.612
-263.722
-263.834
-263.947
-264.061
-264.178
-264.295
-264.414
-264.535
-264.656
-264.78
-264.905
-265.031
-265.159
-265.288
-265.419
-265.551
-265.684
-265.819
-265.956
-266.094
-266.233
-266.374
-266.517
-266.66
-266.806
-266.952
-267.1
-267.25
-267.401
-267.554
-267.708
-267.863
-268.02
-268.179
-268.338
-268.5
-268.663
-268.827
-268.992
-269.16
-269.328
-269.498
-269.67
-269.843
-270.017
-270.193
-270.37
-270.549
-270.73
-270.911
-271.094
-271.279
-271.465
-271.653
-271.842
-272.032
-272.224
-272.417
-272.612
-272.809
-273.006
-273.206
-273.406
-273.608
-273.812
-274.017
-274.223
-274.431
-274.641
-274.852
-275.064
-275.278
-275.493
-275.71
-275.928
-276.147
-276.368
-276.591
-276.815
-277.04
-277.267
-277.495
-277.725
-277.956
-278.189
-278.423
-278.659
-278.896
-279.135
-263.817
-263.838
-263.844
-263.844
-263.861
-263.88
-263.893
-263.91
-263.933
-263.956
-263.981
-264.007
-264.035
-264.065
-264.096
-264.128
-264.163
-264.198
-264.236
-264.274
-264.315
-264.356
-264.399
-264.444
-264.49
-264.538
-264.587
-264.637
-264.689
-264.742
-264.797
-264.853
-264.911
-264.97
-265.031
-265.093
-265.156
-265.221
-265.288
-265.356
-265.425
-265.496
-265.568
-265.642
-265.717
-265.794
-265.872
-265.952
-266.033
-266.115
-266.199
-266.285
-266.371
-266.46
-266.55
-266.641
-266.734
-266.828
-266.923
-267.02
-267.119
-267.219
-267.321
-267.423
-267.528
-267.634
-267.741
-267.85
-267.96
-268.072
-268.185
-268.3
-268.416
-268.533
-268.652
-268.773
-268.895
-269.018
-269.143
-269.269
-269.397
-269.526
-269.657
-269.789
-269.922
-270.057
-270.194
-270.332
-270.471
-270.612
-270.755
-270.898
-271.044
-271.19
-271.339
-271.488
-271.639
-271.792
-271.946
-272.101
-272.258
-272.417
-272.577
-272.738
-272.901
-273.065
-273.231
-273.398
-273.566
-273.736
-273.908
-274.081
-274.255
-274.431
-274.609
-274.787
-274.968
-275.149
-275.333
-275.517
-275.703
-275.891
-276.08
-276.27
-276.462
-276.656
-276.85
-277.047
-277.244
-277.444
-277.644
-277.846
-278.05
-278.255
-278.462
-278.67
-278.879
-279.09
-279.302
-279.516
-279.731
-279.948
-280.166
-280.385
-280.607
-280.829
-281.053
-281.278
-281.505
-281.733
-281.963
-282.194
-282.427
-282.661
-282.897
-283.134
-283.373
-268.053
-268.074
-268.08
-268.081
-268.098
-268.116
-268.13
-268.147
-268.17
-268.194
-268.218
-268.244
-268.273
-268.302
-268.334
-268.366
-268.401
-268.436
-268.474
-268.512
-268.553
-268.594
-268.638
-268.682
-268.728
-268.776
-268.825
-268.875
-268.927
-268.98
-269.035
-269.091
-269.149
-269.208
-269.269
-269.331
-269.394
-269.459
-269.526
-269.594
-269.663
-269.734
-269.806
-269.88
-269.955
-270.032
-270.11
-270.19
-270.271
-270.353
-270.437
-270.523
-270.609
-270.698
-270.788
-270.879
-270.972
-271.066
-271.161
-271.259
-271.357
-271.457
-271.559
-271.662
-271.766
-271.872
-271.979
-272.088
-272.198
-272.31
-272.423
-272.538
-272.654
-272.771
-272.89
-273.011
-273.133
-273.256
-273.381
-273.507
-273.635
-273.764
-273.895
-274.027
-274.16
-274.296
-274.432
-274.57
-274.709
-274.85
-274.993
-275.136
-275.282
-275.428
-275.577
-275.726
-275.877
-276.03
-276.184
-276.339
-276.496
-276.655
-276.815
-276.976
-277.139
-277.303
-277.469
-277.636
-277.804
-277.974
-278.146
-278.319
-278.493
-278.669
-278.847
-279.025
-279.206
-279.387
-279.571
-279.755
-279.941
-280.129
-280.318
-280.508
-280.7
-280.894
-281.089
-281.285
-281.483
-281.682
-281.882
-282.085
-282.288
-282.493
-282.7
-282.908
-283.117
-283.328
-283.54
-283.754
-283.969
-284.186
-284.404
-284.624
-284.845
-285.067
-285.291
-285.516
-285.743
-285.972
-286.201
-286.433
-286.665
-286.9
-287.135
-287.373
-287.611
-287.852
-272.289
-272.31
-272.316
-272.317
-272.334
-272.353
-272.367
-272.384
-272.407
-272.431
-272.456
-272.482
-272.51
-272.54
-272.572
-272.604
-272.639
-272.674
-272.712
-272.751
-272.791
-272.832
-272.876
-272.92
-272.966
-273.014
-273.063
-273.113
-273.165
-273.218
-273.273
-273.329
-273.387
-273.446
-273.507
-273.569
-273.633
-273.698
-273.764
-273.832
-273.901
-273.972
-274.044
-274.118
-274.193
-274.27
-274.348
-274.428
-274.509
-274.591
-274.675
-274.761
-274.848
-274.936
-275.026
-275.117
-275.21
-275.304
-275.4
-275.497
-275.595
-275.695
-275.797
-275.9
-276.004
-276.11
-276.217
-276.326
-276.436
-276.548
-276.661
-276.776
-276.892
-277.009
-277.128
-277.249
-277.371
-277.494
-277.619
-277.745
-277.873
-278.002
-278.133
-278.265
-278.399
-278.534
-278.67
-278.808
-278.947
-279.088
-279.231
-279.375
-279.52
-279.667
-279.815
-279.964
-280.115
-280.268
-280.422
-280.578
-280.734
-280.893
-281.053
-281.214
-281.377
-281.541
-281.707
-281.874
-282.042
-282.212
-282.384
-282.557
-282.731
-282.907
-283.085
-283.263
-283.444
-283.625
-283.809
-283.993
-284.179
-284.367
-284.556
-284.746
-284.938
-285.132
-285.327
-285.523
-285.721
-285.92
-286.121
-286.323
-286.526
-286.731
-286.938
-287.146
-287.355
-287.566
-287.778
-287.992
-288.207
-288.424
-288.642
-288.862
-289.083
-289.305
-289.529
-289.755
-289.981
-290.21
-290.44
-290.671
-290.904
-291.138
-291.374
-291.611
-291.85
-292.09
-292.332
-276.524
-276.546
-276.552
-276.553
-276.57
-276.59
-276.604
-276.621
-276.644
-276.669
-276.693
-276.72
-276.748
-276.778
-276.809
-276.842
-276.877
-276.912
-276.95
-276.989
-277.029
-277.07
-277.114
-277.158
-277.204
-277.252
-277.301
-277.351
-277.403
-277.456
-277.511
-277.567
-277.625
-277.684
-277.745
-277.807
-277.871
-277.936
-278.002
-278.07
-278.139
-278.21
-278.282
-278.356
-278.431
-278.508
-278.586
-278.666
-278.747
-278.829
-278.913
-278.999
-279.086
-279.174
-279.264
-279.355
-279.448
-279.542
-279.638
-279.735
-279.833
-279.933
-280.035
-280.138
-280.242
-280.348
-280.455
-280.564
-280.674
-280.786
-280.899
-281.014
-281.13
-281.247
-281.366
-281.487
-281.609
-281.732
-281.857
-281.983
-282.111
-282.24
-282.371
-282.503
-282.637
-282.772
-282.908
-283.046
-283.186
-283.326
-283.469
-283.613
-283.758
-283.905
-284.053
-284.202
-284.354
-284.506
-284.66
-284.816
-284.973
-285.131
-285.291
-285.452
-285.615
-285.779
-285.945
-286.112
-286.281
-286.451
-286.622
-286.795
-286.969
-287.145
-287.323
-287.502
-287.682
-287.864
-288.047
-288.231
-288.417
-288.605
-288.794
-288.984
-289.176
-289.37
-289.565
-289.761
-289.959
-290.158
-290.359
-290.561
-290.764
-290.969
-291.176
-291.384
-291.593
-291.804
-292.016
-292.23
-292.445
-292.662
-292.88
-293.1
-293.321
-293.543
-293.767
-293.993
-294.22
-294.448
-294.678
-294.909
-295.142
-295.376
-295.612
-295.849
-296.088
-296.328
-296.57
-280.76
-280.781
-280.788
-280.789
-280.807
-280.826
-280.84
-280.858
-280.882
-280.906
-280.931
-280.957
-280.986
-281.016
-281.047
-281.08
-281.115
-281.15
-281.188
-281.227
-281.267
-281.309
-281.352
-281.396
-281.442
-281.49
-281.539
-281.589
-281.641
-281.694
-281.749
-281.806
-281.863
-281.922
-281.983
-282.045
-282.109
-282.174
-282.24
-282.308
-282.377
-282.448
-282.521
-282.594
-282.669
-282.746
-282.824
-282.904
-282.985
-283.067
-283.151
-283.237
-283.324
-283.412
-283.502
-283.593
-283.686
-283.78
-283.876
-283.973
-284.071
-284.171
-284.273
-284.376
-284.48
-284.586
-284.693
-284.802
-284.912
-285.024
-285.137
-285.252
-285.368
-285.485
-285.604
-285.725
-285.847
-285.97
-286.095
-286.221
-286.349
-286.478
-286.609
-286.741
-286.875
-287.01
-287.146
-287.284
-287.424
-287.565
-287.707
-287.851
-287.996
-288.143
-288.291
-288.44
-288.592
-288.744
-288.898
-289.054
-289.211
-289.369
-289.529
-289.69
-289.853
-290.017
-290.183
-290.35
-290.519
-290.689
-290.86
-291.033
-291.208
-291.383
-291.561
-291.74
-291.92
-292.102
-292.285
-292.469
-292.656
-292.843
-293.032
-293.223
-293.414
-293.608
-293.803
-293.999
-294.197
-294.396
-294.597
-294.799
-295.002
-295.207
-295.414
-295.622
-295.831
-296.042
-296.254
-296.468
-296.684
-296.9
-297.118
-297.338
-297.559
-297.782
-298.005
-298.231
-298.458
-298.686
-298.916
-299.147
-299.38
-299.614
-299.85
-300.088
-300.326
-300.567
-300.809
-301.052
-284.995
-285.016
-285.024
-285.025
-285.043
-285.063
-285.077
-285.095
-285.119
-285.143
-285.168
-285.195
-285.224
-285.254
-285.285
-285.318
-285.353
-285.388
-285.426
-285.465
-285.505
-285.547
-285.59
-285.634
-285.68
-285.728
-285.777
-285.827
-285.879
-285.933
-285.987
-286.044
-286.101
-286.16
-286.221
-286.283
-286.347
-286.412
-286.478
-286.546
-286.615
-286.686
-286.759
-286.832
-286.908
-286.984
-287.062
-287.142
-287.223
-287.305
-287.389
-287.475
-287.562
-287.65
-287.74
-287.831
-287.924
-288.018
-288.114
-288.211
-288.309
-288.409
-288.511
-288.614
-288.718
-288.824
-288.931
-289.04
-289.15
-289.262
-289.375
-289.49
-289.606
-289.723
-289.842
-289.963
-290.085
-290.208
-290.333
-290.459
-290.587
-290.716
-290.847
-290.979
-291.113
-291.248
-291.384
-291.522
-291.662
-291.803
-291.945
-292.089
-292.234
-292.381
-292.529
-292.679
-292.83
-292.982
-293.136
-293.292
-293.449
-293.607
-293.767
-293.928
-294.091
-294.255
-294.421
-294.588
-294.757
-294.927
-295.098
-295.271
-295.446
-295.622
-295.799
-295.978
-296.158
-296.34
-296.523
-296.707
-296.894
-297.081
-297.27
-297.461
-297.653
-297.846
-298.041
-298.237
-298.435
-298.634
-298.835
-299.037
-299.24
-299.445
-299.652
-299.86
-300.069
-300.28
-300.493
-300.706
-300.922
-301.138
-301.356
-301.576
-301.797
-302.02
-302.244
-302.469
-302.696
-302.924
-303.154
-303.385
-303.618
-303.853
-304.088
-304.326
-304.565
-304.805
-305.047
-305.29
-305.535
-289.23
-289.252
-289.259
-289.261
-289.279
-289.299
-289.314
-289.332
-289.356
-289.381
-289.406
-289.433
-289.461
-289.491
-289.523
-289.556
-289.59
-289.626
-289.664
-289.703
-289.743
-289.785
-289.828
-289.872
-289.918
-289.966
-290.015
-290.065
-290.117
-290.171
-290.225
-290.282
-290.339
-290.399
-290.459
-290.521
-290.585
-290.65
-290.716
-290.784
-290.854
-290.924
-290.997
-291.07
-291.146
-291.222
-291.3
-291.38
-291.461
-291.544
-291.627
-291.713
-291.8
-291.888
-291.978
-292.069
-292.162
-292.256
-292.352
-292.449
-292.547
-292.647
-292.749
-292.852
-292.956
-293.062
-293.169
-293.278
-293.388
-293.5
-293.613
-293.728
-293.844
-293.962
-294.081
-294.201
-294.323
-294.446
-294.571
-294.697
-294.825
-294.954
-295.085
-295.217
-295.351
-295.486
-295.622
-295.76
-295.9
-296.041
-296.183
-296.327
-296.472
-296.619
-296.767
-296.917
-297.068
-297.22
-297.374
-297.53
-297.687
-297.845
-298.005
-298.166
-298.329
-298.493
-298.659
-298.826
-298.995
-299.165
-299.336
-299.509
-299.684
-299.86
-300.037
-300.216
-300.396
-300.578
-300.761
-300.946
-301.132
-301.319
-301.508
-301.699
-301.891
-302.084
-302.279
-302.475
-302.673
-302.872
-303.073
-303.275
-303.479
-303.684
-303.89
-304.098
-304.307
-304.518
-304.731
-304.944
-305.16
-305.376
-305.595
-305.814
-306.035
-306.258
-306.482
-306.707
-306.934
-307.162
-307.392
-307.624
-307.857
-308.091
-308.327
-308.564
-308.803
-309.043
-309.285
-309.528
-309.773
-310.02
-293.465
-293.486
-293.494
-293.496
-293.515
-293.535
-293.55
-293.569
-293.593
-293.618
-293.643
-293.67
-293.699
-293.729
-293.761
-293.794
-293.828
-293.864
-293.902
-293.941
-293.981
-294.023
-294.066
-294.11
-294.156
-294.204
-294.253
-294.303
-294.355
-294.409
-294.463
-294.52
-294.577
-294.637
-294.697
-294.759
-294.823
-294.888
-294.954
-295.022
-295.092
-295.162
-295.235
-295.308
-295.384
-295.46
-295.538
-295.618
-295.699
-295.782
-295.866
-295.951
-296.038
-296.126
-296.216
-296.307
-296.4
-296.494
-296.59
-296.687
-296.785
-296.885
-296.987
-297.09
-297.194
-297.3
-297.407
-297.516
-297.626
-297.738
-297.851
-297.966
-298.082
-298.2
-298.319
-298.439
-298.561
-298.684
-298.809
-298.935
-299.063
-299.192
-299.323
-299.455
-299.589
-299.724
-299.86
-299.998
-300.138
-300.279
-300.421
-300.565
-300.71
-300.857
-301.005
-301.155
-301.306
-301.458
-301.612
-301.768
-301.925
-302.083
-302.243
-302.404
-302.567
-302.731
-302.897
-303.064
-303.233
-303.403
-303.574
-303.747
-303.922
-304.098
-304.275
-304.454
-304.634
-304.816
-304.999
-305.184
-305.37
-305.557
-305.746
-305.937
-306.129
-306.322
-306.517
-306.713
-306.911
-307.11
-307.311
-307.513
-307.717
-307.922
-308.128
-308.336
-308.545
-308.756
-308.969
-309.182
-309.398
-309.614
-309.833
-310.052
-310.273
-310.496
-310.72
-310.945
-311.172
-311.401
-311.63
-311.862
-312.095
-312.329
-312.565
-312.802
-313.041
-313.281
-313.523
-313.767
-314.012
-314.258
-297.699
-297.721
-297.729
-297.731
-297.75
-297.771
-297.787
-297.806
-297.83
-297.855
-297.881
-297.908
-297.937
-297.967
-297.999
-298.032
-298.066
-298.102
-298.14
-298.179
-298.219
-298.261
-298.304
-298.348
-298.395
-298.442
-298.491
-298.541
-298.593
-298.647
-298.701
-298.758
-298.815
-298.875
-298.935
-298.997
-299.061
-299.126
-299.192
-299.26
-299.33
-299.4
-299.473
-299.546
-299.622
-299.698
-299.776
-299.856
-299.937
-300.02
-300.104
-300.189
-300.276
-300.364
-300.454
-300.545
-300.638
-300.732
-300.828
-300.925
-301.023
-301.123
-301.225
-301.328
-301.432
-301.538
-301.645
-301.754
-301.864
-301.976
-302.089
-302.204
-302.32
-302.438
-302.557
-302.677
-302.799
-302.922
-303.047
-303.173
-303.301
-303.43
-303.561
-303.693
-303.827
-303.962
-304.098
-304.236
-304.376
-304.517
-304.659
-304.803
-304.948
-305.095
-305.243
-305.393
-305.544
-305.696
-305.85
-306.006
-306.163
-306.321
-306.481
-306.642
-306.805
-306.969
-307.135
-307.302
-307.471
-307.641
-307.812
-307.985
-308.16
-308.336
-308.513
-308.692
-308.872
-309.054
-309.237
-309.422
-309.608
-309.795
-309.984
-310.175
-310.367
-310.56
-310.755
-310.951
-311.149
-311.348
-311.549
-311.751
-311.955
-312.16
-312.366
-312.574
-312.784
-312.994
-313.207
-313.421
-313.636
-313.853
-314.071
-314.29
-314.511
-314.734
-314.958
-315.183
-315.41