/*--------------------------------*- C++ -*----------------------------------*\
| =========                 |                                                 |
| \\      /  F ield         | OpenFOAM: The Open Source CFD Toolbox           |
|  \\    /   O peration     | Version:  2512                                  |
|   \\  /    A nd           | Website:  www.openfoam.com                      |
|    \\/     M anipulation  |                                                 |
\*---------------------------------------------------------------------------*/
FoamFile
{
    version     2.0;
    format      ascii;
    arch        "LSB;label=32;scalar=64";
    class       volScalarField;
    location    "0.1";
    object      pB;
}
// * * * * * * * * * * * * * * * * * * * * * * * * * * * * * * * * * * * * * //

dimensions      [1 1 -3 0 0 -1 0];

internalField   nonuniform List<scalar> 
8333
(
0.0207121
0.0606697
0.0990344
0.134747
0.167999
0.198982
0.227894
0.254922
0.280244
0.304015
0.326376
0.347449
0.367346
0.386153
0.403971
0.420852
0.436935
-0.0110535
-0.0303511
-0.0472522
-0.0614526
-0.0731933
-0.0827085
-0.0902135
-0.0959075
-0.0999774
-0.102595
-0.103912
-0.104062
-0.103155
-0.101291
-0.0985361
-0.0949776
-0.0906353
-0.0855804
-0.0799874
-0.0738906
-0.0673076
-0.0602872
-0.0528652
-0.0450687
-0.0369298
-0.0284788
-0.0197481
-0.010771
-0.00157715
0.00780466
0.0173461
0.0270211
0.036807
0.0466822
0.0566278
0.0666259
0.0766599
0.0867144
0.0967765
0.106835
0.11688
0.126901
0.136893
0.146847
0.156758
0.166622
0.176436
0.186195
0.195899
0.205545
0.215133
0.224663
0.234134
0.243546
0.2529
0.262198
0.27144
0.280627
0.289762
0.298847
0.307882
0.316869
0.325812
0.334711
0.343569
0.352387
0.361167
0.369913
0.378624
0.387304
0.395954
0.404576
0.413171
0.421742
0.43029
0.438818
0.447326
0.455817
0.464291
0.472751
0.481197
0.489631
0.498053
0.506466
0.514869
0.523265
0.531654
0.540037
0.548415
0.55679
0.565162
0.573533
0.581903
0.590273
0.598644
0.607018
0.615394
0.623774
0.632159
0.640549
0.648944
0.657346
0.665756
0.674173
0.6826
0.691036
0.699482
0.707938
0.716406
0.724885
0.733379
0.741888
0.750413
0.758954
0.767514
0.776091
0.784687
0.793302
0.801937
0.810591
0.819267
0.827964
0.836683
0.845426
0.854192
0.86298
0.871791
0.880624
0.889479
0.898356
0.907254
0.916172
0.92511
0.934066
0.943038
0.952022
0.961017
0.970022
0.979032
0.988044
0.997056
1.00606
1.01507
1.02406
1.03305
1.04203
1.05103
1.06004
1.06915
-0.0426895
-0.121173
-0.193302
-0.257389
-0.314096
-0.364086
-0.407985
-0.446383
-0.479828
-0.508821
-0.533807
-0.555173
-0.573249
-0.588321
-0.60063
-0.610393
-0.617798
-0.623027
-0.626251
-0.62766
-0.627365
-0.625499
-0.62219
-0.617554
-0.6117
-0.604737
-0.596772
-0.587907
-0.57824
-0.567871
-0.556884
-0.545365
-0.533394
-0.521041
-0.508369
-0.495441
-0.482316
-0.46904
-0.455659
-0.442215
-0.428744
-0.415276
-0.401839
-0.388457
-0.375152
-0.361942
-0.348838
-0.335854
-0.323
-0.310285
-0.297712
-0.285285
-0.273008
-0.260882
-0.248907
-0.237082
-0.225405
-0.213874
-0.202485
-0.191235
-0.180122
-0.169139
-0.158282
-0.147546
-0.136928
-0.126422
-0.116022
-0.105725
-0.0955249
-0.0854166
-0.0753954
-0.0654571
-0.0555968
-0.0458099
-0.0360918
-0.0264383
-0.0168453
-0.00730844
0.00217605
0.0116116
0.0210016
0.0303493
0.0396581
0.0489308
0.05817
0.0673784
0.0765589
0.0857141
0.0948466
0.103959
0.113052
0.122129
0.131192
0.140243
0.149283
0.158315
0.167339
0.176358
0.185373
0.194386
0.203396
0.212407
0.221419
0.230433
0.23945
0.248471
0.257497
0.266529
0.275567
0.284614
0.293669
0.302736
0.311815
0.320906
0.330009
0.339126
0.348257
0.357403
0.366564
0.375739
0.38493
0.394137
0.403361
0.412602
0.42186
0.431134
0.440424
0.449728
0.459047
0.46838
0.477724
0.487082
0.496449
0.505825
0.515208
0.524594
0.53398
0.543367
0.552749
0.562123
0.571487
0.580837
0.590171
0.599488
0.608787
0.618071
0.62735
0.636629
0.645951
-0.074221
-0.211778
-0.339049
-0.452952
-0.554565
-0.644972
-0.725211
-0.796263
-0.85904
-0.914373
-0.962996
-1.00555
-1.04259
-1.07458
-1.10194
-1.12501
-1.14415
-1.15961
-1.17165
-1.18056
-1.18655
-1.18983
-1.19064
-1.18916
-1.18558
-1.1801
-1.1729
-1.16414
-1.154
-1.14264
-1.13021
-1.11685
-1.10269
-1.08786
-1.07247
-1.05661
-1.04039
-1.0239
-1.0072
-0.990376
-0.973483
-0.956572
-0.939691
-0.922886
-0.906192
-0.889639
-0.873248
-0.857043
-0.841044
-0.825263
-0.809709
-0.794389
-0.77931
-0.764473
-0.749881
-0.735532
-0.721423
-0.707552
-0.693912
-0.6805
-0.667311
-0.654336
-0.641567
-0.628998
-0.616622
-0.604429
-0.592414
-0.580567
-0.56888
-0.557345
-0.545955
-0.534702
-0.523579
-0.512578
-0.501692
-0.490914
-0.480238
-0.469657
-0.459163
-0.448754
-0.438421
-0.428161
-0.417968
-0.407836
-0.397762
-0.387742
-0.377771
-0.367845
-0.35796
-0.348112
-0.338299
-0.328516
-0.318761
-0.309031
-0.299323
-0.289634
-0.279963
-0.270306
-0.260661
-0.251028
-0.241402
-0.231784
-0.222172
-0.212562
-0.202956
-0.19335
-0.183745
-0.174139
-0.16453
-0.154918
-0.145301
-0.135677
-0.126046
-0.116407
-0.10676
-0.0971042
-0.0874386
-0.0777632
-0.0680778
-0.0583825
-0.0486772
-0.038961
-0.0292337
-0.0194952
-0.00974584
1.26092e-05
0.00978001
0.0195549
0.0293361
0.0391234
0.0489148
0.0587097
0.0685059
0.0783013
0.0880932
0.0978797
0.107657
0.117424
0.127177
0.136912
0.146626
0.156316
0.165981
0.175617
0.185223
0.194804
0.204354
0.213896
0.223405
0.233018
-0.105658
-0.302145
-0.484437
-0.648049
-0.794469
-0.925198
-1.04169
-1.14532
-1.23736
-1.31896
-1.39117
-1.45487
-1.51083
-1.55971
-1.60209
-1.63846
-1.66929
-1.69496
-1.7158
-1.73218
-1.74445
-1.75288
-1.75778
-1.75945
-1.75815
-1.75414
-1.74769
-1.73905
-1.72843
-1.71608
-1.7022
-1.687
-1.67065
-1.65334
-1.63523
-1.61645
-1.59714
-1.57743
-1.55743
-1.53722
-1.51691
-1.49656
-1.47624
-1.45602
-1.43594
-1.41605
-1.39638
-1.37696
-1.35782
-1.33899
-1.32046
-1.30225
-1.28437
-1.26683
-1.24963
-1.23276
-1.21623
-1.20002
-1.18413
-1.16857
-1.15331
-1.13834
-1.12367
-1.10927
-1.09514
-1.08126
-1.06764
-1.05424
-1.04107
-1.02812
-1.01536
-1.0028
-0.990413
-0.9782
-0.966149
-0.95425
-0.942493
-0.930869
-0.91937
-0.907988
-0.896716
-0.885545
-0.874469
-0.863481
-0.852575
-0.841746
-0.830986
-0.82029
-0.809654
-0.799072
-0.788541
-0.778055
-0.767609
-0.757201
-0.746827
-0.736483
-0.726166
-0.715873
-0.705601
-0.695347
-0.685109
-0.674885
-0.664673
-0.65447
-0.644275
-0.634086
-0.623903
-0.613724
-0.603548
-0.593371
-0.583194
-0.573014
-0.562832
-0.552647
-0.542458
-0.532264
-0.522065
-0.511862
-0.501653
-0.491439
-0.481221
-0.470997
-0.460767
-0.450533
-0.440293
-0.430052
-0.419808
-0.409564
-0.399322
-0.389081
-0.378844
-0.368613
-0.358389
-0.348176
-0.337975
-0.32779
-0.317623
-0.307476
-0.297355
-0.287261
-0.277198
-0.267169
-0.257176
-0.247223
-0.237313
-0.227439
-0.21762
-0.207821
-0.198102
-0.18831
-0.178201
-0.137002
-0.392246
-0.629401
-0.842576
-1.03366
-1.20458
-1.35721
-1.4933
-1.6145
-1.7223
-1.81802
-1.9028
-1.97763
-2.04336
-2.10072
-2.15036
-2.19285
-2.22868
-2.25829
-2.28214
-2.30065
-2.31422
-2.32321
-2.32801
-2.32897
-2.32643
-2.32073
-2.31218
-2.30108
-2.28773
-2.27241
-2.25536
-2.23683
-2.21704
-2.19621
-2.17451
-2.15212
-2.1292
-2.10589
-2.08232
-2.05859
-2.03481
-2.01107
-1.98744
-1.96399
-1.94077
-1.91783
-1.8952
-1.87293
-1.85104
-1.82955
-1.80846
-1.7878
-1.76756
-1.74776
-1.72838
-1.70942
-1.69089
-1.67277
-1.65505
-1.63772
-1.62078
-1.6042
-1.58798
-1.5721
-1.55655
-1.54132
-1.52638
-1.51173
-1.49736
-1.48324
-1.46937
-1.45573
-1.44231
-1.4291
-1.41608
-1.40325
-1.39059
-1.37808
-1.36573
-1.35352
-1.34145
-1.32949
-1.31765
-1.30591
-1.29428
-1.28273
-1.27127
-1.25988
-1.24857
-1.23732
-1.22614
-1.215
-1.20392
-1.19288
-1.18188
-1.17092
-1.16
-1.1491
-1.13823
-1.12738
-1.11655
-1.10574
-1.09495
-1.08416
-1.07339
-1.06264
-1.05189
-1.04114
-1.0304
-1.01967
-1.00893
-0.998203
-0.987473
-0.976744
-0.966015
-0.955285
-0.944554
-0.933824
-0.923094
-0.912364
-0.901634
-0.890904
-0.880175
-0.869447
-0.858724
-0.848006
-0.837295
-0.826592
-0.8159
-0.80522
-0.794553
-0.783904
-0.773274
-0.762666
-0.752083
-0.741528
-0.731003
-0.720514
-0.710063
-0.699653
-0.689287
-0.678968
-0.668699
-0.658487
-0.648323
-0.638233
-0.62818
-0.618223
-0.6082
-0.59789
-0.587281
-0.168248
-0.482051
-0.773877
-1.03643
-1.27201
-1.48295
-1.67155
-1.83996
-1.9902
-2.12408
-2.24321
-2.349
-2.44263
-2.52515
-2.59745
-2.66031
-2.71442
-2.76038
-2.79872
-2.83001
-2.85476
-2.87343
-2.88649
-2.89441
-2.89762
-2.89654
-2.89157
-2.88311
-2.87152
-2.85717
-2.8404
-2.8215
-2.80078
-2.77852
-2.75497
-2.73035
-2.70489
-2.67877
-2.65216
-2.62523
-2.5981
-2.5709
-2.54374
-2.51671
-2.4899
-2.46336
-2.43716
-2.41135
-2.38596
-2.36103
-2.33658
-2.31262
-2.28918
-2.26626
-2.24386
-2.22198
-2.20062
-2.17977
-2.15942
-2.13956
-2.12018
-2.10126
-2.08279
-2.06475
-2.04713
-2.02991
-2.01308
-1.99661
-1.98049
-1.9647
-1.94923
-1.93406
-1.91917
-1.90455
-1.89018
-1.87605
-1.86214
-1.84844
-1.83494
-1.82163
-1.80849
-1.79551
-1.78267
-1.76998
-1.75742
-1.74498
-1.73265
-1.72043
-1.7083
-1.69625
-1.68429
-1.67241
-1.66059
-1.64883
-1.63713
-1.62549
-1.61389
-1.60233
-1.59081
-1.57932
-1.56786
-1.55643
-1.54503
-1.53364
-1.52228
-1.51093
-1.4996
-1.48828
-1.47697
-1.46567
-1.45438
-1.4431
-1.43182
-1.42054
-1.40928
-1.39801
-1.38676
-1.3755
-1.36425
-1.35301
-1.34177
-1.33053
-1.3193
-1.30808
-1.29687
-1.28567
-1.27448
-1.2633
-1.25214
-1.241
-1.22988
-1.21878
-1.2077
-1.19666
-1.18564
-1.17466
-1.16372
-1.15282
-1.14197
-1.13116
-1.1204
-1.1097
-1.09906
-1.08848
-1.07796
-1.06751
-1.05715
-1.04684
-1.03662
-1.02633
-1.01579
-1.00493
-0.199389
-0.571526
-0.917797
-1.22951
-1.50936
-1.76012
-1.9845
-2.18506
-2.36418
-2.52401
-2.66644
-2.79313
-2.9055
-3.00474
-3.09192
-3.16794
-3.23362
-3.28966
-3.33671
-3.3754
-3.40635
-3.4301
-3.44722
-3.45823
-3.46367
-3.46402
-3.45978
-3.45139
-3.43931
-3.42395
-3.40572
-3.38497
-3.36207
-3.33734
-3.31108
-3.28355
-3.25502
-3.2257
-3.19581
-3.16552
-3.13501
-3.1044
-3.07384
-3.04343
-3.01326
-2.98342
-2.95397
-2.92498
-2.89649
-2.86853
-2.84114
-2.81433
-2.78813
-2.76253
-2.73755
-2.71319
-2.68943
-2.66627
-2.6437
-2.62171
-2.60028
-2.5794
-2.55905
-2.5392
-2.51985
-2.50097
-2.48255
-2.46455
-2.44697
-2.42977
-2.41295
-2.39649
-2.38035
-2.36454
-2.34902
-2.33378
-2.31881
-2.30408
-2.28959
-2.27531
-2.26124
-2.24736
-2.23366
-2.22012
-2.20674
-2.1935
-2.18039
-2.16741
-2.15454
-2.14177
-2.1291
-2.11652
-2.10402
-2.09159
-2.07924
-2.06694
-2.0547
-2.04252
-2.03037
-2.01827
-2.00621
-1.99419
-1.98219
-1.97022
-1.95827
-1.94635
-1.93444
-1.92256
-1.91069
-1.89883
-1.88699
-1.87516
-1.86333
-1.85152
-1.83972
-1.82792
-1.81614
-1.80436
-1.7926
-1.78084
-1.76909
-1.75736
-1.74563
-1.73392
-1.72222
-1.71054
-1.69888
-1.68724
-1.67563
-1.66404
-1.65248
-1.64095
-1.62945
-1.61799
-1.60658
-1.5952
-1.58388
-1.5726
-1.56138
-1.55022
-1.53912
-1.52809
-1.51712
-1.50623
-1.49541
-1.48467
-1.47402
-1.46345
-1.45295
-1.44239
-1.43159
-1.42049
-1.4091
-0.230413
-0.660634
-1.06109
-1.4217
-1.74557
-2.03591
-2.29584
-2.52835
-2.73616
-2.92178
-3.08739
-3.23487
-3.36586
-3.48175
-3.58373
-3.67286
-3.75006
-3.81613
-3.87184
-3.9179
-3.95501
-3.98382
-4.00495
-4.01904
-4.02669
-4.02846
-4.02492
-4.0166
-4.00401
-3.98763
-3.96794
-3.94534
-3.92026
-3.89306
-3.86409
-3.83366
-3.80206
-3.76957
-3.7364
-3.70277
-3.66888
-3.63488
-3.60093
-3.56715
-3.53365
-3.50052
-3.46785
-3.43569
-3.40411
-3.37314
-3.34283
-3.31318
-3.28423
-3.25598
-3.22843
-3.20159
-3.17545
-3.15
-3.12522
-3.10112
-3.07766
-3.05482
-3.0326
-3.01096
-2.98989
-2.96936
-2.94935
-2.92984
-2.9108
-2.89221
-2.87405
-2.85629
-2.83892
-2.82192
-2.80526
-2.78892
-2.77289
-2.75714
-2.74166
-2.72643
-2.71144
-2.69666
-2.68209
-2.66772
-2.65352
-2.63948
-2.6256
-2.61186
-2.59825
-2.58476
-2.57139
-2.55812
-2.54494
-2.53185
-2.51884
-2.5059
-2.49303
-2.48022
-2.46746
-2.45475
-2.44209
-2.42946
-2.41688
-2.40432
-2.3918
-2.3793
-2.36683
-2.35439
-2.34196
-2.32955
-2.31715
-2.30478
-2.29241
-2.28006
-2.26773
-2.25541
-2.2431
-2.2308
-2.21852
-2.20625
-2.194
-2.18177
-2.16955
-2.15735
-2.14517
-2.13302
-2.12089
-2.10879
-2.09673
-2.08469
-2.07269
-2.06073
-2.04882
-2.03695
-2.02513
-2.01336
-2.00166
-1.99001
-1.97843
-1.96691
-1.95547
-1.9441
-1.93282
-1.92161
-1.91049
-1.89946
-1.88853
-1.87768
-1.86689
-1.85605
-1.84498
-1.83364
-1.82203
-1.81004
-0.26131
-0.749337
-1.20369
-1.61289
-1.9805
-2.31013
-2.60536
-2.86957
-3.10588
-3.3171
-3.50572
-3.67387
-3.82338
-3.95581
-4.07253
-4.17469
-4.26335
-4.33941
-4.40372
-4.45711
-4.50034
-4.53416
-4.55928
-4.57642
-4.58624
-4.58941
-4.58655
-4.57828
-4.56517
-4.54777
-4.52661
-4.50216
-4.47489
-4.44523
-4.41356
-4.38023
-4.34559
-4.30992
-4.27349
-4.23654
-4.19929
-4.16192
-4.12459
-4.08746
-4.05065
-4.01425
-3.97837
-3.94307
-3.90842
-3.87446
-3.84124
-3.80878
-3.77709
-3.7462
-3.71611
-3.68681
-3.6583
-3.63057
-3.60361
-3.5774
-3.55192
-3.52715
-3.50306
-3.47964
-3.45686
-3.43469
-3.41311
-3.39209
-3.37161
-3.35163
-3.33214
-3.31311
-3.29451
-3.27633
-3.25853
-3.2411
-3.22402
-3.20725
-3.19079
-3.17462
-3.15871
-3.14305
-3.12762
-3.1124
-3.09739
-3.08257
-3.06792
-3.05343
-3.03909
-3.02489
-3.01081
-2.99686
-2.983
-2.96925
-2.95559
-2.94202
-2.92851
-2.91508
-2.90171
-2.8884
-2.87514
-2.86192
-2.84875
-2.83562
-2.82252
-2.80946
-2.79642
-2.78341
-2.77043
-2.75747
-2.74453
-2.73161
-2.71871
-2.70583
-2.69296
-2.68012
-2.66729
-2.65448
-2.64168
-2.62891
-2.61616
-2.60343
-2.59072
-2.57804
-2.56539
-2.55276
-2.54017
-2.52761
-2.51509
-2.50262
-2.49018
-2.4778
-2.46547
-2.45319
-2.44097
-2.42882
-2.41673
-2.40471
-2.39277
-2.38091
-2.36912
-2.35742
-2.34581
-2.3343
-2.32288
-2.31156
-2.30034
-2.2892
-2.27811
-2.26697
-2.25563
-2.24403
-2.23216
-2.2199
-0.292067
-0.837593
-1.34551
-1.80299
-2.21399
-2.5826
-2.91283
-3.20848
-3.47304
-3.70966
-3.92112
-4.10979
-4.27769
-4.42657
-4.55793
-4.67306
-4.7731
-4.85908
-4.93195
-4.9926
-5.04191
-5.08071
-5.10978
-5.12993
-5.1419
-5.14644
-5.14425
-5.13601
-5.12237
-5.10393
-5.08129
-5.05499
-5.02554
-4.99341
-4.95905
-4.92284
-4.88515
-4.84633
-4.80666
-4.7664
-4.7258
-4.68508
-4.6444
-4.60394
-4.56383
-4.52419
-4.48512
-4.4467
-4.409
-4.37207
-4.33597
-4.3007
-4.26631
-4.2328
-4.20018
-4.16844
-4.13758
-4.10759
-4.07846
-4.05016
-4.02268
-3.99599
-3.97006
-3.94487
-3.92039
-3.8966
-3.87346
-3.85095
-3.82903
-3.80768
-3.78687
-3.76657
-3.74675
-3.7274
-3.70848
-3.68996
-3.67183
-3.65406
-3.63663
-3.61951
-3.60269
-3.58615
-3.56987
-3.55383
-3.53801
-3.52241
-3.50699
-3.49176
-3.47669
-3.46178
-3.44701
-3.43238
-3.41786
-3.40345
-3.38915
-3.37493
-3.36081
-3.34676
-3.33278
-3.31887
-3.30501
-3.29121
-3.27746
-3.26375
-3.25009
-3.23646
-3.22286
-3.2093
-3.19577
-3.18226
-3.16878
-3.15532
-3.14189
-3.12848
-3.11509
-3.10172
-3.08837
-3.07505
-3.06175
-3.04848
-3.03523
-3.02201
-3.00881
-2.99565
-2.98252
-2.96943
-2.95637
-2.94336
-2.9304
-2.91748
-2.90462
-2.89181
-2.87907
-2.86638
-2.85377
-2.84123
-2.82876
-2.81637
-2.80407
-2.79186
-2.77974
-2.76771
-2.75578
-2.74395
-2.73223
-2.72062
-2.7091
-2.69767
-2.68628
-2.67484
-2.66321
-2.65134
-2.63919
-2.62667
-2.61376
-0.32267
-0.925361
-1.48648
-1.99186
-2.4459
-2.85313
-3.21803
-3.54481
-3.83736
-4.09916
-4.33327
-4.54229
-4.72845
-4.89367
-5.03956
-5.16756
-5.27892
-5.37475
-5.45611
-5.52398
-5.57932
-5.62304
-5.65603
-5.67914
-5.69324
-5.69912
-5.69757
-5.68934
-5.67514
-5.65567
-5.63155
-5.60339
-5.57176
-5.53717
-5.50012
-5.46104
-5.42033
-5.37836
-5.33546
-5.29191
-5.248
-5.20394
-5.15993
-5.11616
-5.07278
-5.02992
-4.98768
-4.94617
-4.90544
-4.86557
-4.8266
-4.78857
-4.75148
-4.71538
-4.68025
-4.64609
-4.61291
-4.58068
-4.54939
-4.51903
-4.48956
-4.46096
-4.4332
-4.40626
-4.38011
-4.3547
-4.33002
-4.30602
-4.28269
-4.25997
-4.23785
-4.2163
-4.19528
-4.17476
-4.15473
-4.13514
-4.11597
-4.0972
-4.07881
-4.06076
-4.04304
-4.02563
-4.0085
-3.99164
-3.97503
-3.95864
-3.94247
-3.9265
-3.91072
-3.8951
-3.87964
-3.86433
-3.84915
-3.83409
-3.81915
-3.80431
-3.78956
-3.7749
-3.76032
-3.74581
-3.73137
-3.71699
-3.70266
-3.68838
-3.67415
-3.65996
-3.64582
-3.6317
-3.61763
-3.60358
-3.58956
-3.57557
-3.5616
-3.54767
-3.53376
-3.51987
-3.50601
-3.49218
-3.47838
-3.46461
-3.45087
-3.43716
-3.42348
-3.40984
-3.39624
-3.38268
-3.36917
-3.35571
-3.34231
-3.32895
-3.31566
-3.30244
-3.28928
-3.27619
-3.26319
-3.25026
-3.23742
-3.22467
-3.21201
-3.19945
-3.18699
-3.17464
-3.16239
-3.15025
-3.13822
-3.12631
-3.1145
-3.10277
-3.09107
-3.07933
-3.0674
-3.05525
-3.04281
-3.03003
-3.01687
-3.00331
-0.353107
-1.0126
-1.62653
-2.1794
-2.67607
-3.12153
-3.52073
-3.87831
-4.19856
-4.48528
-4.74182
-4.97102
-5.1753
-5.35672
-5.51705
-5.65783
-5.78042
-5.88603
-5.97581
-6.05084
-6.11215
-6.16075
-6.19759
-6.22364
-6.23981
-6.247
-6.24607
-6.23783
-6.22307
-6.20253
-6.17693
-6.14691
-6.1131
-6.07606
-6.03633
-5.99438
-5.95066
-5.90557
-5.85946
-5.81265
-5.76544
-5.71806
-5.67076
-5.62371
-5.57708
-5.53102
-5.48565
-5.44106
-5.39734
-5.35455
-5.31275
-5.27196
-5.23222
-5.19354
-5.15592
-5.11937
-5.08388
-5.04943
-5.01602
-4.9836
-4.95217
-4.92169
-4.89212
-4.86345
-4.83563
-4.80863
-4.78242
-4.75696
-4.73221
-4.70815
-4.68473
-4.66194
-4.63972
-4.61806
-4.59692
-4.57627
-4.55607
-4.53632
-4.51697
-4.498
-4.47939
-4.46111
-4.44315
-4.42547
-4.40807
-4.39092
-4.374
-4.3573
-4.3408
-4.32449
-4.30835
-4.29237
-4.27653
-4.26083
-4.24526
-4.22979
-4.21443
-4.19917
-4.18399
-4.16889
-4.15387
-4.13891
-4.12401
-4.10917
-4.09438
-4.07963
-4.06494
-4.05028
-4.03566
-4.02107
-4.00652
-3.992
-3.97751
-3.96306
-3.94863
-3.93424
-3.91987
-3.90554
-3.89124
-3.87697
-3.86274
-3.84855
-3.83439
-3.82028
-3.80621
-3.7922
-3.77823
-3.76432
-3.75048
-3.7367
-3.72298
-3.70934
-3.69577
-3.68229
-3.66889
-3.65558
-3.64237
-3.62926
-3.61625
-3.60334
-3.59055
-3.57787
-3.5653
-3.55285
-3.54052
-3.5283
-3.51619
-3.50416
-3.49216
-3.4801
-3.46788
-3.45543
-3.4427
-3.42965
-3.41621
-3.40235
-3.38805
-0.383365
-1.09926
-1.76557
-2.36549
-2.90434
-3.3876
-3.82069
-4.20872
-4.55634
-4.86772
-5.14646
-5.39564
-5.61787
-5.81536
-5.99001
-6.14348
-6.2772
-6.39252
-6.49065
-6.57276
-6.63998
-6.6934
-6.73405
-6.76299
-6.7812
-6.78967
-6.78932
-6.78104
-6.7657
-6.74409
-6.71699
-6.68511
-6.64912
-6.60964
-6.56724
-6.52244
-6.47573
-6.42753
-6.37823
-6.32818
-6.27769
-6.22703
-6.17645
-6.12615
-6.07631
-6.02708
-5.9786
-5.93097
-5.88429
-5.83861
-5.79399
-5.75048
-5.70811
-5.66688
-5.62681
-5.58789
-5.55012
-5.51348
-5.47795
-5.44351
-5.41013
-5.37778
-5.34643
-5.31604
-5.28657
-5.258
-5.23027
-5.20336
-5.17723
-5.15183
-5.12714
-5.10311
-5.07972
-5.05692
-5.03469
-5.01298
-4.99178
-4.97104
-4.95075
-4.93087
-4.91138
-4.89225
-4.87345
-4.85498
-4.83679
-4.81888
-4.80122
-4.7838
-4.76659
-4.74959
-4.73278
-4.71614
-4.69965
-4.68331
-4.66711
-4.65103
-4.63507
-4.6192
-4.60343
-4.58775
-4.57215
-4.55662
-4.54116
-4.52576
-4.51041
-4.49512
-4.47988
-4.46468
-4.44953
-4.43441
-4.41933
-4.40429
-4.38928
-4.37431
-4.35937
-4.34447
-4.3296
-4.31477
-4.29998
-4.28522
-4.27051
-4.25583
-4.24121
-4.22663
-4.2121
-4.19763
-4.18321
-4.16886
-4.15458
-4.14037
-4.12624
-4.11218
-4.09822
-4.08434
-4.07055
-4.05686
-4.04328
-4.02981
-4.01645
-4.0032
-3.99007
-3.97707
-3.96418
-3.95142
-3.93879
-3.92627
-3.91385
-3.90152
-3.8892
-3.87683
-3.8643
-3.85156
-3.83853
-3.82519
-3.81145
-3.7973
-3.78265
-0.413429
-1.18531
-1.90354
-2.55002
-3.13055
-3.65113
-4.11769
-4.53576
-4.91041
-5.24615
-5.54685
-5.81581
-6.05582
-6.26923
-6.45808
-6.62411
-6.76888
-6.89381
-7.00021
-7.08933
-7.1624
-7.22057
-7.26498
-7.29675
-7.31697
-7.32667
-7.32687
-7.31854
-7.30259
-7.2799
-7.2513
-7.21755
-7.17938
-7.13746
-7.0924
-7.04477
-6.99508
-6.9438
-6.89133
-6.83807
-6.78433
-6.73042
-6.67659
-6.62307
-6.57005
-6.51768
-6.46613
-6.41549
-6.36586
-6.31733
-6.26994
-6.22374
-6.17875
-6.13501
-6.09251
-6.05125
-6.01122
-5.97241
-5.9348
-5.89836
-5.86306
-5.82887
-5.79575
-5.76366
-5.73257
-5.70244
-5.67322
-5.64488
-5.61737
-5.59066
-5.5647
-5.53946
-5.5149
-5.49098
-5.46766
-5.44492
-5.42272
-5.40102
-5.37979
-5.35901
-5.33865
-5.31867
-5.29906
-5.27979
-5.26083
-5.24217
-5.22378
-5.20564
-5.18774
-5.17006
-5.15258
-5.13528
-5.11816
-5.10119
-5.08437
-5.06768
-5.05111
-5.03466
-5.0183
-5.00205
-4.98587
-4.96978
-4.95376
-4.93781
-4.92191
-4.90608
-4.8903
-4.87457
-4.85888
-4.84324
-4.82764
-4.81208
-4.79656
-4.78108
-4.76564
-4.75023
-4.73487
-4.71954
-4.70426
-4.68902
-4.67383
-4.65868
-4.64359
-4.62855
-4.61356
-4.59864
-4.58378
-4.56899
-4.55428
-4.53965
-4.5251
-4.51064
-4.49627
-4.482
-4.46783
-4.45377
-4.43982
-4.42599
-4.41228
-4.3987
-4.38524
-4.37191
-4.35871
-4.34564
-4.3327
-4.31988
-4.30715
-4.29451
-4.28187
-4.26919
-4.25635
-4.24331
-4.22998
-4.21634
-4.2023
-4.18783
-4.17287
-4.15742
-0.443289
-1.2707
-2.04034
-2.73287
-3.35455
-3.91194
-4.41147
-4.85916
-5.26048
-5.62026
-5.94265
-6.23117
-6.48877
-6.71795
-6.92086
-7.09935
-7.25506
-7.3895
-7.50409
-7.60015
-7.67898
-7.74184
-7.78995
-7.8245
-7.84667
-7.85757
-7.85829
-7.84987
-7.83329
-7.80951
-7.77939
-7.74378
-7.70343
-7.65908
-7.61138
-7.56093
-7.50829
-7.45394
-7.39834
-7.34188
-7.28493
-7.2278
-7.17075
-7.11404
-7.05787
-7.00241
-6.94781
-6.89419
-6.84167
-6.79031
-6.74017
-6.69131
-6.64376
-6.59753
-6.55263
-6.50906
-6.46681
-6.42586
-6.38619
-6.34777
-6.31058
-6.27457
-6.2397
-6.20594
-6.17325
-6.14158
-6.11089
-6.08113
-6.05227
-6.02425
-5.99705
-5.97061
-5.9449
-5.91987
-5.89549
-5.87172
-5.84853
-5.82588
-5.80373
-5.78207
-5.76084
-5.74003
-5.71961
-5.69956
-5.67984
-5.66043
-5.64132
-5.62248
-5.60389
-5.58554
-5.5674
-5.54946
-5.5317
-5.51411
-5.49668
-5.47939
-5.46223
-5.44519
-5.42826
-5.41143
-5.39469
-5.37804
-5.36147
-5.34497
-5.32854
-5.31217
-5.29586
-5.2796
-5.26339
-5.24723
-5.23111
-5.21504
-5.19902
-5.18303
-5.16709
-5.15119
-5.13533
-5.11952
-5.10376
-5.08804
-5.07237
-5.05676
-5.0412
-5.0257
-5.01026
-4.9949
-4.9796
-4.96438
-4.94924
-4.93419
-4.91923
-4.90437
-4.8896
-4.87495
-4.8604
-4.84597
-4.83166
-4.81747
-4.80342
-4.7895
-4.77571
-4.76206
-4.74854
-4.73517
-4.72192
-4.70879
-4.69576
-4.6828
-4.66986
-4.65685
-4.6437
-4.63035
-4.61672
-4.60277
-4.58843
-4.57364
-4.55838
-4.54264
-4.52632
-0.472931
-1.3554
-2.17591
-2.9139
-3.57617
-4.16981
-4.7018
-5.17865
-5.60623
-5.98972
-6.33352
-6.64136
-6.91636
-7.16115
-7.37798
-7.5688
-7.73534
-7.8792
-8.00188
-8.10479
-8.18931
-8.25679
-8.30853
-8.34581
-8.36987
-8.38192
-8.38313
-8.37459
-8.35737
-8.33247
-8.30084
-8.26335
-8.22084
-8.17407
-8.12373
-8.07048
-8.0149
-7.95752
-7.89881
-7.83919
-7.77906
-7.71873
-7.65851
-7.59864
-7.53936
-7.48083
-7.42323
-7.36668
-7.31129
-7.25714
-7.2043
-7.15281
-7.10272
-7.05404
-7.00677
-6.96092
-6.91648
-6.87342
-6.83172
-6.79136
-6.75229
-6.71449
-6.6779
-6.6425
-6.60822
-6.57504
-6.54289
-6.51175
-6.48155
-6.45225
-6.42381
-6.39619
-6.36935
-6.34323
-6.3178
-6.29302
-6.26886
-6.24527
-6.22222
-6.19967
-6.1776
-6.15597
-6.13475
-6.11392
-6.09345
-6.07332
-6.05349
-6.03396
-6.01469
-5.99567
-5.97688
-5.9583
-5.93992
-5.92172
-5.90369
-5.8858
-5.86806
-5.85044
-5.83294
-5.81555
-5.79826
-5.78106
-5.76394
-5.7469
-5.72994
-5.71304
-5.6962
-5.67942
-5.6627
-5.64603
-5.6294
-5.61283
-5.5963
-5.57982
-5.56338
-5.54699
-5.53065
-5.51436
-5.49812
-5.48193
-5.46579
-5.44972
-5.4337
-5.41775
-5.40187
-5.38606
-5.37033
-5.35469
-5.33913
-5.32366
-5.3083
-5.29303
-5.27788
-5.26284
-5.24792
-5.23312
-5.21845
-5.20392
-5.18952
-5.17527
-5.16115
-5.14718
-5.13336
-5.11967
-5.10611
-5.09268
-5.07935
-5.06607
-5.05281
-5.03949
-5.02603
-5.01236
-4.99843
-4.98416
-4.96951
-4.95441
-4.93884
-4.92279
-4.90612
-0.502344
-1.43935
-2.31016
-3.09301
-3.79523
-4.42452
-4.98843
-5.49395
-5.94737
-6.3542
-6.71912
-7.04604
-7.33824
-7.59846
-7.82906
-8.03208
-8.20933
-8.36251
-8.49317
-8.60284
-8.69297
-8.76499
-8.82029
-8.86023
-8.88614
-8.8993
-8.90095
-8.89227
-8.87438
-8.84835
-8.81519
-8.77583
-8.73115
-8.68196
-8.62902
-8.57298
-8.51449
-8.4541
-8.3923
-8.32956
-8.26628
-8.2028
-8.13944
-8.07646
-8.0141
-7.95255
-7.89198
-7.83253
-7.77431
-7.71742
-7.66191
-7.60784
-7.55524
-7.50414
-7.45455
-7.40645
-7.35984
-7.31471
-7.27101
-7.22873
-7.18783
-7.14826
-7.10998
-7.07295
-7.03712
-7.00244
-6.96887
-6.93635
-6.90484
-6.87428
-6.84463
-6.81585
-6.78788
-6.76069
-6.73423
-6.70846
-6.68333
-6.65882
-6.63487
-6.61147
-6.58856
-6.56612
-6.54412
-6.52253
-6.50132
-6.48046
-6.45994
-6.43972
-6.41978
-6.40011
-6.38068
-6.36148
-6.34248
-6.32367
-6.30504
-6.28658
-6.26825
-6.25007
-6.23201
-6.21406
-6.19623
-6.17849
-6.16083
-6.14326
-6.12577
-6.10835
-6.09099
-6.0737
-6.05647
-6.03929
-6.02217
-6.00509
-5.98807
-5.9711
-5.95418
-5.9373
-5.92049
-5.90372
-5.88701
-5.87035
-5.85376
-5.83723
-5.82076
-5.80436
-5.78804
-5.7718
-5.75564
-5.73958
-5.7236
-5.70773
-5.69196
-5.67631
-5.66077
-5.64535
-5.63006
-5.6149
-5.59988
-5.585
-5.57026
-5.55568
-5.54124
-5.52695
-5.51281
-5.49882
-5.48496
-5.47122
-5.45758
-5.44399
-5.43042
-5.41678
-5.403
-5.38902
-5.37478
-5.3602
-5.34524
-5.32982
-5.31394
-5.29755
-5.28056
-5.26298
-0.531518
-1.52252
-2.44302
-3.27006
-4.01157
-4.67587
-5.27109
-5.80475
-6.28357
-6.71337
-7.0991
-7.44485
-7.75403
-8.0295
-8.27371
-8.48879
-8.67664
-8.83901
-8.97756
-9.09389
-9.18954
-9.26601
-9.3248
-9.36733
-9.39503
-9.40925
-9.4113
-9.40244
-9.38386
-9.35669
-9.32199
-9.28076
-9.23392
-9.18233
-9.12679
-9.06799
-9.00661
-8.94324
-8.8784
-8.81257
-8.74617
-8.67957
-8.61311
-8.54706
-8.48167
-8.41714
-8.35365
-8.29134
-8.23034
-8.17074
-8.1126
-8.05598
-8.00093
-7.94745
-7.89556
-7.84525
-7.79652
-7.74934
-7.70368
-7.65951
-7.6168
-7.57549
-7.53555
-7.49692
-7.45956
-7.42342
-7.38844
-7.35457
-7.32176
-7.28997
-7.25913
-7.2292
-7.20014
-7.17189
-7.14442
-7.11767
-7.0916
-7.06617
-7.04135
-7.01709
-6.99336
-6.97013
-6.94736
-6.92502
-6.90308
-6.88152
-6.8603
-6.83941
-6.81882
-6.7985
-6.77844
-6.75862
-6.73902
-6.71962
-6.7004
-6.68136
-6.66247
-6.64372
-6.62511
-6.60662
-6.58825
-6.56997
-6.55179
-6.5337
-6.51569
-6.49775
-6.47989
-6.46209
-6.44436
-6.42668
-6.40906
-6.3915
-6.37399
-6.35653
-6.33913
-6.32179
-6.3045
-6.28726
-6.27009
-6.25297
-6.23593
-6.21894
-6.20203
-6.1852
-6.16844
-6.15177
-6.13519
-6.11871
-6.10233
-6.08606
-6.06989
-6.05385
-6.03793
-6.02214
-6.00648
-5.99097
-5.9756
-5.96038
-5.94531
-5.93039
-5.91564
-5.90103
-5.88659
-5.87228
-5.85812
-5.84408
-5.83013
-5.81623
-5.80234
-5.78838
-5.7743
-5.76
-5.74544
-5.73055
-5.71528
-5.69955
-5.68336
-5.66663
-5.64933
-5.63144
-5.61292
-0.560443
-1.60488
-2.57441
-3.44494
-4.22501
-4.92362
-5.54953
-6.11078
-6.61452
-7.0669
-7.47311
-7.83741
-8.16335
-8.45389
-8.71156
-8.93855
-9.13686
-9.3083
-9.45463
-9.57751
-9.67858
-9.75943
-9.82162
-9.86668
-9.89611
-9.91133
-9.91375
-9.90468
-9.88538
-9.85705
-9.82081
-9.7777
-9.72871
-9.67473
-9.6166
-9.55507
-9.49083
-9.42451
-9.35665
-9.28777
-9.2183
-9.14863
-9.07911
-9.01003
-8.94165
-8.87419
-8.80782
-8.7427
-8.67896
-8.61669
-8.55597
-8.49685
-8.43937
-8.38356
-8.32941
-8.27694
-8.22611
-8.17692
-8.12933
-8.08331
-8.03882
-7.99581
-7.95423
-7.91403
-7.87517
-7.83759
-7.80123
-7.76604
-7.73196
-7.69894
-7.66694
-7.63589
-7.60575
-7.57646
-7.54799
-7.52028
-7.49329
-7.46697
-7.44128
-7.41619
-7.39166
-7.36764
-7.34411
-7.32104
-7.29839
-7.27612
-7.25423
-7.23268
-7.21144
-7.19049
-7.16981
-7.14938
-7.12919
-7.1092
-7.08941
-7.0698
-7.05035
-7.03106
-7.0119
-6.99288
-6.97397
-6.95517
-6.93647
-6.91786
-6.89934
-6.8809
-6.86254
-6.84425
-6.82602
-6.80785
-6.78975
-6.7717
-6.75371
-6.73578
-6.71791
-6.7001
-6.68234
-6.66465
-6.64702
-6.62945
-6.61196
-6.59453
-6.57719
-6.55992
-6.54274
-6.52565
-6.50865
-6.49176
-6.47498
-6.45831
-6.44175
-6.42533
-6.40903
-6.39288
-6.37686
-6.36099
-6.34528
-6.32972
-6.31432
-6.29908
-6.28401
-6.2691
-6.25434
-6.23974
-6.22527
-6.21092
-6.19667
-6.18246
-6.16826
-6.15399
-6.13958
-6.12498
-6.11011
-6.0949
-6.07931
-6.06327
-6.04676
-6.02971
-6.01209
-5.99386
-5.97499
-5.95544
-0.589113
-1.68639
-2.70425
-3.6175
-4.43537
-5.16754
-5.82347
-6.41173
-6.93989
-7.41445
-7.8408
-8.22338
-8.56585
-8.87126
-9.14221
-9.38097
-9.58959
-9.76999
-9.92397
-10.0533
-10.1597
-10.2448
-10.3103
-10.3578
-10.3889
-10.4051
-10.4078
-10.3985
-10.3785
-10.349
-10.3112
-10.2662
-10.2151
-10.1587
-10.098
-10.0338
-9.96671
-9.89747
-9.82664
-9.75474
-9.68224
-9.60954
-9.53701
-9.46495
-9.39363
-9.32327
-9.25408
-9.1862
-9.11976
-9.05488
-8.99162
-8.93004
-8.87018
-8.81207
-8.75572
-8.70111
-8.64823
-8.59707
-8.54759
-8.49975
-8.45352
-8.40883
-8.36565
-8.32391
-8.28358
-8.24458
-8.20687
-8.17038
-8.13506
-8.10085
-8.06769
-8.03554
-8.00434
-7.97404
-7.94459
-7.91594
-7.88804
-7.86084
-7.83431
-7.8084
-7.78308
-7.7583
-7.73402
-7.71023
-7.68687
-7.66393
-7.64137
-7.61916
-7.59729
-7.57572
-7.55444
-7.53341
-7.51263
-7.49207
-7.47172
-7.45155
-7.43156
-7.41172
-7.39203
-7.37248
-7.35305
-7.33374
-7.31453
-7.29542
-7.27639
-7.25746
-7.2386
-7.21982
-7.20111
-7.18246
-7.16388
-7.14536
-7.1269
-7.1085
-7.09017
-7.07189
-7.05368
-7.03554
-7.01746
-6.99945
-6.98152
-6.96366
-6.94588
-6.92819
-6.91059
-6.89308
-6.87568
-6.85838
-6.8412
-6.82414
-6.80721
-6.79041
-6.77374
-6.75723
-6.74086
-6.72464
-6.70859
-6.6927
-6.67697
-6.66142
-6.64603
-6.63081
-6.61575
-6.60084
-6.58607
-6.57142
-6.55686
-6.54235
-6.52784
-6.51325
-6.49854
-6.48362
-6.46844
-6.45292
-6.43702
-6.42067
-6.40384
-6.38646
-6.36851
-6.34994
-6.33072
-6.31077
-0.61752
-1.76702
-2.83246
-3.78763
-4.64245
-5.40741
-6.09263
-6.70728
-7.25936
-7.75566
-8.20181
-8.60239
-8.96116
-9.28123
-9.56528
-9.81564
-10.0344
-10.2236
-10.3852
-10.5208
-10.6324
-10.7217
-10.7905
-10.8404
-10.873
-10.8901
-10.8931
-10.8835
-10.8627
-10.832
-10.7927
-10.7458
-10.6925
-10.6338
-10.5706
-10.5037
-10.4338
-10.3617
-10.2879
-10.213
-10.1376
-10.0619
-9.98638
-9.91139
-9.83718
-9.76399
-9.69201
-9.62142
-9.55234
-9.48489
-9.41914
-9.35515
-9.29296
-9.2326
-9.17408
-9.11738
-9.06249
-9.0094
-8.95806
-8.90845
-8.8605
-8.81418
-8.76942
-8.72618
-8.6844
-8.64403
-8.60498
-8.56722
-8.53068
-8.4953
-8.46102
-8.4278
-8.39556
-8.36426
-8.33385
-8.30428
-8.27549
-8.24743
-8.22007
-8.19336
-8.16726
-8.14173
-8.11673
-8.09223
-8.06818
-8.04457
-8.02136
-7.99852
-7.97603
-7.95385
-7.93197
-7.91036
-7.88901
-7.86788
-7.84698
-7.82626
-7.80573