/*--------------------------------*- C++ -*----------------------------------*\
| =========                 |                                                 |
| \\      /  F ield         | OpenFOAM: The Open Source CFD Toolbox           |
|  \\    /   O peration     | Version:  2512                                  |
|   \\  /    A nd           | Website:  www.openfoam.com                      |
|    \\/     M anipulation  |                                                 |
\*---------------------------------------------------------------------------*/
FoamFile
{
    version     2.0;
    format      ascii;
    arch        "LSB;label=32;scalar=64";
    class       surfaceScalarField;
    location    "0.1";
    object      phi;
}
// * * * * * * * * * * * * * * * * * * * * * * * * * * * * * * * * * * * * * //

dimensions      [1 0 -1 0 0 0 0];

oriented        oriented;

internalField   nonuniform List<scalar> 
16431
(
0.00248907
6.51014e-07
0.00249029
7.14595e-07
0.00249216
9.15539e-07
0.00249511
8.84741e-07
0.00249922
6.12246e-07
0.00250411
2.994e-07
0.0025093
8.92364e-08
0.00251442
5.79717e-09
0.00251927
4.25074e-09
0.00252374
3.70409e-08
0.00252782
6.67844e-08
0.00253151
1.03431e-07
0.00253482
1.05428e-07
0.00253778
1.51517e-07
0.00254041
1.07917e-07
0.00254277
1.71806e-07
1.36553e-07
0.00248909
3.34703e-07
0.00249033
-5.03694e-08
0.00249226
-5.26866e-07
0.00249524
-1.62088e-06
0.00249933
-2.99935e-06
0.00250418
-4.06627e-06
0.00250932
-4.57493e-06
0.00251441
-4.60355e-06
0.00251924
-4.34307e-06
0.0025237
-3.95197e-06
0.00252778
-3.53134e-06
0.00253147
-3.10683e-06
0.00253478
-2.72415e-06
0.00253775
-2.34069e-06
0.00254037
-2.02889e-06
0.00254274
-1.71969e-06
0.00254476
-1.45868e-06
0.00254663
-1.10596e-06
0.00254832
-9.26234e-07
0.0025498
-7.31558e-07
0.00255111
-5.91437e-07
0.0025523
-4.67255e-07
0.00255338
-3.5186e-07
0.00255436
-2.55456e-07
0.00255525
-1.70835e-07
0.00255607
-9.83756e-08
0.00255684
-3.71956e-08
0.00255756
1.3386e-08
0.00255823
5.69465e-08
0.00255887
9.45108e-08
0.00255948
1.27416e-07
0.00256007
1.52211e-07
0.00256064
1.72736e-07
0.00256118
1.919e-07
0.00256172
2.07719e-07
0.00256224
2.20919e-07
0.00256275
2.31904e-07
0.00256326
2.41333e-07
0.00256375
2.49172e-07
0.00256424
2.55851e-07
0.00256473
2.61299e-07
0.00256521
2.66016e-07
0.00256568
2.69913e-07
0.00256616
2.73201e-07
0.00256663
2.75989e-07
0.00256709
2.78236e-07
0.00256756
2.80173e-07
0.00256803
2.8175e-07
0.00256849
2.83036e-07
0.00256895
2.84087e-07
0.00256941
2.84967e-07
0.00256987
2.85654e-07
0.00257033
2.86181e-07
0.00257079
2.86593e-07
0.00257125
2.86892e-07
0.00257171
2.87089e-07
0.00257216
2.87207e-07
0.00257262
2.8726e-07
0.00257307
2.87253e-07
0.00257353
2.87194e-07
0.00257398
2.87091e-07
0.00257444
2.86948e-07
0.00257489
2.86769e-07
0.00257534
2.86559e-07
0.0025758
2.8632e-07
0.00257625
2.86056e-07
0.0025767
2.85771e-07
0.00257715
2.85467e-07
0.0025776
2.85143e-07
0.00257805
2.84801e-07
0.00257851
2.84447e-07
0.00257896
2.84081e-07
0.00257941
2.83706e-07
0.00257985
2.83319e-07
0.0025803
2.82923e-07
0.00258075
2.82519e-07
0.0025812
2.82107e-07
0.00258165
2.81682e-07
0.00258209
2.81251e-07
0.00258254
2.80815e-07
0.00258299
2.80374e-07
0.00258343
2.79927e-07
0.00258388
2.79473e-07
0.00258432
2.79017e-07
0.00258477
2.78555e-07
0.00258521
2.78091e-07
0.00258566
2.77629e-07
0.0025861
2.77164e-07
0.00258654
2.76698e-07
0.00258698
2.76232e-07
0.00258743
2.75767e-07
0.00258787
2.75302e-07
0.00258831
2.74839e-07
0.00258875
2.74378e-07
0.00258919
2.7392e-07
0.00258963
2.73465e-07
0.00259007
2.73015e-07
0.0025905
2.72572e-07
0.00259094
2.72134e-07
0.00259138
2.71704e-07
0.00259182
2.71286e-07
0.00259225
2.7088e-07
0.00259269
2.70487e-07
0.00259312
2.7011e-07
0.00259356
2.6975e-07
0.00259399
2.69408e-07
0.00259443
2.69088e-07
0.00259486
2.68791e-07
0.00259529
2.6852e-07
0.00259572
2.68279e-07
0.00259615
2.68068e-07
0.00259659
2.67892e-07
0.00259702
2.67755e-07
0.00259744
2.67659e-07
0.00259787
2.67609e-07
0.0025983
2.67605e-07
0.00259873
2.67654e-07
0.00259916
2.6776e-07
0.00259958
2.67928e-07
0.00260001
2.68164e-07
0.00260043
2.68476e-07
0.00260086
2.68872e-07
0.00260128
2.69362e-07
0.00260171
2.6995e-07
0.00260213
2.70643e-07
0.00260255
2.71448e-07
0.00260297
2.72381e-07
0.00260339
2.73428e-07
0.00260381
2.74594e-07
0.00260423
2.75884e-07
0.00260465
2.77302e-07
0.00260507
2.78851e-07
0.00260548
2.80532e-07
0.0026059
2.8234e-07
0.00260632
2.84246e-07
0.00260673
2.86236e-07
0.00260715
2.88233e-07
0.00260756
2.9026e-07
0.00260797
2.92039e-07
0.00260838
2.93985e-07
0.00260879
2.94679e-07
0.0026092
2.96765e-07
0.00260961
2.93535e-07
0.00261001
2.97894e-07
0.00261041
2.8214e-07
0.00261082
2.96141e-07
0.0026112
2.49587e-07
0.00261158
2.83335e-07
1.72594e-07
0.00248909
9.256e-09
0.00249038
-8.54832e-07
0.00249236
-2.02698e-06
0.00249539
-4.17074e-06
0.00249948
-6.61214e-06
0.0025043
-8.40152e-06
0.0025094
-9.20039e-06
0.00251446
-9.18164e-06
0.00251927
-8.67083e-06
0.00252373
-7.93084e-06
0.0025278
-7.12423e-06
0.00253149
-6.3144e-06
0.00253479
-5.55179e-06
0.00253776
-4.82969e-06
0.00254039
-4.17518e-06
0.00254274
-3.59558e-06
0.00254479
-3.03375e-06
0.00254666
-2.49681e-06
0.00254833
-2.10781e-06
0.0025498
-1.73268e-06
0.00255112
-1.42986e-06
0.00255231
-1.17509e-06
0.00255338
-9.48366e-07
0.00255436
-7.53752e-07
0.00255525
-5.87084e-07
0.00255608
-4.45544e-07
0.00255685
-3.26049e-07
0.00255756
-2.25726e-07
0.00255824
-1.40406e-07
0.00255888
-6.82166e-08
0.00255949
-4.98165e-09
0.00256007
4.36207e-08
0.00256064
8.38717e-08
0.00256119
1.20875e-07
0.00256172
1.51146e-07
0.00256224
1.76134e-07
0.00256275
1.97122e-07
0.00256325
2.14733e-07
0.00256375
2.29581e-07
0.00256424
2.41927e-07
0.00256472
2.52478e-07
0.0025652
2.61165e-07
0.00256568
2.68486e-07
0.00256615
2.74645e-07
0.00256662
2.79766e-07
0.00256709
2.84098e-07
0.00256756
2.87763e-07
0.00256802
2.90725e-07
0.00256849
2.93161e-07
0.00256895
2.95224e-07
0.00256941
2.96949e-07
0.00256987
2.98339e-07
0.00257033
2.99454e-07
0.00257079
3.00371e-07
0.00257125
3.01089e-07
0.0025717
3.01638e-07
0.00257216
3.02054e-07
0.00257262
3.0236e-07
0.00257307
3.02567e-07
0.00257353
3.02693e-07
0.00257398
3.02748e-07
0.00257444
3.0274e-07
0.00257489
3.02678e-07
0.00257534
3.02567e-07
0.0025758
3.02415e-07
0.00257625
3.02226e-07
0.0025767
3.02006e-07
0.00257715
3.01759e-07
0.0025776
3.01485e-07
0.00257805
3.0119e-07
0.0025785
3.00877e-07
0.00257895
3.00548e-07
0.0025794
3.00206e-07
0.00257985
2.99851e-07
0.0025803
2.99482e-07
0.00258075
2.99101e-07
0.0025812
2.98711e-07
0.00258165
2.9831e-07
0.00258209
2.97902e-07
0.00258254
2.97487e-07
0.00258299
2.97063e-07
0.00258343
2.96634e-07
0.00258388
2.96197e-07
0.00258432
2.95757e-07
0.00258477
2.95314e-07
0.00258521
2.94867e-07
0.00258566
2.94419e-07
0.0025861
2.93969e-07
0.00258654
2.93517e-07
0.00258698
2.93065e-07
0.00258743
2.92614e-07
0.00258787
2.92165e-07
0.00258831
2.91716e-07
0.00258875
2.91268e-07
0.00258919
2.90822e-07
0.00258963
2.90381e-07
0.00259007
2.89946e-07
0.0025905
2.89517e-07
0.00259094
2.89094e-07
0.00259138
2.88679e-07
0.00259182
2.88272e-07
0.00259225
2.87878e-07
0.00259269
2.875e-07
0.00259312
2.87137e-07
0.00259356
2.86792e-07
0.00259399
2.86465e-07
0.00259443
2.86161e-07
0.00259486
2.85879e-07
0.00259529
2.85623e-07
0.00259572
2.85395e-07
0.00259615
2.852e-07
0.00259658
2.85041e-07
0.00259702
2.84919e-07
0.00259744
2.84838e-07
0.00259787
2.84805e-07
0.0025983
2.84819e-07
0.00259873
2.84887e-07
0.00259916
2.85011e-07
0.00259958
2.85197e-07
0.00260001
2.85454e-07
0.00260043
2.85788e-07
0.00260086
2.86206e-07
0.00260128
2.8672e-07
0.00260171
2.87333e-07
0.00260213
2.88053e-07
0.00260255
2.88887e-07
0.00260297
2.89841e-07
0.00260339
2.90913e-07
0.00260381
2.92112e-07
0.00260423
2.9344e-07
0.00260465
2.94902e-07
0.00260507
2.96503e-07
0.00260548
2.98245e-07
0.0026059
3.00121e-07
0.00260632
3.02119e-07
0.00260673
3.04212e-07
0.00260715
3.06368e-07
0.00260756
3.08534e-07
0.00260797
3.10679e-07
0.00260838
3.12637e-07
0.00260879
3.14537e-07
0.0026092
3.15517e-07
0.00260961
3.17144e-07
0.00261002
3.14796e-07
0.00261041
3.17938e-07
0.00261082
3.03938e-07
0.00261118
3.17347e-07
0.00261161
2.77983e-07
3.82937e-07
0.0024891
-3.17648e-07
0.00249041
-1.6836e-06
0.00249244
-3.58287e-06
0.00249552
-6.77253e-06
0.00249964
-1.02478e-05
0.00250445
-1.27317e-05
0.00250954
-1.3808e-05
0.00251458
-1.37418e-05
0.00251937
-1.29852e-05
0.00252382
-1.19009e-05
0.00252789
-1.07105e-05
0.00253157
-9.51626e-06
0.00253487
-8.37505e-06
0.00253783
-7.30948e-06
0.00254045
-6.32066e-06
0.00254279
-5.45183e-06
0.00254485
-4.62172e-06
0.00254671
-3.87268e-06
0.00254836
-3.27774e-06
0.00254983
-2.7288e-06
0.00255115
-2.26477e-06
0.00255233
-1.87747e-06
0.0025534
-1.54006e-06
0.00255437
-1.24877e-06
0.00255526
-1.00045e-06
0.00255608
-7.901e-07
0.00255685
-6.12362e-07
0.00255756
-4.62637e-07
0.00255824
-3.36098e-07
0.00255888
-2.29165e-07
0.00255949
-1.38241e-07
0.00256007
-6.48662e-08
0.00256064
-5.29294e-09
0.00256119
4.94914e-08
0.00256172
9.4074e-08
0.00256224
1.30995e-07
0.00256275
1.62044e-07
0.00256325
1.88115e-07
0.00256375
2.09958e-07
0.00256424
2.28424e-07
0.00256472
2.43587e-07
0.0025652
2.56479e-07
0.00256568
2.67192e-07
0.00256615
2.76198e-07
0.00256662
2.83781e-07
0.00256709
2.9002e-07
0.00256756
2.95348e-07
0.00256802
2.99692e-07
0.00256849
3.03336e-07
0.00256895
3.06368e-07
0.00256941
3.08963e-07
0.00256987
3.11035e-07
0.00257033
3.12713e-07
0.00257079
3.1412e-07
0.00257125
3.15268e-07
0.0025717
3.16166e-07
0.00257216
3.16877e-07
0.00257262
3.17435e-07
0.00257307
3.17854e-07
0.00257353
3.18168e-07
0.00257398
3.1838e-07
0.00257444
3.18507e-07
0.00257489
3.18561e-07
0.00257534
3.18549e-07
0.0025758
3.18484e-07
0.00257625
3.18372e-07
0.0025767
3.18218e-07
0.00257715
3.18029e-07
0.0025776
3.17809e-07
0.00257805
3.1756e-07
0.0025785
3.17288e-07
0.00257895
3.16996e-07
0.0025794
3.16687e-07
0.00257985
3.16362e-07
0.0025803
3.16023e-07
0.00258075
3.15669e-07
0.0025812
3.15304e-07
0.00258165
3.14927e-07
0.00258209
3.14538e-07
0.00258254
3.14142e-07
0.00258299
3.13738e-07
0.00258343
3.13328e-07
0.00258388
3.12909e-07
0.00258432
3.12486e-07
0.00258477
3.12056e-07
0.00258521
3.11623e-07
0.00258566
3.11193e-07
0.0025861
3.1076e-07
0.00258654
3.10323e-07
0.00258698
3.09887e-07
0.00258743
3.09448e-07
0.00258787
3.09012e-07
0.00258831
3.08579e-07
0.00258875
3.08145e-07
0.00258919
3.07713e-07
0.00258963
3.07287e-07
0.00259007
3.06865e-07
0.0025905
3.0645e-07
0.00259094
3.06039e-07
0.00259138
3.05637e-07
0.00259182
3.05247e-07
0.00259225
3.0487e-07
0.00259269
3.04505e-07
0.00259312
3.04156e-07
0.00259356
3.03825e-07
0.00259399
3.03512e-07
0.00259443
3.0322e-07
0.00259486
3.02954e-07
0.00259529
3.02712e-07
0.00259572
3.025e-07
0.00259615
3.0232e-07
0.00259658
3.02175e-07
0.00259701
3.02069e-07
0.00259744
3.02005e-07
0.00259787
3.01986e-07
0.0025983
3.02017e-07
0.00259873
3.02102e-07
0.00259916
3.02244e-07
0.00259958
3.0245e-07
0.00260001
3.02727e-07
0.00260043
3.03081e-07
0.00260086
3.03521e-07
0.00260128
3.04056e-07
0.00260171
3.04691e-07
0.00260213
3.05433e-07
0.00260255
3.06291e-07
0.00260297
3.07273e-07
0.00260339
3.08377e-07
0.00260381
3.0961e-07
0.00260423
3.10978e-07
0.00260465
3.12486e-07
0.00260507
3.1414e-07
0.00260549
3.15943e-07
0.0026059
3.17891e-07
0.00260632
3.19979e-07
0.00260673
3.22175e-07
0.00260715
3.24494e-07
0.00260756
3.26808e-07
0.00260797
3.29318e-07
0.00260838
3.31342e-07
0.00260879
3.34374e-07
0.0026092
3.34477e-07
0.00260961
3.40434e-07
0.00261002
3.32349e-07
0.00261041
3.52028e-07
0.00261082
3.16499e-07
0.00261119
3.77138e-07
0.0026116
2.91428e-07
0.00261191
4.51767e-07
7.6683e-07
0.0024891
-6.50557e-07
0.00249043
-2.53253e-06
0.00249252
-5.18566e-06
0.00249565
-9.42638e-06
0.0024998
-1.39186e-05
0.00250462
-1.70759e-05
0.00250971
-1.84157e-05
0.00251475
-1.82965e-05
0.00251953
-1.72929e-05
0.00252398
-1.58641e-05
0.00252803
-1.42895e-05
0.00253171
-1.27091e-05
0.002535
-1.11896e-05
0.00253794
-9.7757e-06
0.00254056
-8.4584e-06
0.00254288
-7.29355e-06
0.00254495
-6.20708e-06
0.00254679
-5.23491e-06
0.00254842
-4.43447e-06
0.00254989
-3.71474e-06
0.0025512
-3.09357e-06
0.00255237
-2.57257e-06
0.00255343
-2.12445e-06
0.0025544
-1.73829e-06
0.00255529
-1.40937e-06
0.00255611
-1.131e-06
0.00255687
-8.9584e-07
0.00255758
-6.97607e-07
0.00255825
-5.30387e-07
0.00255889
-3.89435e-07
0.0025595
-2.70458e-07
0.00256008
-1.72716e-07
0.00256065
-9.15476e-08
0.00256119
-1.96883e-08
0.00256172
3.89259e-08
0.00256224
8.74007e-08
0.00256275
1.28054e-07
0.00256326
1.62335e-07
0.00256375
1.90958e-07
0.00256424
2.14986e-07
0.00256472
2.35135e-07
0.0025652
2.51948e-07
0.00256568
2.66089e-07
0.00256615
2.77926e-07
0.00256662
2.87717e-07
0.00256709
2.95995e-07
0.00256756
3.03095e-07
0.00256802
3.08798e-07
0.00256849
3.13514e-07
0.00256895
3.17554e-07
0.00256941
3.20958e-07
0.00256987
3.23726e-07
0.00257033
3.25979e-07
0.00257079
3.27904e-07
0.00257125
3.29452e-07
0.0025717
3.30691e-07
0.00257216
3.31696e-07
0.00257262
3.32507e-07
0.00257307
3.33142e-07
0.00257353
3.33635e-07
0.00257398
3.34005e-07
0.00257443
3.34267e-07
0.00257489
3.34437e-07
0.00257534
3.34526e-07
0.00257579
3.34547e-07
0.00257625
3.34511e-07
0.0025767
3.34423e-07
0.00257715
3.34292e-07
0.0025776
3.34123e-07
0.00257805
3.33922e-07
0.0025785
3.33692e-07
0.00257895
3.33438e-07
0.0025794
3.33162e-07
0.00257985
3.32869e-07
0.0025803
3.32557e-07
0.00258075
3.32228e-07
0.0025812
3.31887e-07
0.00258165
3.31532e-07
0.00258209
3.31166e-07
0.00258254
3.30792e-07
0.00258299
3.30407e-07
0.00258343
3.30014e-07
0.00258388
3.29613e-07
0.00258432
3.29206e-07
0.00258477
3.28794e-07
0.00258521
3.2838e-07
0.00258565
3.27964e-07
0.0025861
3.27545e-07
0.00258654
3.27122e-07
0.00258698
3.26701e-07
0.00258743
3.26279e-07
0.00258787
3.25856e-07
0.00258831
3.25436e-07
0.00258875
3.25016e-07
0.00258919
3.24598e-07
0.00258963
3.24185e-07
0.00259007
3.23778e-07
0.0025905
3.23377e-07
0.00259094
3.22983e-07
0.00259138
3.22598e-07
0.00259182
3.22216e-07
0.00259225
3.21849e-07
0.00259269
3.21499e-07
0.00259312
3.21164e-07
0.00259356
3.20847e-07
0.00259399
3.20549e-07
0.00259443
3.20273e-07
0.00259486
3.20021e-07
0.00259529
3.19795e-07
0.00259572
3.19596e-07
0.00259615
3.19431e-07
0.00259658
3.19302e-07
0.00259701
3.1921e-07
0.00259744
3.19161e-07
0.00259787
3.1916e-07
0.0025983
3.19207e-07
0.00259873
3.19308e-07
0.00259916
3.19467e-07
0.00259958
3.19692e-07
0.00260001
3.19987e-07
0.00260043
3.20361e-07
0.00260086
3.20821e-07
0.00260128
3.21376e-07
0.00260171
3.22035e-07
0.00260213
3.228e-07
0.00260255
3.23682e-07
0.00260297
3.2469e-07
0.00260339
3.25821e-07
0.00260381
3.27086e-07
0.00260423
3.28492e-07
0.00260465
3.30045e-07
0.00260507
3.3175e-07
0.00260549
3.33614e-07
0.0026059
3.35635e-07
0.00260632
3.37818e-07
0.00260673
3.40125e-07
0.00260715
3.42609e-07
0.00260756
3.45079e-07
0.00260797
3.47952e-07
0.00260838
3.5007e-07
0.00260879
3.54199e-07
0.0026092
3.53686e-07
0.00260961
3.63179e-07
0.00261001
3.5202e-07
0.00261041
3.80906e-07
0.00261081
3.39055e-07
0.0026112
4.16033e-07
0.00261157
3.41406e-07
0.00261196
4.91289e-07
0.0026124
7.07931e-07
7.43129e-07
0.00248911
-9.90127e-07
0.00249046
-3.40096e-06
0.00249258
-6.83042e-06
0.00249577
-1.21326e-05
0.00249997
-1.7634e-05
0.00250482
-2.14489e-05
0.00250992
-2.30383e-05
0.00251496
-2.28568e-05
0.00251975
-2.16005e-05
0.00252418
-1.98231e-05
0.00252824
-1.7861e-05
0.0025319
-1.58909e-05
0.00253518
-1.39922e-05
0.00253811
-1.22256e-05
0.00254071
-1.05828e-05
0.00254302
-9.11974e-06
0.00254507
-7.77901e-06
0.00254689
-6.58277e-06
0.00254851
-5.57623e-06
0.00254996
-4.68587e-06
0.00255126
-3.91168e-06
0.00255243
-3.25822e-06
0.00255348
-2.70001e-06
0.00255444
-2.22045e-06
0.00255532
-1.81206e-06
0.00255613
-1.46649e-06
0.00255689
-1.17461e-06
0.0025576
-9.28474e-07
0.00255827
-7.21019e-07
0.0025589
-5.46338e-07
0.00255951
-3.99461e-07
0.00256009
-2.77483e-07
0.00256065
-1.75842e-07
0.0025612
-8.83826e-08
0.00256173
-1.68688e-08
0.00256225
4.37252e-08
0.00256276
9.44369e-08
0.00256326
1.3681e-07
0.00256375
1.72447e-07
0.00256424
2.02258e-07
0.00256473
2.27158e-07
0.00256521
2.47836e-07
0.00256568
2.65259e-07
0.00256615
2.79933e-07
0.00256662
2.91974e-07
0.00256709
3.02233e-07
0.00256756
3.11029e-07
0.00256802
3.17931e-07
0.00256849
3.23827e-07
0.00256895
3.28765e-07
0.00256941
3.33128e-07
0.00256987
3.36515e-07
0.00257033
3.39298e-07
0.00257079
3.41705e-07
0.00257125
3.43683e-07
0.0025717
3.45253e-07
0.00257216
3.46544e-07
0.00257262
3.47601e-07
0.00257307
3.48426e-07
0.00257353
3.49117e-07
0.00257398
3.49642e-07
0.00257443
3.50038e-07
0.00257489
3.50321e-07
0.00257534
3.50508e-07
0.00257579
3.50615e-07
0.00257625
3.50653e-07
0.0025767
3.50631e-07
0.00257715
3.50559e-07
0.0025776
3.50442e-07
0.00257805
3.50285e-07
0.0025785
3.50096e-07
0.00257895
3.49878e-07
0.0025794
3.49637e-07
0.00257985
3.49373e-07
0.0025803
3.4909e-07
0.00258075
3.48788e-07
0.0025812
3.48472e-07
0.00258165
3.48141e-07
0.00258209
3.47795e-07
0.00258254
3.47437e-07
0.00258299
3.47073e-07
0.00258343
3.467e-07
0.00258388
3.46316e-07
0.00258432
3.45925e-07
0.00258477
3.45526e-07
0.00258521
3.45124e-07
0.00258565
3.44731e-07
0.0025861
3.44328e-07
0.00258654
3.4392e-07
0.00258698
3.43513e-07
0.00258742
3.43105e-07
0.00258787
3.42697e-07
0.00258831
3.4229e-07
0.00258875
3.41884e-07
0.00258919
3.41481e-07
0.00258963
3.41082e-07
0.00259007
3.40687e-07
0.0025905
3.403e-07
0.00259094
3.39918e-07
0.00259138
3.39543e-07
0.00259182
3.3918e-07
0.00259225
3.3883e-07
0.00259269
3.38493e-07
0.00259312
3.38172e-07
0.00259356
3.37869e-07
0.00259399
3.37584e-07
0.00259443
3.37321e-07
0.00259486
3.37084e-07
0.00259529
3.3687e-07
0.00259572
3.36686e-07
0.00259615
3.36535e-07
0.00259658
3.36419e-07
0.00259701
3.36343e-07
0.00259744
3.36308e-07
0.00259787
3.36323e-07
0.0025983
3.36385e-07
0.00259873
3.36501e-07
0.00259916
3.36678e-07
0.00259958
3.36919e-07
0.00260001
3.37234e-07
0.00260043
3.37626e-07
0.00260086
3.38106e-07
0.00260128
3.38682e-07
0.00260171
3.3936e-07
0.00260213
3.40146e-07
0.00260255
3.41052e-07
0.00260297
3.42084e-07
0.00260339
3.43244e-07
0.00260381
3.44541e-07
0.00260423
3.45984e-07
0.00260465
3.47581e-07
0.00260507
3.49337e-07
0.00260549
3.51263e-07
0.0026059
3.53358e-07
0.00260632
3.55635e-07
0.00260673
3.58055e-07
0.00260715
3.60701e-07
0.00260756
3.63348e-07
0.00260797
3.66544e-07
0.00260838
3.68894e-07
0.00260879
3.73773e-07
0.0026092
3.73416e-07
0.00260961
3.84816e-07
0.00261001
3.73179e-07
0.00261041
4.07168e-07
0.00261081
3.65154e-07
0.00261121
4.47137e-07
0.00261158
3.88205e-07
0.00261196
5.35863e-07
0.00261242
6.72409e-07
0.00261279
7.54803e-07
6.22909e-07
0.00248912
-1.33706e-06
0.00249049
-4.28982e-06
0.00249265
-8.51576e-06
0.00249589
-1.48927e-05
0.00250014
-2.14016e-05
0.00250503
-2.58626e-05
0.00251016
-2.76878e-05
0.00251522
-2.74321e-05
0.00252001
-2.59137e-05
0.00252445
-2.37801e-05
0.00252849
-2.1425e-05
0.00253214
-1.90596e-05
0.0025354
-1.67794e-05
0.00253831
-1.46562e-05
0.0025409
-1.26889e-05
0.00254319
-1.09273e-05
0.00254522
-9.33252e-06
0.00254703
-7.91171e-06
0.00254863
-6.70018e-06
0.00255006
-5.63984e-06
0.00255134
-4.71644e-06
0.0025525
-3.93252e-06
0.00255354
-3.26504e-06
0.00255449
-2.69343e-06
0.00255536
-2.20686e-06
0.00255617
-1.79519e-06
0.00255692
-1.44759e-06
0.00255763
-1.15452e-06
0.00255829
-9.07701e-07
0.00255892
-7.00121e-07
0.00255952
-5.25859e-07
0.0025601
-3.8053e-07
0.00256066
-2.58913e-07
0.00256121
-1.55588e-07
0.00256174
-7.02423e-08
0.00256226
3.1951e-09
0.00256276
6.22462e-08
0.00256326
1.12603e-07
0.00256376
1.54702e-07
0.00256425
1.90121e-07
0.00256473
2.19451e-07
0.00256521
2.44101e-07
0.00256568
2.64965e-07
0.00256616
2.82033e-07
0.00256663
2.96572e-07
0.00256709
3.08592e-07
0.00256756
3.19119e-07
0.00256802
3.27148e-07
0.00256849
3.34283e-07
0.00256895
3.40231e-07
0.00256941
3.45305e-07
0.00256987
3.49399e-07
0.00257033
3.52642e-07
0.00257079
3.55541e-07
0.00257125
3.57944e-07
0.0025717
3.59839e-07
0.00257216
3.61417e-07
0.00257262
3.62724e-07
0.00257307
3.63768e-07
0.00257353
3.64619e-07
0.00257398
3.65298e-07
0.00257443
3.65822e-07
0.00257489
3.66219e-07
0.00257534
3.66502e-07
0.00257579
3.66692e-07
0.00257625
3.66804e-07
0.0025767
3.66846e-07
0.00257715
3.6683e-07
0.0025776
3.66764e-07
0.00257805
3.66654e-07
0.0025785
3.66505e-07
0.00257895
3.66325e-07
0.0025794
3.66116e-07
0.00257985
3.65882e-07
0.0025803
3.65627e-07
0.00258075
3.65349e-07
0.0025812
3.65056e-07
0.00258165
3.64747e-07
0.00258209
3.64423e-07
0.00258254
3.64088e-07
0.00258299
3.63742e-07
0.00258343
3.63386e-07
0.00258388
3.6302e-07
0.00258432
3.62646e-07
0.00258477
3.62264e-07
0.00258521
3.61882e-07
0.00258565
3.61498e-07
0.0025861
3.61109e-07
0.00258654
3.60717e-07
0.00258698
3.60324e-07
0.00258742
3.59929e-07
0.00258787
3.59537e-07
0.00258831
3.59145e-07
0.00258875
3.58752e-07
0.00258919
3.5836e-07
0.00258963
3.57975e-07
0.00259007
3.57596e-07
0.0025905
3.57221e-07
0.00259094
3.56852e-07
0.00259138
3.56493e-07
0.00259182
3.56142e-07
0.00259225
3.55805e-07
0.00259269
3.55481e-07
0.00259312
3.55173e-07
0.00259356
3.54883e-07
0.00259399
3.54612e-07
0.00259443
3.54364e-07
0.00259486
3.54139e-07
0.00259529
3.53942e-07
0.00259572
3.5377e-07
0.00259615
3.53634e-07
0.00259658
3.53536e-07
0.00259701
3.5347e-07
0.00259744
3.53449e-07
0.00259787
3.53478e-07
0.0025983
3.53555e-07
0.00259873
3.53687e-07
0.00259916
3.5388e-07
0.00259958
3.54138e-07
0.00260001
3.54469e-07
0.00260043
3.54877e-07
0.00260086
3.55375e-07
0.00260128
3.55971e-07
0.00260171
3.56669e-07
0.00260213
3.57476e-07
0.00260255
3.58405e-07
0.00260297
3.59461e-07
0.00260339
3.60646e-07
0.00260381
3.61975e-07
0.00260423
3.63454e-07
0.00260465
3.65093e-07
0.00260507
3.669e-07
0.00260549
3.68885e-07
0.0026059
3.71054e-07
0.00260632
3.73425e-07
0.00260673
3.75962e-07
0.00260715
3.78767e-07
0.00260756
3.81599e-07
0.00260797
3.85094e-07
0.00260838
3.87723e-07
0.00260879
3.93221e-07
0.0026092
3.93245e-07
0.00260961
4.05957e-07
0.00261001
3.95519e-07
0.00261042
4.30137e-07
0.00261081
3.95987e-07
0.00261121
4.70986e-07
0.00261159
4.38856e-07
0.00261199
5.54799e-07
0.00261241
6.73725e-07
0.00261286
7.29603e-07
7.39723e-07
0.00248912
-1.69223e-06
0.00249052
-5.20087e-06
0.00249272
-1.02424e-05
0.00249602
-1.77096e-05
0.00250033
-2.52291e-05
0.00250527
-3.03276e-05
0.00251044
-3.23749e-05
0.00251552
-3.20308e-05
0.00252032
-3.02379e-05
0.00252476
-2.77374e-05
0.00252879
-2.4981e-05
0.00253243
-2.22135e-05
0.00253567
-1.95477e-05
0.00253856
-1.70643e-05
0.00254112
-1.47717e-05
0.00254339
-1.27124e-05
0.0025454
-1.08625e-05
0.00254718
-9.21802e-06
0.00254876
-7.80412e-06
0.00255018
-6.57424e-06
0.00255144
-5.50453e-06
0.00255258
-4.59275e-06
0.00255361
-3.81746e-06
0.00255455
-3.15538e-06
0.00255542
-2.59222e-06
0.00255622
-2.11578e-06
0.00255696
-1.71365e-06
0.00255766
-1.37471e-06
0.00255832
-1.08941e-06
0.00255894
-8.49584e-07
0.00255954
-6.4827e-07
0.00256012
-4.79903e-07
0.00256068
-3.38928e-07
0.00256122
-2.20201e-07
0.00256175
-1.21453e-07
0.00256226
-3.77433e-08
0.00256277
3.08301e-08
0.00256327
8.90134e-08
0.00256376
1.37949e-07
0.00256425
1.7856e-07
0.00256473
2.12605e-07
0.00256521
2.41053e-07
0.00256569
2.64926e-07
0.00256616
2.84593e-07
0.00256663
3.01477e-07
0.0025671
3.15372e-07
0.00256756
3.273e-07
0.00256803
3.36578e-07
0.00256849
3.45016e-07
0.00256895
3.51769e-07
0.00256941
3.57635e-07
0.00256987
3.62248e-07
0.00257033
3.66075e-07
0.00257079
3.69492e-07
0.00257125
3.72308e-07
0.0025717
3.7448e-07
0.00257216
3.76321e-07
0.00257262
3.77893e-07
0.00257307
3.79134e-07
0.00257353
3.80154e-07
0.00257398
3.80976e-07
0.00257443
3.81627e-07
0.00257489
3.82131e-07
0.00257534
3.82509e-07
0.00257579
3.82782e-07
0.00257625
3.82965e-07
0.0025767
3.83071e-07
0.00257715
3.83112e-07
0.0025776
3.83094e-07
0.00257805
3.83027e-07
0.0025785
3.82919e-07
0.00257895
3.82773e-07
0.0025794
3.82598e-07
0.00257985
3.82393e-07
0.0025803
3.82165e-07
0.00258075
3.81914e-07
0.0025812
3.81645e-07
0.00258165
3.81359e-07
0.00258209
3.81055e-07
0.00258254
3.80738e-07
0.00258299
3.80413e-07
0.00258343
3.80074e-07
0.00258388
3.79724e-07
0.00258432
3.79366e-07
0.00258477
3.79003e-07
0.00258521
3.78637e-07
0.00258565
3.78268e-07
0.0025861
3.77889e-07
0.00258654
3.77512e-07
0.00258698
3.77136e-07
0.00258742
3.76755e-07
0.00258787
3.76374e-07
0.00258831
3.75996e-07
0.00258875
3.75617e-07
0.00258919
3.75241e-07
0.00258963
3.74869e-07
0.00259007
3.74498e-07
0.0025905
3.74141e-07
0.00259094
3.73785e-07
0.00259138
3.73438e-07
0.00259182
3.73102e-07
0.00259225
3.72776e-07
0.00259269
3.72469e-07
0.00259312
3.72175e-07
0.00259356
3.71897e-07
0.00259399
3.7164e-07
0.00259443
3.71404e-07
0.00259486
3.71192e-07
0.00259529
3.71005e-07
0.00259572
3.7085e-07
0.00259615
3.70726e-07
0.00259658
3.70634e-07
0.00259701
3.70587e-07
0.00259744
3.70582e-07
0.00259787
3.70626e-07
0.0025983
3.70717e-07
0.00259873
3.70864e-07
0.00259916
3.7107e-07
0.00259958
3.71343e-07
0.00260001
3.71691e-07
0.00260043
3.72116e-07
0.00260086
3.72632e-07
0.00260128
3.73246e-07
0.00260171
3.73961e-07
0.00260213
3.74786e-07
0.00260255
3.75738e-07
0.00260297
3.76817e-07
0.00260339
3.78026e-07
0.00260381
3.79385e-07
0.00260423
3.80899e-07
0.00260465
3.82579e-07
0.00260507
3.84434e-07
0.00260549
3.8648e-07
0.0026059
3.8872e-07
0.00260632
3.91187e-07
0.00260673
3.93837e-07
0.00260715
3.96796e-07
0.00260756
3.99823e-07
0.00260797
4.0359e-07
0.00260838
4.06558e-07
0.00260879
4.12509e-07
0.0026092
4.13299e-07
0.00260961
4.26438e-07
0.00261001
4.18675e-07
0.00261042
4.51295e-07
0.00261081
4.27189e-07
0.00261122
4.92016e-07
0.0026116
4.83897e-07
0.002612
5.71581e-07
0.00261241
6.86386e-07
0.00261285
7.16033e-07
0.00261324
7.28071e-07
9.09848e-07
0.00248913
-2.05659e-06
0.00249055
-6.13633e-06
0.0024928
-1.20127e-05
0.00249616
-2.05878e-05
0.00250053
-2.91242e-05
0.00250554
-3.48539e-05
0.00251075
-3.71093e-05
0.00251586
-3.66606e-05
0.00252068
-3.45776e-05
0.00252512
-3.16968e-05
0.00252915
-2.85285e-05
0.00253276
-2.53503e-05
0.00253599
-2.22937e-05
0.00253885
-1.94463e-05
0.00254138
-1.68268e-05
0.00254362
-1.44709e-05
0.0025456
-1.23649e-05
0.00254736
-1.04981e-05
0.00254892
-8.88466e-06
0.00255031
-7.48627e-06
0.00255156
-6.27301e-06
0.00255268
-5.23641e-06
0.0025537
-4.35534e-06
0.00255463
-3.60459e-06
0.00255548
-2.96659e-06
0.00255627
-2.42696e-06
0.002557
-1.97166e-06
0.00255769
-1.58806e-06
0.00255835
-1.26529e-06
0.00255897
-9.94057e-07
0.00255956
-7.6651e-07
0.00256014
-5.76123e-07
0.00256069
-4.16692e-07
0.00256123
-2.82752e-07
0.00256176
-1.70785e-07
0.00256227
-7.66538e-08
0.00256278
1.87867e-09
0.00256328
6.69696e-08
0.00256377
1.22218e-07
0.00256425
1.67969e-07
0.00256474
2.06342e-07
0.00256521
2.38505e-07
0.00256569
2.65322e-07
0.00256616
2.87719e-07
0.00256663
3.06672e-07
0.0025671
3.22394e-07
0.00256756
3.35681e-07
0.00256803
3.46322e-07
0.00256849
3.55952e-07
0.00256895
3.63389e-07
0.00256941
3.70021e-07
0.00256987
3.75237e-07
0.00257033
3.79667e-07
0.00257079
3.83523e-07
0.00257125
3.86726e-07
0.0025717
3.89151e-07
0.00257216
3.91279e-07
0.00257262
3.93104e-07
0.00257307
3.94528e-07
0.00257353
3.9571e-07
0.00257398
3.9668e-07
0.00257443
3.97456e-07
0.00257489
3.98072e-07
0.00257534
3.98535e-07
0.00257579
3.98888e-07
0.00257625
3.9914e-07
0.0025767
3.99308e-07
0.00257715
3.99401e-07
0.0025776
3.99433e-07
0.00257805
3.99409e-07
0.0025785
3.9934e-07
0.00257895
3.99231e-07
0.0025794
3.99086e-07
0.00257985
3.98911e-07
0.0025803
3.98709e-07
0.00258075
3.98485e-07
0.0025812
3.98237e-07
0.00258165
3.9797e-07
0.00258209
3.97688e-07
0.00258254
3.9739e-07
0.00258299
3.97083e-07
0.00258343
3.96767e-07
0.00258388
3.9643e-07
0.00258432
3.9609e-07
0.00258477
3.95741e-07
0.00258521
3.95389e-07
0.00258565
3.95035e-07
0.0025861
3.94674e-07
0.00258654
3.94309e-07
0.00258698
3.93944e-07
0.00258742
3.93581e-07
0.00258787
3.93217e-07
0.00258831
3.92848e-07
0.00258875
3.92482e-07
0.00258919
3.92119e-07
0.00258963
3.91761e-07
0.00259007
3.91408e-07
0.0025905
3.91058e-07
0.00259094
3.90714e-07
0.00259138
3.90382e-07
0.00259182
3.9006e-07
0.00259225
3.89749e-07
0.00259269
3.89449e-07
0.00259312
3.89169e-07
0.00259356
3.88907e-07
0.00259399
3.8866e-07
0.00259443
3.88438e-07
0.00259486
3.88237e-07
0.00259529
3.88067e-07
0.00259572
3.87923e-07
0.00259615
3.87813e-07
0.00259658
3.8774e-07
0.00259701
3.87698e-07
0.00259744
3.87708e-07
0.00259787
3.87764e-07
0.0025983
3.87868e-07
0.00259873
3.88031e-07
0.00259916
3.8825e-07
0.00259958
3.88538e-07
0.00260001
3.889e-07
0.00260043
3.8934e-07
0.00260086
3.89873e-07
0.00260128
3.90501e-07
0.00260171
3.91235e-07
0.00260213
3.92081e-07
0.00260255
3.93051e-07
0.00260297
3.94152e-07
0.00260339
3.95384e-07
0.00260381
3.96772e-07
0.00260423
3.98319e-07
0.00260465
4.0004e-07
0.00260507
4.01938e-07
0.00260549
4.04043e-07
0.0026059
4.0636e-07
0.00260632
4.08911e-07
0.00260673
4.1168e-07
0.00260715
4.14785e-07
0.00260756
4.18014e-07
0.00260797
4.22015e-07
0.00260838
4.25378e-07
0.00260879
4.31626e-07
0.0026092
4.33416e-07
0.00260961
4.46343e-07
0.00261001
4.4207e-07
0.00261042
4.71454e-07
0.00261082
4.58086e-07
0.00261122
5.12146e-07
0.00261161
5.22134e-07
0.00261201
5.89438e-07
0.00261243
6.87541e-07
0.00261284
7.28986e-07
0.00261327
7.23097e-07
0.00261366
8.99174e-07
7.35903e-07
0.00248914
-2.43124e-06
0.00249059
-7.09891e-06
0.00249289
-1.38301e-05
0.00249631
-2.3533e-05
0.00250076
-3.30954e-05
0.00250584
-3.94515e-05
0.00251111
-4.19005e-05
0.00251626
-4.13285e-05
0.0025211
-3.8937e-05
0.00252554
-3.56596e-05
0.00252956
-3.20663e-05
0.00253315
-2.84675e-05
0.00253635
-2.50135e-05
0.00253918
-2.17982e-05
0.00254168
-1.88496e-05
0.00254389
-1.61979e-05
0.00254584
-1.38358e-05
0.00254757
-1.17479e-05
0.0025491
-9.93827e-06
0.00255047
-8.3733e-06
0.00255169
-7.01922e-06
0.00255279
-5.86101e-06
0.00255379
-4.8766e-06
0.00255471
-4.03928e-06
0.00255555
-3.32846e-06
0.00255633
-2.72745e-06
0.00255705
-2.22055e-06
0.00255774
-1.79366e-06
0.00255838
-1.43461e-06
0.002559
-1.13304e-06
0.00255959
-8.80147e-07
0.00256016
-6.68334e-07
0.00256071
-4.90822e-07
0.00256125
-3.42081e-07
0.00256177
-2.17722e-07
0.00256228
-1.13274e-07
0.00256279
-2.63411e-08
0.00256328
4.61654e-08
0.00256377
1.07477e-07
0.00256426