/*--------------------------------*- C++ -*----------------------------------*\
| =========                 |                                                 |
| \\      /  F ield         | OpenFOAM: The Open Source CFD Toolbox           |
|  \\    /   O peration     | Version:  2512                                  |
|   \\  /    A nd           | Website:  www.openfoam.com                      |
|    \\/     M anipulation  |                                                 |
\*---------------------------------------------------------------------------*/
FoamFile
{
    version     2.0;
    format      ascii;
    arch        "LSB;label=32;scalar=64";
    class       surfaceScalarField;
    location    "0.1";
    object      phiB;
}
// * * * * * * * * * * * * * * * * * * * * * * * * * * * * * * * * * * * * * //

dimensions      [1 2 -2 0 0 -1 0];

oriented        oriented;

internalField   nonuniform List<scalar> 
16431
(
1.88695e-11
0.00191997
2.50614e-11
0.00191997
3.12121e-11
0.00191998
3.70831e-11
0.00191998
4.26128e-11
0.00191998
4.79648e-11
0.00191998
5.34154e-11
0.00191998
5.91924e-11
0.00191998
6.54e-11
0.00191998
7.20195e-11
0.00191998
7.89688e-11
0.00191998
8.61114e-11
0.00191998
9.33351e-11
0.00191999
1.00458e-10
0.00191999
1.07425e-10
0.00191999
1.1388e-10
0.00191999
0.00191999
-4.80185e-11
0.00191997
-5.31991e-11
0.00191997
-5.77381e-11
0.00191998
-6.23751e-11
0.00191998
-6.76628e-11
0.00191998
-7.37454e-11
0.00191998
-8.04506e-11
0.00191998
-8.7542e-11
0.00191998
-9.48738e-11
0.00191998
-1.02381e-10
0.00191998
-1.10015e-10
0.00191998
-1.17734e-10
0.00191998
-1.25444e-10
0.00191999
-1.33096e-10
0.00191999
-1.40544e-10
0.00191999
-1.47847e-10
0.00191999
-1.54726e-10
0.00191999
-1.60823e-10
0.00191999
-1.66499e-10
0.00191999
-1.71824e-10
0.00191999
-1.76673e-10
0.00191999
-1.81082e-10
0.00191999
-1.85104e-10
0.00191999
-1.88746e-10
0.00192
-1.92027e-10
0.00192
-1.94961e-10
0.00192
-1.97566e-10
0.00192
-1.99872e-10
0.00192
-2.01903e-10
0.00192
-2.0368e-10
0.00192
-2.05228e-10
0.00192
-2.06575e-10
0.00192
-2.07741e-10
0.00192
-2.08747e-10
0.00192
-2.09609e-10
0.00192
-2.10341e-10
0.00192
-2.1096e-10
0.00192
-2.11478e-10
0.00192
-2.11908e-10
0.00192
-2.12262e-10
0.00192
-2.12547e-10
0.00192
-2.12774e-10
0.00192
-2.12948e-10
0.00192
-2.13078e-10
0.00192
-2.13169e-10
0.00192
-2.13228e-10
0.00192
-2.13257e-10
0.00192
-2.13263e-10
0.00192
-2.13249e-10
0.00192
-2.13217e-10
0.00192
-2.1317e-10
0.00192
-2.13112e-10
0.00192
-2.13044e-10
0.00192
-2.12968e-10
0.00192
-2.12885e-10
0.00192
-2.12798e-10
0.00192
-2.12707e-10
0.00192
-2.12614e-10
0.00192
-2.12519e-10
0.00192
-2.12423e-10
0.00192
-2.12326e-10
0.00192
-2.1223e-10
0.00192
-2.12134e-10
0.00192
-2.12039e-10
0.00192
-2.11946e-10
0.00192
-2.11854e-10
0.00192
-2.11764e-10
0.00192
-2.11675e-10
0.00192
-2.11589e-10
0.00192
-2.11504e-10
0.00192
-2.11421e-10
0.00192
-2.11341e-10
0.00192
-2.11262e-10
0.00192
-2.11186e-10
0.00192
-2.11113e-10
0.00192
-2.11041e-10
0.00192
-2.10972e-10
0.00192
-2.10904e-10
0.00192
-2.10838e-10
0.00192
-2.10774e-10
0.00192
-2.10711e-10
0.00192
-2.10649e-10
0.00192
-2.10589e-10
0.00192
-2.1053e-10
0.00192
-2.10472e-10
0.00192
-2.10415e-10
0.00192
-2.10359e-10
0.00192
-2.10305e-10
0.00192
-2.10252e-10
0.00192
-2.102e-10
0.00192
-2.10148e-10
0.00192
-2.10097e-10
0.00192
-2.10047e-10
0.00192
-2.09998e-10
0.00192
-2.0995e-10
0.00192
-2.09902e-10
0.00192
-2.09854e-10
0.00192
-2.09806e-10
0.00192
-2.09759e-10
0.00192
-2.09711e-10
0.00192
-2.09663e-10
0.00192
-2.09615e-10
0.00192
-2.09567e-10
0.00192
-2.09519e-10
0.00192
-2.09471e-10
0.00192
-2.09422e-10
0.00192
-2.09372e-10
0.00192
-2.09321e-10
0.00192
-2.09271e-10
0.00192
-2.09222e-10
0.00192
-2.09173e-10
0.00192
-2.09125e-10
0.00192
-2.09076e-10
0.00192
-2.09025e-10
0.00192
-2.08974e-10
0.00192
-2.08922e-10
0.00192
-2.08869e-10
0.00192
-2.08816e-10
0.00192
-2.08761e-10
0.00192
-2.08705e-10
0.00192
-2.08651e-10
0.00192
-2.08596e-10
0.00192
-2.08543e-10
0.00192
-2.08488e-10
0.00192
-2.08432e-10
0.00192
-2.08377e-10
0.00192
-2.08323e-10
0.00192
-2.08269e-10
0.00192
-2.08218e-10
0.00192
-2.0817e-10
0.00192
-2.08127e-10
0.00192
-2.08089e-10
0.00192
-2.08057e-10
0.00192
-2.08031e-10
0.00192
-2.08013e-10
0.00192
-2.08008e-10
0.00192
-2.0802e-10
0.00192
-2.08049e-10
0.00192
-2.08097e-10
0.00192
-2.08173e-10
0.00192
-2.0828e-10
0.00192
-2.08426e-10
0.00192
-2.08619e-10
0.00192
-2.08874e-10
0.00192
-2.09192e-10
0.00192
-2.09637e-10
0.00192
-2.10166e-10
0.00192
-2.11055e-10
0.00192
0.00192
-1.15146e-10
0.00191997
-1.31841e-10
0.00191997
-1.47296e-10
0.00191998
-1.62577e-10
0.00191998
-1.78626e-10
0.00191998
-1.95944e-10
0.00191998
-2.14576e-10
0.00191998
-2.34356e-10
0.00191998
-2.55117e-10
0.00191998
-2.767e-10
0.00191998
-2.98909e-10
0.00191998
-3.21494e-10
0.00191998
-3.44152e-10
0.00191999
-3.66584e-10
0.00191999
-3.88461e-10
0.00191999
-4.09536e-10
0.00191999
-4.29552e-10
0.00191999
-4.48304e-10
0.00191999
-4.65663e-10
0.00191999
-4.81751e-10
0.00191999
-4.9649e-10
0.00191999
-5.09881e-10
0.00191999
-5.22008e-10
0.00191999
-5.32937e-10
0.00192
-5.42726e-10
0.00192
-5.51449e-10
0.00192
-5.59189e-10
0.00192
-5.66022e-10
0.00192
-5.72019e-10
0.00192
-5.77267e-10
0.00192
-5.81836e-10
0.00192
-5.85789e-10
0.00192
-5.89204e-10
0.00192
-5.92146e-10
0.00192
-5.94649e-10
0.00192
-5.96762e-10
0.00192
-5.98545e-10
0.00192
-6.00034e-10
0.00192
-6.01254e-10
0.00192
-6.02245e-10
0.00192
-6.0304e-10
0.00192
-6.03663e-10
0.00192
-6.0413e-10
0.00192
-6.04464e-10
0.00192
-6.04688e-10
0.00192
-6.04818e-10
0.00192
-6.04865e-10
0.00192
-6.04839e-10
0.00192
-6.04754e-10
0.00192
-6.04622e-10
0.00192
-6.04448e-10
0.00192
-6.0424e-10
0.00192
-6.04006e-10
0.00192
-6.03749e-10
0.00192
-6.03473e-10
0.00192
-6.03186e-10
0.00192
-6.02892e-10
0.00192
-6.0259e-10
0.00192
-6.02282e-10
0.00192
-6.01973e-10
0.00192
-6.01666e-10
0.00192
-6.01361e-10
0.00192
-6.01058e-10
0.00192
-6.00759e-10
0.00192
-6.00465e-10
0.00192
-6.00177e-10
0.00192
-5.99894e-10
0.00192
-5.99618e-10
0.00192
-5.99349e-10
0.00192
-5.99087e-10
0.00192
-5.9883e-10
0.00192
-5.98581e-10
0.00192
-5.9834e-10
0.00192
-5.98105e-10
0.00192
-5.97877e-10
0.00192
-5.97656e-10
0.00192
-5.97441e-10
0.00192
-5.97233e-10
0.00192
-5.97031e-10
0.00192
-5.96833e-10
0.00192
-5.96642e-10
0.00192
-5.96455e-10
0.00192
-5.96273e-10
0.00192
-5.96095e-10
0.00192
-5.95922e-10
0.00192
-5.95753e-10
0.00192
-5.95588e-10
0.00192
-5.95427e-10
0.00192
-5.9527e-10
0.00192
-5.95115e-10
0.00192
-5.94964e-10
0.00192
-5.94816e-10
0.00192
-5.9467e-10
0.00192
-5.94526e-10
0.00192
-5.94385e-10
0.00192
-5.94246e-10
0.00192
-5.94109e-10
0.00192
-5.93974e-10
0.00192
-5.93839e-10
0.00192
-5.93705e-10
0.00192
-5.93573e-10
0.00192
-5.93441e-10
0.00192
-5.9331e-10
0.00192
-5.93179e-10
0.00192
-5.93048e-10
0.00192
-5.92917e-10
0.00192
-5.92786e-10
0.00192
-5.92655e-10
0.00192
-5.92524e-10
0.00192
-5.92395e-10
0.00192
-5.92266e-10
0.00192
-5.92136e-10
0.00192
-5.92006e-10
0.00192
-5.91874e-10
0.00192
-5.91742e-10
0.00192
-5.91609e-10
0.00192
-5.91474e-10
0.00192
-5.91339e-10
0.00192
-5.91201e-10
0.00192
-5.91063e-10
0.00192
-5.90925e-10
0.00192
-5.90786e-10
0.00192
-5.90647e-10
0.00192
-5.90508e-10
0.00192
-5.90365e-10
0.00192
-5.90223e-10
0.00192
-5.90081e-10
0.00192
-5.89938e-10
0.00192
-5.89798e-10
0.00192
-5.89658e-10
0.00192
-5.89524e-10
0.00192
-5.89393e-10
0.00192
-5.89266e-10
0.00192
-5.89146e-10
0.00192
-5.89033e-10
0.00192
-5.88931e-10
0.00192
-5.88845e-10
0.00192
-5.88774e-10
0.00192
-5.88722e-10
0.00192
-5.88696e-10
0.00192
-5.88698e-10
0.00192
-5.88737e-10
0.00192
-5.88817e-10
0.00192
-5.88952e-10
0.00192
-5.89148e-10
0.00192
-5.89431e-10
0.00192
-5.898e-10
0.00192
-5.90403e-10
0.00192
0.00192
-1.8256e-10
0.00191997
-2.10863e-10
0.00191997
-2.37418e-10
0.00191998
-2.63482e-10
0.00191998
-2.90302e-10
0.00191998
-3.18746e-10
0.00191998
-3.49157e-10
0.00191998
-3.81501e-10
0.00191998
-4.15615e-10
0.00191998
-4.51246e-10
0.00191998
-4.88032e-10
0.00191998
-5.25501e-10
0.00191998
-5.63124e-10
0.00191999
-6.00354e-10
0.00191999
-6.36671e-10
0.00191999
-6.71581e-10
0.00191999
-7.04808e-10
0.00191999
-7.36104e-10
0.00191999
-7.65122e-10
0.00191999
-7.91939e-10
0.00191999
-8.16536e-10
0.00191999
-8.38891e-10
0.00191999
-8.59102e-10
0.00191999
-8.77299e-10
0.00192
-8.93585e-10
0.00192
-9.08078e-10
0.00192
-9.20932e-10
0.00192
-9.32279e-10
0.00192
-9.42229e-10
0.00192
-9.50927e-10
0.00192
-9.58506e-10
0.00192
-9.65065e-10
0.00192
-9.70721e-10
0.00192
-9.75583e-10
0.00192
-9.79722e-10
0.00192
-9.83215e-10
0.00192
-9.86154e-10
0.00192
-9.88604e-10
0.00192
-9.90612e-10
0.00192
-9.92237e-10
0.00192
-9.93538e-10
0.00192
-9.94553e-10
0.00192
-9.9531e-10
0.00192
-9.95847e-10
0.00192
-9.96202e-10
0.00192
-9.96403e-10
0.00192
-9.96465e-10
0.00192
-9.96405e-10
0.00192
-9.9625e-10
0.00192
-9.96017e-10
0.00192
-9.95717e-10
0.00192
-9.95359e-10
0.00192
-9.94956e-10
0.00192
-9.94518e-10
0.00192
-9.94052e-10
0.00192
-9.93565e-10
0.00192
-9.93065e-10
0.00192
-9.92555e-10
0.00192
-9.92036e-10
0.00192
-9.91515e-10
0.00192
-9.90997e-10
0.00192
-9.90483e-10
0.00192
-9.89974e-10
0.00192
-9.89471e-10
0.00192
-9.88976e-10
0.00192
-9.88491e-10
0.00192
-9.88016e-10
0.00192
-9.87553e-10
0.00192
-9.87102e-10
0.00192
-9.86662e-10
0.00192
-9.86232e-10
0.00192
-9.85815e-10
0.00192
-9.85411e-10
0.00192
-9.85017e-10
0.00192
-9.84635e-10
0.00192
-9.84265e-10
0.00192
-9.83906e-10
0.00192
-9.83557e-10
0.00192
-9.83218e-10
0.00192
-9.82888e-10
0.00192
-9.82567e-10
0.00192
-9.82256e-10
0.00192
-9.81953e-10
0.00192
-9.81657e-10
0.00192
-9.81368e-10
0.00192
-9.81087e-10
0.00192
-9.80813e-10
0.00192
-9.80546e-10
0.00192
-9.80284e-10
0.00192
-9.80027e-10
0.00192
-9.79776e-10
0.00192
-9.79531e-10
0.00192
-9.79289e-10
0.00192
-9.79052e-10
0.00192
-9.78818e-10
0.00192
-9.78588e-10
0.00192
-9.78362e-10
0.00192
-9.78138e-10
0.00192
-9.77917e-10
0.00192
-9.77697e-10
0.00192
-9.7748e-10
0.00192
-9.77264e-10
0.00192
-9.7705e-10
0.00192
-9.76837e-10
0.00192
-9.76624e-10
0.00192
-9.76411e-10
0.00192
-9.76198e-10
0.00192
-9.75987e-10
0.00192
-9.75776e-10
0.00192
-9.75566e-10
0.00192
-9.75357e-10
0.00192
-9.75146e-10
0.00192
-9.74935e-10
0.00192
-9.74722e-10
0.00192
-9.74509e-10
0.00192
-9.74295e-10
0.00192
-9.74079e-10
0.00192
-9.73861e-10
0.00192
-9.73641e-10
0.00192
-9.73419e-10
0.00192
-9.73198e-10
0.00192
-9.72975e-10
0.00192
-9.72752e-10
0.00192
-9.72527e-10
0.00192
-9.72298e-10
0.00192
-9.72069e-10
0.00192
-9.71838e-10
0.00192
-9.71606e-10
0.00192
-9.71377e-10
0.00192
-9.71147e-10
0.00192
-9.7092e-10
0.00192
-9.70696e-10
0.00192
-9.70475e-10
0.00192
-9.7026e-10
0.00192
-9.70052e-10
0.00192
-9.69853e-10
0.00192
-9.69668e-10
0.00192
-9.69497e-10
0.00192
-9.69343e-10
0.00192
-9.69213e-10
0.00192
-9.69109e-10
0.00192
-9.69038e-10
0.00192
-9.69004e-10
0.00192
-9.69014e-10
0.00192
-9.69081e-10
0.00192
-9.69194e-10
0.00192
-9.69406e-10
0.00192
-9.69628e-10
0.00192
-9.70424e-10
0.00192
0.00192
-2.50296e-10
0.00191997
-2.90236e-10
0.00191997
-3.28007e-10
0.00191998
-3.64978e-10
0.00191998
-4.02634e-10
0.00191998
-4.42194e-10
0.00191998
-4.84332e-10
0.00191998
-5.29195e-10
0.00191998
-5.76643e-10
0.00191998
-6.26329e-10
0.00191998
-6.77717e-10
0.00191998
-7.30104e-10
0.00191998
-7.82719e-10
0.00191999
-8.34764e-10
0.00191999
-8.85528e-10
0.00191999
-9.34312e-10
0.00191999
-9.80754e-10
0.00191999
-1.02451e-09
0.00191999
-1.06514e-09
0.00191999
-1.10265e-09
0.00191999
-1.13705e-09
0.00191999
-1.16833e-09
0.00191999
-1.19658e-09
0.00191999
-1.22199e-09
0.00192
-1.24474e-09
0.00192
-1.26497e-09
0.00192
-1.2829e-09
0.00192
-1.29873e-09
0.00192
-1.31261e-09
0.00192
-1.32474e-09
0.00192
-1.33531e-09
0.00192
-1.34446e-09
0.00192
-1.35234e-09
0.00192
-1.3591e-09
0.00192
-1.36486e-09
0.00192
-1.36973e-09
0.00192
-1.37381e-09
0.00192
-1.37721e-09
0.00192
-1.38e-09
0.00192
-1.38225e-09
0.00192
-1.38405e-09
0.00192
-1.38545e-09
0.00192
-1.3865e-09
0.00192
-1.38724e-09
0.00192
-1.38772e-09
0.00192
-1.38798e-09
0.00192
-1.38806e-09
0.00192
-1.38797e-09
0.00192
-1.38774e-09
0.00192
-1.3874e-09
0.00192
-1.38698e-09
0.00192
-1.38647e-09
0.00192
-1.3859e-09
0.00192
-1.38528e-09
0.00192
-1.38462e-09
0.00192
-1.38393e-09
0.00192
-1.38323e-09
0.00192
-1.38251e-09
0.00192
-1.38178e-09
0.00192
-1.38105e-09
0.00192
-1.38032e-09
0.00192
-1.37959e-09
0.00192
-1.37888e-09
0.00192
-1.37817e-09
0.00192
-1.37748e-09
0.00192
-1.3768e-09
0.00192
-1.37613e-09
0.00192
-1.37548e-09
0.00192
-1.37485e-09
0.00192
-1.37423e-09
0.00192
-1.37363e-09
0.00192
-1.37304e-09
0.00192
-1.37248e-09
0.00192
-1.37192e-09
0.00192
-1.37139e-09
0.00192
-1.37087e-09
0.00192
-1.37036e-09
0.00192
-1.36988e-09
0.00192
-1.3694e-09
0.00192
-1.36894e-09
0.00192
-1.36849e-09
0.00192
-1.36805e-09
0.00192
-1.36763e-09
0.00192
-1.36721e-09
0.00192
-1.36681e-09
0.00192
-1.36642e-09
0.00192
-1.36603e-09
0.00192
-1.36566e-09
0.00192
-1.36529e-09
0.00192
-1.36494e-09
0.00192
-1.36459e-09
0.00192
-1.36424e-09
0.00192
-1.36391e-09
0.00192
-1.36357e-09
0.00192
-1.36325e-09
0.00192
-1.36293e-09
0.00192
-1.36261e-09
0.00192
-1.3623e-09
0.00192
-1.36199e-09
0.00192
-1.36169e-09
0.00192
-1.36138e-09
0.00192
-1.36109e-09
0.00192
-1.36079e-09
0.00192
-1.36049e-09
0.00192
-1.3602e-09
0.00192
-1.3599e-09
0.00192
-1.35961e-09
0.00192
-1.35932e-09
0.00192
-1.35903e-09
0.00192
-1.35874e-09
0.00192
-1.35845e-09
0.00192
-1.35815e-09
0.00192
-1.35786e-09
0.00192
-1.35757e-09
0.00192
-1.35727e-09
0.00192
-1.35698e-09
0.00192
-1.35668e-09
0.00192
-1.35638e-09
0.00192
-1.35608e-09
0.00192
-1.35578e-09
0.00192
-1.35547e-09
0.00192
-1.35516e-09
0.00192
-1.35486e-09
0.00192
-1.35455e-09
0.00192
-1.35423e-09
0.00192
-1.35391e-09
0.00192
-1.3536e-09
0.00192
-1.35327e-09
0.00192
-1.35296e-09
0.00192
-1.35263e-09
0.00192
-1.35232e-09
0.00192
-1.352e-09
0.00192
-1.35168e-09
0.00192
-1.35137e-09
0.00192
-1.35107e-09
0.00192
-1.35077e-09
0.00192
-1.35049e-09
0.00192
-1.35022e-09
0.00192
-1.34996e-09
0.00192
-1.34973e-09
0.00192
-1.34951e-09
0.00192
-1.34933e-09
0.00192
-1.34918e-09
0.00192
-1.34906e-09
0.00192
-1.349e-09
0.00192
-1.34895e-09
0.00192
-1.349e-09
0.00192
-1.34895e-09
0.00192
-1.34953e-09
0.00192
-1.35096e-09
0.00192
0.00192
-3.18398e-10
0.00191997
-3.69985e-10
0.00191997
-4.19037e-10
0.00191998
-4.67005e-10
0.00191998
-5.15577e-10
0.00191998
-5.66303e-10
0.00191998
-6.20194e-10
0.00191998
-6.776e-10
0.00191998
-7.38416e-10
0.00191998
-8.02205e-10
0.00191998
-8.68248e-10
0.00191998
-9.35605e-10
0.00191998
-1.00325e-09
0.00191999
-1.07014e-09
0.00191999
-1.13535e-09
0.00191999
-1.19803e-09
0.00191999
-1.25766e-09
0.00191999
-1.31381e-09
0.00191999
-1.366e-09
0.00191999
-1.41413e-09
0.00191999
-1.45826e-09
0.00191999
-1.49839e-09
0.00191999
-1.53463e-09
0.00191999
-1.5672e-09
0.00192
-1.59634e-09
0.00192
-1.62227e-09
0.00192
-1.64523e-09
0.00192
-1.66549e-09
0.00192
-1.68326e-09
0.00192
-1.69879e-09
0.00192
-1.71231e-09
0.00192
-1.72402e-09
0.00192
-1.7341e-09
0.00192
-1.74274e-09
0.00192
-1.7501e-09
0.00192
-1.75632e-09
0.00192
-1.76154e-09
0.00192
-1.76587e-09
0.00192
-1.76943e-09
0.00192
-1.77231e-09
0.00192
-1.7746e-09
0.00192
-1.77637e-09
0.00192
-1.7777e-09
0.00192
-1.77863e-09
0.00192
-1.77924e-09
0.00192
-1.77957e-09
0.00192
-1.77965e-09
0.00192
-1.77953e-09
0.00192
-1.77922e-09
0.00192
-1.77878e-09
0.00192
-1.77823e-09
0.00192
-1.77757e-09
0.00192
-1.77683e-09
0.00192
-1.77602e-09
0.00192
-1.77518e-09
0.00192
-1.77429e-09
0.00192
-1.77338e-09
0.00192
-1.77245e-09
0.00192
-1.77151e-09
0.00192
-1.77057e-09
0.00192
-1.76963e-09
0.00192
-1.7687e-09
0.00192
-1.76778e-09
0.00192
-1.76687e-09
0.00192
-1.76597e-09
0.00192
-1.76509e-09
0.00192
-1.76424e-09
0.00192
-1.7634e-09
0.00192
-1.76258e-09
0.00192
-1.76179e-09
0.00192
-1.76101e-09
0.00192
-1.76026e-09
0.00192
-1.75953e-09
0.00192
-1.75882e-09
0.00192
-1.75813e-09
0.00192
-1.75746e-09
0.00192
-1.75682e-09
0.00192
-1.75619e-09
0.00192
-1.75558e-09
0.00192
-1.75498e-09
0.00192
-1.7544e-09
0.00192
-1.75384e-09
0.00192
-1.7533e-09
0.00192
-1.75277e-09
0.00192
-1.75225e-09
0.00192
-1.75174e-09
0.00192
-1.75125e-09
0.00192
-1.75077e-09
0.00192
-1.7503e-09
0.00192
-1.74984e-09
0.00192
-1.74939e-09
0.00192
-1.74895e-09
0.00192
-1.74852e-09
0.00192
-1.74809e-09
0.00192
-1.74767e-09
0.00192
-1.74726e-09
0.00192
-1.74686e-09
0.00192
-1.74646e-09
0.00192
-1.74607e-09
0.00192
-1.74567e-09
0.00192
-1.74529e-09
0.00192
-1.7449e-09
0.00192
-1.74452e-09
0.00192
-1.74415e-09
0.00192
-1.74377e-09
0.00192
-1.74339e-09
0.00192
-1.74302e-09
0.00192
-1.74265e-09
0.00192
-1.74227e-09
0.00192
-1.7419e-09
0.00192
-1.74153e-09
0.00192
-1.74116e-09
0.00192
-1.74079e-09
0.00192
-1.74041e-09
0.00192
-1.74004e-09
0.00192
-1.73966e-09
0.00192
-1.73928e-09
0.00192
-1.7389e-09
0.00192
-1.73852e-09
0.00192
-1.73813e-09
0.00192
-1.73774e-09
0.00192
-1.73735e-09
0.00192
-1.73696e-09
0.00192
-1.73656e-09
0.00192
-1.73616e-09
0.00192
-1.73576e-09
0.00192
-1.73535e-09
0.00192
-1.73494e-09
0.00192
-1.73453e-09
0.00192
-1.73412e-09
0.00192
-1.73371e-09
0.00192
-1.7333e-09
0.00192
-1.73289e-09
0.00192
-1.73249e-09
0.00192
-1.73209e-09
0.00192
-1.73169e-09
0.00192
-1.73131e-09
0.00192
-1.73094e-09
0.00192
-1.73058e-09
0.00192
-1.73024e-09
0.00192
-1.72992e-09
0.00192
-1.72962e-09
0.00192
-1.72935e-09
0.00192
-1.72911e-09
0.00192
-1.72891e-09
0.00192
-1.7287e-09
0.00192
-1.7286e-09
0.00192
-1.72841e-09
0.00192
-1.72883e-09
0.00192
-1.7301e-09
0.00192
-1.73144e-09
0.00192
0.00192
-3.86891e-10
0.00191997
-4.50128e-10
0.00191997
-5.10501e-10
0.00191998
-5.69535e-10
0.00191998
-6.29109e-10
0.00191998
-6.91088e-10
0.00191998
-7.56813e-10
0.00191998
-8.2684e-10
0.00191998
-9.01113e-10
0.00191998
-9.79096e-10
0.00191998
-1.05988e-09
0.00191998
-1.14228e-09
0.00191998
-1.22501e-09
0.00191999
-1.30678e-09
0.00191999
-1.38645e-09
0.00191999
-1.46301e-09
0.00191999
-1.5358e-09
0.00191999
-1.60427e-09
0.00191999
-1.66793e-09
0.00191999
-1.72663e-09
0.00191999
-1.78039e-09
0.00191999
-1.82928e-09
0.00191999
-1.87342e-09
0.00191999
-1.91308e-09
0.00192
-1.94854e-09
0.00192
-1.98008e-09
0.00192
-2.00802e-09
0.00192
-2.03265e-09
0.00192
-2.05426e-09
0.00192
-2.07315e-09
0.00192
-2.08958e-09
0.00192
-2.10381e-09
0.00192
-2.11605e-09
0.00192
-2.12655e-09
0.00192
-2.13548e-09
0.00192
-2.14303e-09
0.00192
-2.14936e-09
0.00192
-2.15462e-09
0.00192
-2.15893e-09
0.00192
-2.16241e-09
0.00192
-2.16519e-09
0.00192
-2.16733e-09
0.00192
-2.16892e-09
0.00192
-2.17005e-09
0.00192
-2.17078e-09
0.00192
-2.17116e-09
0.00192
-2.17125e-09
0.00192
-2.17108e-09
0.00192
-2.17071e-09
0.00192
-2.17016e-09
0.00192
-2.16947e-09
0.00192
-2.16866e-09
0.00192
-2.16775e-09
0.00192
-2.16676e-09
0.00192
-2.16572e-09
0.00192
-2.16464e-09
0.00192
-2.16352e-09
0.00192
-2.16238e-09
0.00192
-2.16123e-09
0.00192
-2.16008e-09
0.00192
-2.15893e-09
0.00192
-2.15779e-09
0.00192
-2.15666e-09
0.00192
-2.15555e-09
0.00192
-2.15445e-09
0.00192
-2.15338e-09
0.00192
-2.15233e-09
0.00192
-2.15131e-09
0.00192
-2.15031e-09
0.00192
-2.14934e-09
0.00192
-2.14839e-09
0.00192
-2.14748e-09
0.00192
-2.14658e-09
0.00192
-2.14571e-09
0.00192
-2.14487e-09
0.00192
-2.14406e-09
0.00192
-2.14326e-09
0.00192
-2.14249e-09
0.00192
-2.14175e-09
0.00192
-2.14102e-09
0.00192
-2.14032e-09
0.00192
-2.13963e-09
0.00192
-2.13896e-09
0.00192
-2.13831e-09
0.00192
-2.13768e-09
0.00192
-2.13707e-09
0.00192
-2.13647e-09
0.00192
-2.13588e-09
0.00192
-2.1353e-09
0.00192
-2.13474e-09
0.00192
-2.13419e-09
0.00192
-2.13366e-09
0.00192
-2.13313e-09
0.00192
-2.13261e-09
0.00192
-2.1321e-09
0.00192
-2.1316e-09
0.00192
-2.1311e-09
0.00192
-2.13062e-09
0.00192
-2.13014e-09
0.00192
-2.12966e-09
0.00192
-2.12919e-09
0.00192
-2.12872e-09
0.00192
-2.12826e-09
0.00192
-2.1278e-09
0.00192
-2.12734e-09
0.00192
-2.12688e-09
0.00192
-2.12643e-09
0.00192
-2.12597e-09
0.00192
-2.12552e-09
0.00192
-2.12507e-09
0.00192
-2.12462e-09
0.00192
-2.12417e-09
0.00192
-2.12371e-09
0.00192
-2.12326e-09
0.00192
-2.1228e-09
0.00192
-2.12235e-09
0.00192
-2.12188e-09
0.00192
-2.12142e-09
0.00192
-2.12095e-09
0.00192
-2.12048e-09
0.00192
-2.12001e-09
0.00192
-2.11954e-09
0.00192
-2.11906e-09
0.00192
-2.11858e-09
0.00192
-2.11809e-09
0.00192
-2.1176e-09
0.00192
-2.11711e-09
0.00192
-2.11661e-09
0.00192
-2.11611e-09
0.00192
-2.11561e-09
0.00192
-2.11511e-09
0.00192
-2.1146e-09
0.00192
-2.1141e-09
0.00192
-2.1136e-09
0.00192
-2.11311e-09
0.00192
-2.11261e-09
0.00192
-2.11213e-09
0.00192
-2.11165e-09
0.00192
-2.11119e-09
0.00192
-2.11075e-09
0.00192
-2.11032e-09
0.00192
-2.10991e-09
0.00192
-2.10953e-09
0.00192
-2.10916e-09
0.00192
-2.10883e-09
0.00192
-2.10848e-09
0.00192
-2.10823e-09
0.00192
-2.10794e-09
0.00192
-2.10825e-09
0.00192
-2.10933e-09
0.00192
-2.1107e-09
0.00192
0.00192
-4.55799e-10
0.00191997
-5.30692e-10
0.00191997
-6.02409e-10
0.00191998
-6.72566e-10
0.00191998
-7.43232e-10
0.00191998
-8.16576e-10
0.00191998
-8.94259e-10
0.00191998
-9.7704e-10
0.00191998
-1.0649e-09
0.00191998
-1.15721e-09
0.00191998
-1.25286e-09
0.00191998
-1.3504e-09
0.00191998
-1.44829e-09
0.00191999
-1.54498e-09
0.00191999
-1.63912e-09
0.00191999
-1.72954e-09
0.00191999
-1.81543e-09
0.00191999
-1.89615e-09
0.00191999
-1.97119e-09
0.00191999
-2.04034e-09
0.00191999
-2.10364e-09
0.00191999
-2.16118e-09
0.00191999
-2.21313e-09
0.00191999
-2.25977e-09
0.00192
-2.30147e-09
0.00192
-2.33854e-09
0.00192
-2.37137e-09
0.00192
-2.40031e-09
0.00192
-2.42569e-09
0.00192
-2.44788e-09
0.00192
-2.46718e-09
0.00192
-2.48387e-09
0.00192
-2.49824e-09
0.00192
-2.51055e-09
0.00192
-2.52104e-09
0.00192
-2.52988e-09
0.00192
-2.5373e-09
0.00192
-2.54346e-09
0.00192
-2.54851e-09
0.00192
-2.55258e-09
0.00192
-2.55582e-09
0.00192
-2.55832e-09
0.00192
-2.56018e-09
0.00192
-2.56149e-09
0.00192
-2.56233e-09
0.00192
-2.56276e-09
0.00192
-2.56285e-09
0.00192
-2.56264e-09
0.00192
-2.56219e-09
0.00192
-2.56153e-09
0.00192
-2.56071e-09
0.00192
-2.55974e-09
0.00192
-2.55866e-09
0.00192
-2.55749e-09
0.00192
-2.55626e-09
0.00192
-2.55497e-09
0.00192
-2.55365e-09
0.00192
-2.5523e-09
0.00192
-2.55094e-09
0.00192
-2.54957e-09
0.00192
-2.54821e-09
0.00192
-2.54687e-09
0.00192
-2.54553e-09
0.00192
-2.54422e-09
0.00192
-2.54292e-09
0.00192
-2.54165e-09
0.00192
-2.54042e-09
0.00192
-2.53921e-09
0.00192
-2.53803e-09
0.00192
-2.53688e-09
0.00192
-2.53576e-09
0.00192
-2.53468e-09
0.00192
-2.53362e-09
0.00192
-2.5326e-09
0.00192
-2.5316e-09
0.00192
-2.53064e-09
0.00192
-2.5297e-09
0.00192
-2.52879e-09
0.00192
-2.52791e-09
0.00192
-2.52705e-09
0.00192
-2.52622e-09
0.00192
-2.52541e-09
0.00192
-2.52462e-09
0.00192
-2.52386e-09
0.00192
-2.52311e-09
0.00192
-2.52238e-09
0.00192
-2.52168e-09
0.00192
-2.52098e-09
0.00192
-2.5203e-09
0.00192
-2.51964e-09
0.00192
-2.51899e-09
0.00192
-2.51836e-09
0.00192
-2.51774e-09
0.00192
-2.51712e-09
0.00192
-2.51652e-09
0.00192
-2.51593e-09
0.00192
-2.51535e-09
0.00192
-2.51477e-09
0.00192
-2.5142e-09
0.00192
-2.51364e-09
0.00192
-2.51309e-09
0.00192
-2.51254e-09
0.00192
-2.51199e-09
0.00192
-2.51145e-09
0.00192
-2.51091e-09
0.00192
-2.51037e-09
0.00192
-2.50983e-09
0.00192
-2.5093e-09
0.00192
-2.50877e-09
0.00192
-2.50824e-09
0.00192
-2.50771e-09
0.00192
-2.50717e-09
0.00192
-2.50664e-09
0.00192
-2.5061e-09
0.00192
-2.50557e-09
0.00192
-2.50503e-09
0.00192
-2.50449e-09
0.00192
-2.50394e-09
0.00192
-2.50339e-09
0.00192
-2.50284e-09
0.00192
-2.50229e-09
0.00192
-2.50173e-09
0.00192
-2.50117e-09
0.00192
-2.5006e-09
0.00192
-2.50003e-09
0.00192
-2.49945e-09
0.00192
-2.49886e-09
0.00192
-2.49828e-09
0.00192
-2.49769e-09
0.00192
-2.4971e-09
0.00192
-2.4965e-09
0.00192
-2.49591e-09
0.00192
-2.49531e-09
0.00192
-2.49472e-09
0.00192
-2.49412e-09
0.00192
-2.49353e-09
0.00192
-2.49295e-09
0.00192
-2.49237e-09
0.00192
-2.49181e-09
0.00192
-2.49126e-09
0.00192
-2.49072e-09
0.00192
-2.4902e-09
0.00192
-2.4897e-09
0.00192
-2.48921e-09
0.00192
-2.48875e-09
0.00192
-2.48828e-09
0.00192
-2.48789e-09
0.00192
-2.48755e-09
0.00192
-2.48774e-09
0.00192
-2.48865e-09
0.00192
-2.48981e-09
0.00192
-2.49095e-09
0.00192
0.00192
-5.25143e-10
0.00191997
-6.11703e-10
0.00191998
-6.94784e-10
0.00191998
-7.76117e-10
0.00191998
-8.57969e-10
0.00191998
-9.42811e-10
0.00191998
-1.03262e-09
0.00191998
-1.12833e-09
0.00191998
-1.22996e-09
0.00191998
-1.33677e-09
0.00191998
-1.44743e-09
0.00191998
-1.56024e-09
0.00191998
-1.67337e-09
0.00191999
-1.78503e-09
0.00191999
-1.89364e-09
0.00191999
-1.99789e-09
0.00191999
-2.09682e-09
0.00191999
-2.1897e-09
0.00191999
-2.276e-09
0.00191999
-2.3555e-09
0.00191999
-2.42822e-09
0.00191999
-2.49429e-09
0.00191999
-2.55391e-09
0.00191999
-2.60743e-09
0.00192
-2.65525e-09
0.00192
-2.69776e-09
0.00192
-2.73539e-09
0.00192
-2.76855e-09
0.00192
-2.79764e-09
0.00192
-2.82304e-09
0.00192
-2.84514e-09
0.00192
-2.86426e-09
0.00192
-2.8807e-09
0.00192
-2.89479e-09
0.00192
-2.90678e-09
0.00192
-2.9169e-09
0.00192
-2.92537e-09
0.00192
-2.93241e-09
0.00192
-2.93818e-09
0.00192
-2.94283e-09
0.00192
-2.94652e-09
0.00192
-2.94936e-09
0.00192
-2.95147e-09
0.00192
-2.95295e-09
0.00192
-2.9539e-09
0.00192
-2.95438e-09
0.00192
-2.95446e-09
0.00192
-2.9542e-09
0.00192
-2.95366e-09
0.00192
-2.95289e-09
0.00192
-2.95193e-09
0.00192
-2.95081e-09
0.00192
-2.94956e-09
0.00192
-2.9482e-09
0.00192
-2.94678e-09
0.00192
-2.94529e-09
0.00192
-2.94376e-09
0.00192
-2.9422e-09
0.00192
-2.94063e-09
0.00192
-2.93905e-09
0.00192
-2.93748e-09
0.00192
-2.93593e-09
0.00192
-2.93439e-09
0.00192
-2.93287e-09
0.00192
-2.93138e-09
0.00192
-2.92992e-09
0.00192
-2.92849e-09
0.00192
-2.9271e-09
0.00192
-2.92574e-09
0.00192
-2.92441e-09
0.00192
-2.92312e-09
0.00192
-2.92187e-09
0.00192
-2.92065e-09
0.00192
-2.91947e-09
0.00192
-2.91832e-09
0.00192
-2.91721e-09
0.00192
-2.91614e-09
0.00192
-2.91509e-09
0.00192
-2.91407e-09
0.00192
-2.91308e-09
0.00192
-2.91212e-09
0.00192
-2.91119e-09
0.00192
-2.91028e-09
0.00192
-2.90939e-09
0.00192
-2.90853e-09
0.00192
-2.9077e-09
0.00192
-2.90688e-09
0.00192
-2.90608e-09
0.00192
-2.9053e-09
0.00192
-2.90453e-09
0.00192
-2.90379e-09
0.00192
-2.90306e-09
0.00192
-2.90234e-09
0.00192
-2.90163e-09
0.00192
-2.90094e-09
0.00192
-2.90026e-09
0.00192
-2.89959e-09
0.00192
-2.89892e-09
0.00192
-2.89827e-09
0.00192
-2.89762e-09
0.00192
-2.89698e-09
0.00192
-2.89635e-09
0.00192
-2.89572e-09
0.00192
-2.89509e-09
0.00192
-2.89447e-09
0.00192
-2.89385e-09
0.00192
-2.89323e-09
0.00192
-2.89262e-09
0.00192
-2.89201e-09
0.00192
-2.8914e-09
0.00192
-2.89079e-09
0.00192
-2.89017e-09
0.00192
-2.88956e-09
0.00192
-2.88894e-09
0.00192
-2.88833e-09
0.00192
-2.88771e-09
0.00192
-2.88708e-09
0.00192
-2.88646e-09
0.00192
-2.88583e-09
0.00192
-2.88519e-09
0.00192
-2.88456e-09
0.00192
-2.88391e-09
0.00192
-2.88327e-09
0.00192
-2.88262e-09
0.00192
-2.88196e-09
0.00192
-2.88129e-09
0.00192
-2.88062e-09
0.00192
-2.87995e-09
0.00192
-2.87927e-09
0.00192
-2.87859e-09
0.00192
-2.8779e-09
0.00192
-2.87721e-09
0.00192
-2.87652e-09
0.00192
-2.87583e-09
0.00192
-2.87514e-09
0.00192
-2.87446e-09
0.00192
-2.87377e-09
0.00192
-2.87309e-09
0.00192
-2.87243e-09
0.00192
-2.87177e-09
0.00192
-2.87113e-09
0.00192
-2.8705e-09
0.00192
-2.86988e-09
0.00192
-2.86927e-09
0.00192
-2.86869e-09
0.00192
-2.8681e-09
0.00192
-2.8676e-09
0.00192
-2.86721e-09
0.00192
-2.86729e-09
0.00192
-2.86803e-09
0.00192
-2.86898e-09
0.00192
-2.86996e-09
0.00192
-2.87126e-09
0.00192
0.00192
-5.94947e-10
0.00191997
-6.93187e-10
0.00191998
-7.87655e-10
0.00191998
-8.80218e-10
0.00191998
-9.73362e-10
0.00191998
-1.06986e-09
0.00191998
-1.17198e-09
0.00191998
-1.28084e-09
0.00191998
-1.39646e-09
0.00191998
-1.51798e-09
0.00191998
-1.64385e-09
0.00191998
-1.77207e-09
0.00191998
-1.90055e-09
0.00191999
-2.02723e-09
0.00191999
-2.15033e-09
0.00191999
-2.26836e-09
0.00191999
-2.38025e-09
0.00191999
-2.48519e-09
0.00191999
-2.58263e-09
0.00191999
-2.67232e-09
0.00191999
-2.75431e-09
0.00191999
-2.82877e-09
0.00191999
-2.89593e-09
0.00191999
-2.9562e-09
0.00192
-3.01002e-09
0.00192
-3.05785e-09
0.00192
-3.10016e-09
0.00192
-3.13746e-09
0.00192
-3.17016e-09
0.00192
-3.19871e-09
0.00192
-3.22353e-09
0.00192
-3.24501e-09
0.00192
-3.26348e-09
0.00192
-3.27929e-09
0.00192
-3.29275e-09
0.00192
-3.30411e-09
0.00192
-3.31361e-09
0.00192
-3.32149e-09
0.00192
-3.32795e-09
0.00192
-3.33316e-09
0.00192
-3.33728e-09
0.00192
-3.34045e-09
0.00192
-3.3428e-09
0.00192
-3.34444e-09
0.00192
-3.34548e-09
0.00192
-3.346e-09
0.00192
-3.34607e-09
0.00192
-3.34576e-09
0.00192
-3.34513e-09
0.00192
-3.34425e-09
0.00192
-3.34315e-09
0.00192
-3.34187e-09
0.00192
-3.34044e-09
0.00192
-3.3389e-09
0.00192
-3.33728e-09
0.00192
-3.33559e-09
0.00192
-3.33386e-09
0.00192
-3.33209e-09
0.00192
-3.3303e-09
0.00192
-3.32852e-09
0.00192
-3.32674e-09
0.00192
-3.32497e-09
0.00192
-3.32323e-09
0.00192
-3.32151e-09
0.00192
-3.31982e-09
0.00192
-3.31816e-09
0.00192
-3.31655e-09
0.00192
-3.31497e-09
0.00192
-3.31343e-09
0.00192
-3.31193e-09
0.00192
-3.31047e-09
0.00192
-3.30905e-09
0.00192
-3.30767e-09
0.00192
-3.30633e-09
0.00192
-3.30504e-09
0.00192
-3.30378e-09
0.00192
-3.30256e-09
0.00192
-3.30137e-09
0.00192
-3.30022e-09
0.00192
-3.2991e-09
0.00192
-3.29801e-09
0.00192
-3.29696e-09
0.00192
-3.29593e-09
0.00192
-3.29493e-09
0.00192
-3.29395e-09
0.00192
-3.293e-09
0.00192
-3.29208e-09
0.00192
-3.29117e-09
0.00192
-3.29029e-09
0.00192
-3.28942e-09
0.00192
-3.28858e-09
0.00192
-3.28775e-09
0.00192
-3.28694e-09
0.00192
-3.28614e-09
0.00192
-3.28535e-09
0.00192
-3.28458e-09
0.00192
-3.28382e-09
0.00192
-3.28307e-09
0.00192
-3.28233e-09
0.00192
-3.2816e-09
0.00192
-3.28087e-09
0.00192
-3.28016e-09
0.00192
-3.27945e-09
0.00192
-3.27874e-09
0.00192
-3.27804e-09
0.00192
-3.27733e-09
0.00192
-3.27664e-09
0.00192
-3.27594e-09
0.00192
-3.27525e-09
0.00192
-3.27456e-09
0.00192
-3.27387e-09
0.00192
-3.27318e-09
0.00192
-3.27248e-09
0.00192
-3.27178e-09
0.00192
-3.27109e-09
0.00192
-3.27039e-09
0.00192
-3.26968e-09
0.00192
-3.26898e-09
0.00192
-3.26826e-09
0.00192
-3.26755e-09
0.00192
-3.26683e-09
0.00192
-3.2661e-09
0.00192
-3.26537e-09
0.00192
-3.26463e-09
0.00192
-3.26389e-09
0.00192
-3.26314e-09
0.00192
-3.26238e-09
0.00192
-3.26162e-09
0.00192
-3.26085e-09
0.00192
-3.26008e-09
0.00192
-3.2593e-09
0.00192
-3.25852e-09
0.00192
-3.25773e-09
0.00192
-3.25695e-09
0.00192
-3.25616e-09
0.00192
-3.25538e-09
0.00192
-3.2546e-09
0.00192
-3.25382e-09
0.00192