/*--------------------------------*- C++ -*----------------------------------*\
| =========                 |                                                 |
| \\      /  F ield         | OpenFOAM: The Open Source CFD Toolbox           |
|  \\    /   O peration     | Version:  2512                                  |
|   \\  /    A nd           | Website:  www.openfoam.com                      |
|    \\/     M anipulation  |                                                 |
\*---------------------------------------------------------------------------*/
FoamFile
{
    version     2.0;
    format      ascii;
    arch        "LSB;label=32;scalar=64";
    class       volVectorField;
    location    "0.1";
    object      U;
}
// * * * * * * * * * * * * * * * * * * * * * * * * * * * * * * * * * * * * * //

dimensions      [0 1 -1 0 0 0 0];

internalField   nonuniform List<vector> 
8333
(
(0.0596267 6.69491e-06 -4.29585e-19)
(0.0600903 8.106e-06 2.28415e-18)
(0.0602709 1.22018e-05 2.23811e-18)
(0.0599602 1.64726e-05 5.30697e-18)
(0.0601778 1.90796e-05 6.94079e-18)
(0.0604102 1.98502e-05 6.99307e-18)
(0.0604393 1.94773e-05 5.56721e-18)
(0.0605306 1.85741e-05 3.65949e-18)
(0.0606879 1.73903e-05 1.98426e-18)
(0.0608123 1.606e-05 9.42388e-19)
(0.0609066 1.45777e-05 3.79327e-19)
(0.0609968 1.31694e-05 1.66405e-19)
(0.0610826 1.1531e-05 1.02806e-19)
(0.0611588 1.04393e-05 8.06128e-20)
(0.061226 8.58498e-06 1.15944e-19)
(0.0612856 8.16544e-06 1.05925e-19)
(0.0613384 6.24411e-06 1.1321e-19)
(0.0596266 4.78596e-06 -2.56957e-19)
(0.0600909 3.70031e-06 3.76207e-19)
(0.0602727 2.7418e-06 2.9364e-19)
(0.0599632 -2.11818e-06 9.93492e-19)
(0.060181 -9.26066e-06 1.85919e-18)
(0.0604125 -1.51603e-05 2.37999e-18)
(0.0604404 -1.81558e-05 2.01292e-18)
(0.0605306 -1.85422e-05 1.50742e-18)
(0.0606874 -1.73846e-05 7.73339e-19)
(0.0608114 -1.55457e-05 4.24752e-19)
(0.0609056 -1.35981e-05 1.20166e-19)
(0.0609959 -1.16109e-05 1.0171e-19)
(0.0610817 -9.93262e-06 1.15013e-19)
(0.0611579 -8.09483e-06 7.82554e-20)
(0.0612252 -6.90989e-06 2.10034e-19)
(0.0612849 -5.45652e-06 1.48016e-19)
(0.0613374 -4.29564e-06 1.70483e-19)
(0.0613852 -3.44098e-06 1.40886e-19)
(0.0614278 -3.32622e-06 2.28002e-19)
(0.0614652 -2.42948e-06 1.36439e-19)
(0.0614989 -1.88806e-06 1.48076e-19)
(0.0615292 -1.43035e-06 1.25795e-19)
(0.0615564 -9.79448e-07 2.16633e-19)
(0.061581 -6.01824e-07 1.23569e-19)
(0.0616035 -2.62805e-07 1.29311e-19)
(0.0616241 4.8072e-11 1.09787e-19)
(0.0616433 2.18153e-07 1.969e-19)
(0.0616611 4.08883e-07 1.21496e-19)
(0.0616778 5.69213e-07 1.00072e-19)
(0.0616937 7.10646e-07 1.28398e-19)
(0.0617087 8.45613e-07 1.83567e-19)
(0.0617231 9.51669e-07 1.12854e-19)
(0.061737 1.03773e-06 1.67421e-19)
(0.0617504 1.1248e-06 1.22773e-19)
(0.0617635 1.1975e-06 1.42928e-19)
(0.0617762 1.25361e-06 2.12076e-19)
(0.0617886 1.29849e-06 2.14382e-19)
(0.0618009 1.33213e-06 2.16796e-19)
(0.0618129 1.36078e-06 1.29932e-19)
(0.0618248 1.38378e-06 2.03742e-19)
(0.0618365 1.40408e-06 1.72942e-19)
(0.0618481 1.41963e-06 1.85482e-19)
(0.0618597 1.43234e-06 2.38925e-19)
(0.0618711 1.4436e-06 2.53649e-19)
(0.0618825 1.45407e-06 1.98084e-19)
(0.0618938 1.46341e-06 1.99955e-19)
(0.0619051 1.47105e-06 1.42241e-19)
(0.0619163 1.47656e-06 2.31608e-19)
(0.0619275 1.48043e-06 1.99071e-19)
(0.0619387 1.48375e-06 2.19116e-19)
(0.0619498 1.48661e-06 2.51652e-19)
(0.0619609 1.48892e-06 2.96969e-19)
(0.061972 1.49072e-06 1.42998e-19)
(0.0619831 1.49195e-06 3.55772e-19)
(0.0619941 1.49251e-06 -7.44916e-20)
(0.0620051 1.49258e-06 5.04872e-19)
(0.0620161 1.49225e-06 8.25346e-20)
(0.0620271 1.49156e-06 1.39763e-19)
(0.0620381 1.49048e-06 4.2374e-19)
(0.0620491 1.48908e-06 3.63292e-19)
(0.0620601 1.48738e-06 3.20881e-20)
(0.062071 1.48544e-06 -1.89296e-19)
(0.062082 1.48328e-06 -2.13288e-19)
(0.0620929 1.48094e-06 1.10985e-20)
(0.0621038 1.47839e-06 -9.00301e-20)
(0.0621148 1.47569e-06 5.81543e-19)
(0.0621257 1.47282e-06 -5.08556e-19)
(0.0621366 1.46977e-06 1.36324e-18)
(0.0621474 1.46661e-06 -9.87288e-19)
(0.0621583 1.46334e-06 1.26027e-18)
(0.0621692 1.45998e-06 -1.21776e-19)
(0.06218 1.45653e-06 -8.356e-19)
(0.0621909 1.453e-06 -1.26564e-18)
(0.0622017 1.44937e-06 -1.24268e-18)
(0.0622125 1.44569e-06 -8.63091e-19)
(0.0622234 1.44191e-06 -4.11432e-19)
(0.0622342 1.43806e-06 -6.6401e-20)
(0.062245 1.43417e-06 9.08915e-20)
(0.0622558 1.43025e-06 2.67443e-19)
(0.0622665 1.42631e-06 5.29034e-20)
(0.0622773 1.42232e-06 6.5619e-19)
(0.0622881 1.41828e-06 -5.08478e-19)
(0.0622988 1.41419e-06 1.38564e-18)
(0.0623095 1.41009e-06 -1.03113e-18)
(0.0623203 1.406e-06 1.25185e-18)
(0.062331 1.40189e-06 -9.65212e-20)
(0.0623417 1.39776e-06 -8.51655e-19)
(0.0623524 1.39362e-06 -1.31934e-18)
(0.0623631 1.38947e-06 -1.29422e-18)
(0.0623737 1.38534e-06 -8.96888e-19)
(0.0623844 1.38122e-06 -4.32986e-19)
(0.062395 1.37715e-06 -8.60458e-20)
(0.0624057 1.37308e-06 1.17643e-19)
(0.0624163 1.36903e-06 1.82507e-19)
(0.0624269 1.36503e-06 2.99353e-19)
(0.0624375 1.36106e-06 7.40199e-20)
(0.0624481 1.35715e-06 6.49341e-19)
(0.0624587 1.3533e-06 -5.22662e-19)
(0.0624692 1.34952e-06 1.4319e-18)
(0.0624798 1.3458e-06 -1.10724e-18)
(0.0624903 1.34217e-06 1.2714e-18)
(0.0625008 1.33866e-06 -1.06171e-20)
(0.0625114 1.3353e-06 -8.79164e-19)
(0.0625219 1.33214e-06 -1.41403e-18)
(0.0625323 1.32916e-06 -1.3587e-18)
(0.0625428 1.32637e-06 -9.12007e-19)
(0.0625533 1.32379e-06 -4.1806e-19)
(0.0625637 1.32139e-06 -6.37737e-20)
(0.0625741 1.31924e-06 1.2093e-19)
(0.0625846 1.31737e-06 2.12879e-19)
(0.062595 1.31576e-06 2.15822e-19)
(0.0626054 1.31447e-06 3.05238e-19)
(0.0626157 1.31357e-06 1.31573e-19)
(0.0626261 1.31306e-06 4.83295e-19)
(0.0626365 1.31296e-06 -7.46957e-20)
(0.0626468 1.31329e-06 5.7807e-19)
(0.0626571 1.31411e-06 1.00457e-19)
(0.0626674 1.31548e-06 1.18847e-19)
(0.0626777 1.31742e-06 3.7817e-19)
(0.062688 1.31995e-06 5.93184e-19)
(0.0626982 1.3231e-06 6.18661e-19)
(0.0627085 1.32701e-06 5.11389e-19)
(0.0627187 1.33182e-06 3.8829e-19)
(0.0627289 1.33761e-06 3.04238e-19)
(0.0627391 1.34453e-06 2.72491e-19)
(0.0627493 1.35272e-06 2.24705e-19)
(0.0627595 1.36243e-06 3.39794e-19)
(0.0627696 1.37341e-06 -4.28384e-20)
(0.0627798 1.38549e-06 1.04252e-18)
(0.0627899 1.39867e-06 -1.61776e-18)
(0.0628 1.413e-06 3.95609e-18)
(0.0628101 1.42841e-06 -5.83521e-18)
(0.0628201 1.44479e-06 8.44555e-18)
(0.0628302 1.46212e-06 -9.66105e-18)
(0.0628402 1.48023e-06 1.40684e-17)
(0.0628502 1.49906e-06 1.17984e-17)
(0.0628602 1.5176e-06 9.49326e-18)
(0.0628702 1.53651e-06 9.60064e-18)
(0.0628801 1.55219e-06 5.31812e-18)
(0.06289 1.5713e-06 2.30042e-18)
(0.0629 1.57256e-06 5.49575e-18)
(0.0629098 1.59795e-06 -7.49031e-18)
(0.0629197 1.54398e-06 -5.69954e-18)
(0.0629293 1.61578e-06 -5.48436e-18)
(0.0629393 1.38142e-06 -2.12796e-18)
(0.0629487 1.62865e-06 -3.85742e-18)
(0.0629583 9.30221e-07 2.44627e-18)
(0.0629675 1.44289e-06 -5.97694e-18)
(0.0629761 -7.14211e-07 -7.30691e-18)
(0.0596264 1.3077e-06 -7.59662e-20)
(0.0600914 -4.3485e-06 5.12477e-20)
(0.0602746 -1.12673e-05 -1.37569e-20)
(0.0599666 -2.53064e-05 1.63197e-19)
(0.0601849 -4.20078e-05 2.55412e-19)
(0.0604159 -5.451e-05 7.54245e-19)
(0.0604428 -6.02196e-05 2.68884e-19)
(0.0605322 -6.02512e-05 6.76574e-19)
(0.0606883 -5.68897e-05 1.46821e-20)
(0.060812 -5.19733e-05 2.66999e-19)
(0.060906 -4.66487e-05 -1.53168e-19)
(0.0609962 -4.1298e-05 1.77422e-19)
(0.061082 -3.63377e-05 2.64442e-19)
(0.0611582 -3.15633e-05 1.43203e-19)
(0.0612255 -2.73389e-05 6.37981e-19)
(0.0612851 -2.35146e-05 3.17651e-19)
(0.0613379 -1.98217e-05 4.51012e-19)
(0.0613857 -1.56289e-05 3.48503e-19)
(0.0614282 -1.29241e-05 7.1204e-19)
(0.0614654 -1.02626e-05 3.59286e-19)
(0.061499 -8.3285e-06 5.08208e-19)
(0.0615293 -6.67735e-06 4.4651e-19)
(0.0615565 -5.1445e-06 8.10703e-19)
(0.0615811 -3.82764e-06 4.22795e-19)
(0.0616036 -2.68877e-06 5.24111e-19)
(0.0616242 -1.70745e-06 4.50771e-19)
(0.0616434 -8.64924e-07 7.85847e-19)
(0.0616612 -1.36819e-07 4.51303e-19)
(0.061678 4.59585e-07 4.34227e-19)
(0.0616938 9.3474e-07 5.43347e-19)
(0.0617088 1.29609e-06 7.14752e-19)
(0.0617232 1.6304e-06 4.17719e-19)
(0.0617371 1.91427e-06 6.46913e-19)
(0.0617505 2.16482e-06 4.24957e-19)
(0.0617635 2.37712e-06 5.37675e-19)
(0.0617762 2.55656e-06 7.71223e-19)
(0.0617886 2.71329e-06 7.32268e-19)
(0.0618009 2.84813e-06 7.28778e-19)
(0.0618129 2.96295e-06 3.92648e-19)
(0.0618247 3.06182e-06 7.09973e-19)
(0.0618365 3.14311e-06 5.4055e-19)
(0.0618481 3.21155e-06 6.28052e-19)
(0.0618596 3.2679e-06 8.15088e-19)
(0.0618711 3.31554e-06 8.37377e-19)
(0.0618825 3.35553e-06 6.20426e-19)
(0.0618938 3.38801e-06 6.44022e-19)
(0.0619051 3.41496e-06 4.26733e-19)
(0.0619163 3.43786e-06 7.91131e-19)
(0.0619275 3.45781e-06 6.08941e-19)
(0.0619386 3.47416e-06 7.1942e-19)
(0.0619498 3.48776e-06 8.38713e-19)
(0.0619609 3.49814e-06 9.30861e-19)
(0.061972 3.50588e-06 4.51105e-19)
(0.061983 3.51198e-06 1.05087e-18)
(0.0619941 3.5169e-06 -2.34552e-19)
(0.0620051 3.52047e-06 1.62172e-18)
(0.0620161 3.52296e-06 5.50985e-20)
(0.0620271 3.52457e-06 6.83541e-19)
(0.0620381 3.52543e-06 1.28861e-18)
(0.0620491 3.52575e-06 8.7254e-19)
(0.0620601 3.5255e-06 -6.11943e-20)
(0.062071 3.52476e-06 -5.55867e-19)
(0.062082 3.52359e-06 -5.02496e-19)
(0.0620929 3.52202e-06 1.22108e-19)
(0.0621038 3.52012e-06 -7.18232e-20)
(0.0621147 3.51791e-06 1.58283e-18)
(0.0621256 3.51545e-06 -1.14697e-18)
(0.0621365 3.51282e-06 3.7602e-18)
(0.0621474 3.50995e-06 -3.13352e-18)
(0.0621583 3.50687e-06 5.71503e-18)
(0.0621692 3.50364e-06 -6.4394e-18)
(0.06218 3.50029e-06 -4.60938e-18)
(0.0621909 3.49684e-06 -3.98979e-18)
(0.0622017 3.49329e-06 -3.21879e-18)
(0.0622125 3.48961e-06 -2.02646e-18)
(0.0622233 3.48586e-06 -8.36925e-19)
(0.0622342 3.48205e-06 2.07025e-20)
(0.062245 3.47809e-06 4.06732e-19)
(0.0622557 3.47403e-06 8.22797e-19)
(0.0622665 3.46991e-06 3.17277e-19)
(0.0622773 3.46574e-06 1.77487e-18)
(0.062288 3.46152e-06 -1.10088e-18)
(0.0622988 3.45726e-06 3.80699e-18)
(0.0623095 3.45296e-06 -3.20619e-18)
(0.0623203 3.44861e-06 5.71498e-18)
(0.062331 3.44426e-06 -6.51312e-18)
(0.0623417 3.43996e-06 -4.63612e-18)
(0.0623524 3.43563e-06 -4.09697e-18)
(0.062363 3.43128e-06 -3.29963e-18)
(0.0623737 3.42691e-06 -2.05831e-18)
(0.0623844 3.42254e-06 -8.61959e-19)
(0.062395 3.41818e-06 -2.84563e-21)
(0.0624057 3.41381e-06 4.86884e-19)
(0.0624163 3.40946e-06 6.37828e-19)
(0.0624269 3.40514e-06 9.14416e-19)
(0.0624375 3.40085e-06 3.68955e-19)
(0.0624481 3.39662e-06 1.76876e-18)
(0.0624587 3.39243e-06 -1.13587e-18)
(0.0624692 3.3883e-06 3.88618e-18)
(0.0624798 3.38431e-06 -3.31523e-18)
(0.0624903 3.38048e-06 5.68149e-18)
(0.0625008 3.37677e-06 -6.23416e-18)
(0.0625113 3.37318e-06 -4.62075e-18)
(0.0625218 3.3697e-06 -4.23771e-18)
(0.0625323 3.36636e-06 -3.40857e-18)
(0.0625428 3.36317e-06 -2.09256e-18)
(0.0625533 3.36017e-06 -8.31111e-19)
(0.0625637 3.35737e-06 3.97198e-20)
(0.0625741 3.35481e-06 4.95074e-19)
(0.0625846 3.3525e-06 6.68388e-19)
(0.062595 3.35051e-06 8.10324e-19)
(0.0626054 3.34884e-06 6.56386e-19)
(0.0626157 3.3475e-06 1.11063e-18)
(0.0626261 3.34655e-06 2.68893e-19)
(0.0626365 3.34604e-06 1.51053e-18)
(0.0626468 3.34595e-06 2.48356e-19)
(0.0626571 3.34635e-06 8.10125e-19)
(0.0626674 3.34723e-06 1.15107e-18)
(0.0626777 3.34868e-06 7.4818e-19)
(0.062688 3.3508e-06 7.4964e-20)
(0.0626982 3.35366e-06 -2.27368e-19)
(0.0627085 3.35731e-06 -9.59532e-20)
(0.0627187 3.36179e-06 2.15649e-19)
(0.0627289 3.36712e-06 4.91083e-19)
(0.0627391 3.37328e-06 6.61606e-19)
(0.0627493 3.38031e-06 7.19197e-19)
(0.0627595 3.38814e-06 8.30727e-19)
(0.0627696 3.39694e-06 5.82175e-19)
(0.0627798 3.4069e-06 1.32932e-18)
(0.0627899 3.41809e-06 -4.45828e-19)
(0.0628 3.43054e-06 3.10538e-18)
(0.0628101 3.44437e-06 -2.65003e-18)
(0.0628201 3.45962e-06 4.39086e-18)
(0.0628302 3.47623e-06 -1.34832e-18)
(0.0628402 3.49406e-06 4.60352e-19)
(0.0628502 3.51276e-06 4.13155e-18)
(0.0628602 3.53193e-06 3.67898e-18)
(0.0628702 3.55126e-06 7.97855e-18)
(0.0628801 3.56942e-06 1.14874e-18)
(0.06289 3.58685e-06 6.63465e-18)
(0.0629 3.59915e-06 -4.30847e-18)
(0.0629098 3.61175e-06 -4.90244e-18)
(0.0629197 3.6074e-06 -5.13562e-18)
(0.0629293 3.6107e-06 -5.79345e-18)
(0.0629393 3.56425e-06 -2.75328e-18)
(0.0629486 3.54358e-06 -2.89708e-18)
(0.0629584 3.40498e-06 -2.92366e-19)
(0.0629674 3.40162e-06 1.25478e-18)
(0.0629747 3.69583e-06 -2.69318e-18)
(0.0596262 -1.17124e-06 -2.38729e-20)
(0.0600915 -1.08128e-05 1.52771e-20)
(0.0602759 -2.4099e-05 -8.86348e-20)
(0.0599693 -4.72689e-05 1.39141e-19)
(0.0601886 -7.30157e-05 -3.34142e-19)
(0.0604197 -9.16243e-05 7.25509e-19)
(0.0604463 -9.97952e-05 -8.86055e-19)
(0.0605351 -9.9433e-05 1.14994e-18)
(0.0606909 -9.3924e-05 -9.14603e-19)
(0.0608143 -8.59935e-05 7.43508e-19)
(0.0609082 -7.73147e-05 -7.13702e-19)
(0.0609982 -6.8608e-05 8.97269e-19)
(0.0610839 -6.03306e-05 8.1919e-19)
(0.06116 -5.25691e-05 6.57972e-19)
(0.061227 -4.54017e-05 2.20493e-18)
(0.0612866 -3.91359e-05 8.53605e-19)
(0.0613393 -3.30912e-05 1.68876e-18)
(0.0613868 -2.75009e-05 1.26853e-18)
(0.0614291 -2.33275e-05 2.45956e-18)
(0.0614662 -1.94264e-05 1.16765e-18)
(0.0614997 -1.61384e-05 2.11017e-18)
(0.0615298 -1.33699e-05 1.78497e-18)
(0.0615569 -1.0942e-05 2.927e-18)
(0.0615814 -8.85569e-06 1.45453e-18)
(0.0616038 -7.08643e-06 2.21775e-18)
(0.0616244 -5.60378e-06 1.84849e-18)
(0.0616435 -4.37385e-06 2.88049e-18)
(0.0616613 -3.36633e-06 1.57135e-18)
(0.061678 -2.53918e-06 1.9464e-18)
(0.0616937 -1.8531e-06 2.18457e-18)
(0.0617088 -1.28041e-06 2.57062e-18)
(0.0617232 -7.42009e-07 1.59796e-18)
(0.061737 -2.45757e-07 2.50892e-18)
(0.0617505 1.50282e-07 1.5981e-18)
(0.0617635 4.70611e-07 2.32687e-18)
(0.0617762 7.33623e-07 2.86877e-18)
(0.0617886 9.46524e-07 2.56172e-18)
(0.0618009 1.12471e-06 2.5388e-18)
(0.0618129 1.27049e-06 1.49714e-18)
(0.0618247 1.39316e-06 2.71427e-18)
(0.0618365 1.49669e-06 1.95107e-18)
(0.0618481 1.58469e-06 2.56725e-18)
(0.0618596 1.65935e-06 2.96385e-18)
(0.0618711 1.72226e-06 2.85702e-18)
(0.0618824 1.7738e-06 2.16142e-18)
(0.0618938 1.81684e-06 2.3231e-18)
(0.061905 1.85507e-06 1.67835e-18)
(0.0619163 1.88616e-06 2.98782e-18)
(0.0619275 1.9107e-06 2.15539e-18)
(0.0619386 1.93156e-06 2.83671e-18)
(0.0619497 1.94874e-06 3.02339e-18)
(0.0619608 1.96317e-06 3.06466e-18)
(0.0619719 1.97539e-06 1.71242e-18)
(0.061983 1.98574e-06 3.37692e-18)
(0.061994 1.9937e-06 -2.02444e-19)
(0.0620051 1.99996e-06 5.4977e-18)
(0.0620161 2.00495e-06 -1.26108e-19)
(0.0620271 2.00889e-06 3.84451e-18)
(0.0620381 2.0118e-06 3.44521e-18)
(0.0620491 2.01373e-06 1.6361e-18)
(0.06206 2.01495e-06 -5.71134e-19)
(0.062071 2.01555e-06 -1.35283e-18)
(0.0620819 2.01562e-06 -6.87956e-19)
(0.0620929 2.01523e-06 7.71408e-19)
(0.0621038 2.01445e-06 1.33447e-18)
(0.0621147 2.01333e-06 3.24888e-18)
(0.0621256 2.0119e-06 1.07925e-18)
(0.0621365 2.0102e-06 5.06405e-18)
(0.0621474 2.00826e-06 7.01031e-19)
(0.0621583 2.00614e-06 3.99721e-18)
(0.0621691 2.00385e-06 3.04436e-18)
(0.06218 2.00141e-06 1.69139e-18)
(0.0621908 1.99884e-06 3.08499e-19)
(0.0622017 1.99613e-06 -1.0375e-19)
(0.0622125 1.9933e-06 4.42711e-19)
(0.0622233 1.99033e-06 1.38566e-18)
(0.0622341 1.98726e-06 2.14575e-18)
(0.0622449 1.98413e-06 2.49556e-18)
(0.0622557 1.98095e-06 2.86676e-18)
(0.0622665 1.97772e-06 2.41256e-18)
(0.0622773 1.97439e-06 3.77074e-18)
(0.062288 1.97099e-06 1.25293e-18)
(0.0622988 1.9675e-06 5.12792e-18)
(0.0623095 1.96397e-06 6.38855e-19)
(0.0623202 1.96042e-06 4.0219e-18)
(0.062331 1.95676e-06 3.106e-18)
(0.0623417 1.95304e-06 1.63634e-18)
(0.0623524 1.94931e-06 1.78789e-19)
(0.062363 1.94557e-06 -1.83244e-19)
(0.0623737 1.94184e-06 4.3279e-19)
(0.0623844 1.9381e-06 1.31513e-18)
(0.062395 1.93441e-06 2.13663e-18)
(0.0624056 1.93073e-06 2.61558e-18)
(0.0624163 1.92704e-06 2.74077e-18)
(0.0624269 1.92338e-06 2.99812e-18)
(0.0624375 1.91975e-06 2.4847e-18)
(0.0624481 1.91617e-06 3.76716e-18)
(0.0624586 1.91264e-06 1.19207e-18)
(0.0624692 1.90916e-06 5.18115e-18)
(0.0624798 1.90566e-06 5.74975e-19)
(0.0624903 1.90213e-06 3.96305e-18)
(0.0625008 1.8987e-06 3.13741e-18)
(0.0625113 1.89542e-06 1.63762e-18)
(0.0625218 1.89228e-06 7.94852e-20)
(0.0625323 1.88932e-06 -2.41223e-19)
(0.0625428 1.88652e-06 4.20493e-19)
(0.0625533 1.88394e-06 1.41678e-18)
(0.0625637 1.88162e-06 2.21477e-18)
(0.0625741 1.87953e-06 2.6257e-18)
(0.0625846 1.87769e-06 2.7207e-18)
(0.062595 1.87612e-06 2.99729e-18)
(0.0626054 1.87485e-06 2.44741e-18)
(0.0626157 1.87389e-06 3.91376e-18)
(0.0626261 1.87326e-06 1.06686e-18)
(0.0626365 1.87303e-06 5.5014e-18)
(0.0626468 1.87322e-06 4.06406e-19)
(0.0626571 1.87387e-06 3.98291e-18)
(0.0626674 1.87504e-06 3.29571e-18)
(0.0626777 1.87675e-06 1.64136e-18)
(0.062688 1.87904e-06 -1.74747e-19)
(0.0626982 1.88196e-06 -6.70624e-19)
(0.0627085 1.88562e-06 3.6236e-20)
(0.0627187 1.89012e-06 1.122e-18)
(0.0627289 1.89553e-06 2.00204e-18)
(0.0627391 1.90196e-06 2.49697e-18)
(0.0627493 1.90952e-06 2.71356e-18)
(0.0627595 1.91834e-06 2.83196e-18)
(0.0627696 1.92827e-06 2.75549e-18)
(0.0627798 1.93926e-06 3.09302e-18)
(0.0627899 1.95133e-06 2.34235e-18)
(0.0628 1.96451e-06 3.75885e-18)
(0.0628101 1.9788e-06 1.61534e-18)
(0.0628201 1.99419e-06 3.79511e-18)
(0.0628302 2.01063e-06 2.86617e-18)
(0.0628402 2.02803e-06 1.8843e-18)
(0.0628502 2.04623e-06 3.78148e-18)
(0.0628602 2.06518e-06 2.72005e-18)
(0.0628702 2.08418e-06 6.56709e-18)
(0.0628801 2.10404e-06 2.35138e-18)
(0.06289 2.12111e-06 4.56703e-18)
(0.0629 2.14281e-06 3.65362e-18)
(0.0629098 2.14665e-06 1.82693e-18)
(0.0629197 2.18197e-06 1.47974e-19)
(0.0629293 2.13257e-06 -1.03881e-18)
(0.0629393 2.2443e-06 1.72784e-19)
(0.0629487 2.00202e-06 7.64278e-19)
(0.0629583 2.40964e-06 1.63062e-18)
(0.0629676 1.65834e-06 3.27868e-18)
(0.0629749 3.17874e-06 1.89233e-18)
(0.062986 5.0089e-06 2.92251e-18)
(0.0596261 -4.21416e-06 -1.32347e-20)
(0.0600917 -1.82881e-05 3.12705e-20)
(0.060277 -3.79884e-05 -1.65108e-19)
(0.0599717 -7.02011e-05 3.31462e-19)
(0.0601921 -0.000104791 -8.81534e-19)
(0.0604239 -0.000129305 1.56727e-18)
(0.0604506 -0.000139815 -2.59752e-18)
(0.0605393 -0.000139024 3.27493e-18)
(0.0606949 -0.00013139 -3.51631e-18)
(0.0608182 -0.000120489 3.20985e-18)
(0.0609119 -0.000108494 -1.91489e-18)
(0.0610017 -9.64626e-05 4.38564e-18)
(0.0610872 -8.4917e-05 2.19935e-18)
(0.061163 -7.41733e-05 3.46887e-18)
(0.0612297 -6.41642e-05 6.35854e-18)
(0.0612891 -5.53621e-05 2.36048e-18)
(0.0613416 -4.70676e-05 6.52743e-18)
(0.0613888 -3.95898e-05 4.24669e-18)
(0.0614307 -3.35532e-05 7.37693e-18)
(0.0614677 -2.80257e-05 3.88383e-18)
(0.0615009 -2.32606e-05 8.15253e-18)
(0.0615309 -1.92841e-05 5.85677e-18)
(0.0615578 -1.5856e-05 8.67071e-18)
(0.0615822 -1.28975e-05 4.56035e-18)
(0.0616044 -1.03729e-05 8.40252e-18)
(0.0616249 -8.23104e-06 6.05973e-18)
(0.0616439 -6.41432e-06 8.57391e-18)
(0.0616617 -4.87438e-06 4.8544e-18)
(0.0616783 -3.5597e-06 7.784e-18)
(0.0616941 -2.4339e-06 6.93989e-18)
(0.0617091 -1.45651e-06 7.57079e-18)
(0.0617235 -6.31187e-07 5.52914e-18)
(0.0617373 6.08877e-08 8.42495e-18)
(0.0617507 5.80813e-07 5.52217e-18)
(0.0617636 9.95787e-07 9.01604e-18)
(0.0617763 1.3607e-06 8.62031e-18)
(0.0617887 1.67628e-06 7.55665e-18)
(0.0618009 1.94114e-06 7.75382e-18)
(0.0618129 2.16685e-06 5.51163e-18)
(0.0618248 2.35388e-06 9.09155e-18)
(0.0618365 2.51095e-06 6.47532e-18)
(0.0618481 2.63776e-06 9.55591e-18)
(0.0618596 2.74472e-06 8.80658e-18)
(0.0618711 2.83407e-06 8.20361e-18)
(0.0618824 2.9083e-06 6.82155e-18)
(0.0618938 2.97205e-06 7.64918e-18)
(0.061905 3.0262e-06 6.27864e-18)
(0.0619163 3.06807e-06 9.8727e-18)
(0.0619274 3.10282e-06 7.00628e-18)
(0.0619386 3.13227e-06 1.02441e-17)
(0.0619497 3.15892e-06 8.96185e-18)
(0.0619608 3.17973e-06 8.54307e-18)
(0.0619719 3.19628e-06 5.97944e-18)
(0.061983 3.21002e-06 9.61697e-18)
(0.061994 3.22138e-06 2.37729e-18)
(0.0620051 3.23016e-06 1.53644e-17)
(0.0620161 3.23702e-06 6.96601e-19)
(0.0620271 3.2423e-06 1.608e-17)
(0.0620381 3.24629e-06 2.20889e-18)
(0.0620491 3.24963e-06 1.37305e-18)
(0.06206 3.25201e-06 -6.64714e-19)
(0.062071 3.25357e-06 -4.7329e-19)
(0.0620819 3.2544e-06 1.77252e-18)
(0.0620929 3.25459e-06 4.84584e-18)
(0.0621038 3.25425e-06 6.65395e-18)
(0.0621147 3.25345e-06 9.12165e-18)
(0.0621256 3.25224e-06 7.24503e-18)
(0.0621365 3.25071e-06 1.15034e-17)
(0.0621474 3.24887e-06 6.98795e-18)
(0.0621583 3.24674e-06 1.04259e-17)
(0.0621691 3.24437e-06 9.59401e-18)
(0.06218 3.24183e-06 8.1471e-18)
(0.0621908 3.2391e-06 6.67131e-18)
(0.0622017 3.23627e-06 6.28092e-18)
(0.0622125 3.23332e-06 6.77447e-18)
(0.0622233 3.23023e-06 7.77953e-18)
(0.0622341 3.22708e-06 8.58287e-18)
(0.0622449 3.2238e-06 8.90344e-18)
(0.0622557 3.22037e-06 9.23335e-18)
(0.0622665 3.21688e-06 8.85682e-18)
(0.0622773 3.21335e-06 1.01544e-17)
(0.062288 3.20977e-06 7.63188e-18)
(0.0622988 3.20616e-06 1.15912e-17)
(0.0623095 3.20252e-06 6.90503e-18)
(0.0623202 3.19883e-06 1.04896e-17)
(0.0623309 3.19522e-06 9.69627e-18)
(0.0623417 3.19175e-06 8.03752e-18)
(0.0623523 3.18821e-06 6.52645e-18)
(0.062363 3.1846e-06 6.22187e-18)
(0.0623737 3.181e-06 6.76211e-18)
(0.0623844 3.17738e-06 7.57842e-18)
(0.062395 3.17374e-06 8.60908e-18)
(0.0624056 3.17013e-06 9.17705e-18)
(0.0624163 3.1665e-06 9.14447e-18)
(0.0624269 3.16289e-06 9.44982e-18)
(0.0624375 3.15932e-06 8.90961e-18)
(0.0624481 3.1558e-06 1.02541e-17)
(0.0624586 3.15231e-06 7.48699e-18)
(0.0624692 3.14886e-06 1.16325e-17)
(0.0624798 3.14555e-06 6.96953e-18)
(0.0624903 3.14241e-06 1.03008e-17)
(0.0625008 3.13937e-06 9.53305e-18)
(0.0625113 3.13645e-06 8.12043e-18)
(0.0625218 3.13367e-06 6.49784e-18)
(0.0625323 3.13103e-06 6.2224e-18)
(0.0625428 3.12854e-06 6.79056e-18)
(0.0625533 3.12621e-06 7.87957e-18)
(0.0625637 3.12399e-06 8.74817e-18)
(0.0625741 3.12194e-06 9.13158e-18)
(0.0625846 3.12014e-06 9.1117e-18)
(0.062595 3.11862e-06 9.54761e-18)
(0.0626054 3.11741e-06 8.46268e-18)
(0.0626157 3.11658e-06 1.13894e-17)
(0.0626261 3.11615e-06 5.55065e-18)
(0.0626364 3.11612e-06 1.51209e-17)
(0.0626468 3.11651e-06 2.64632e-18)
(0.0626571 3.11735e-06 1.53639e-17)
(0.0626674 3.11866e-06 2.66087e-18)
(0.0626777 3.12051e-06 2.65313e-18)
(0.062688 3.12298e-06 1.21979e-18)
(0.0626982 3.12615e-06 1.61055e-18)
(0.0627085 3.13004e-06 3.57886e-18)
(0.0627187 3.13473e-06 5.92505e-18)
(0.0627289 3.14024e-06 7.67234e-18)
(0.0627391 3.14661e-06 8.60898e-18)
(0.0627493 3.15389e-06 9.02038e-18)
(0.0627595 3.16211e-06 9.20624e-18)
(0.0627696 3.17136e-06 9.16493e-18)
(0.0627798 3.18174e-06 9.34553e-18)
(0.0627899 3.19334e-06 9.14281e-18)
(0.0628 3.20623e-06 9.52683e-18)
(0.0628101 3.22047e-06 8.87274e-18)
(0.0628201 3.23612e-06 9.336e-18)
(0.0628302 3.25316e-06 9.48931e-18)
(0.0628402 3.27161e-06 8.66689e-18)
(0.0628502 3.2911e-06 1.01005e-17)
(0.0628602 3.31182e-06 8.11089e-18)
(0.0628702 3.33237e-06 1.20928e-17)
(0.0628801 3.35538e-06 7.49722e-18)
(0.0628901 3.37305e-06 1.07031e-17)
(0.0629 3.4031e-06 9.63032e-18)
(0.0629098 3.40164e-06 8.0748e-18)
(0.0629197 3.46583e-06 6.65407e-18)
(0.0629293 3.38257e-06 5.95809e-18)
(0.0629393 3.59361e-06 6.70052e-18)
(0.0629487 3.25013e-06 7.79331e-18)
(0.0629582 3.84524e-06 8.3984e-18)
(0.0629677 3.18177e-06 9.29778e-18)
(0.0629759 4.35778e-06 9.06303e-18)
(0.0629862 7.38508e-06 9.38597e-18)
(0.062998 6.06479e-06 9.23452e-18)
(0.059626 -7.12445e-06 2.54169e-21)
(0.0600919 -2.57328e-05 2.74395e-20)
(0.060278 -5.20872e-05 -2.08031e-19)
(0.059974 -9.34777e-05 4.8672e-19)
(0.0601956 -0.000136858 -1.28495e-18)
(0.0604283 -0.000167143 2.39089e-18)
(0.0604555 -0.000179882 -4.35856e-18)
(0.0605444 -0.000178596 6.37502e-18)
(0.0607001 -0.000168801 -8.88658e-18)
(0.0608233 -0.000154897 1.31401e-17)
(0.0609169 -0.000139556 -3.01879e-18)
(0.0610065 -0.000124157 1.68176e-17)
(0.0610916 -0.000109325 4.01544e-18)
(0.0611671 -9.55329e-05 1.48732e-17)
(0.0612335 -8.26856e-05 1.20471e-17)
(0.0612925 -7.12824e-05 8.44816e-18)
(0.0613448 -6.07647e-05 2.19936e-17)
(0.0613915 -5.13217e-05 9.37167e-18)
(0.0614331 -4.3442e-05 1.85965e-17)
(0.0614698 -3.64478e-05 1.36058e-17)
(0.0615027 -3.04006e-05 2.55861e-17)
(0.0615323 -2.53169e-05 1.23709e-17)
(0.061559 -2.09626e-05 2.06103e-17)
(0.0615832 -1.72148e-05 1.43447e-17)
(0.0616053 -1.40224e-05 2.60097e-17)
(0.0616257 -1.13229e-05 1.27753e-17)
(0.0616446 -9.04632e-06 2.04215e-17)
(0.0616622 -7.13216e-06 1.51494e-17)
(0.0616788 -5.52706e-06 2.50608e-17)
(0.0616944 -4.1849e-06 1.41838e-17)
(0.0617094 -3.06847e-06 1.8681e-17)
(0.0617237 -2.15441e-06 1.72178e-17)
(0.0617374 -1.41061e-06 2.32375e-17)
(0.0617507 -7.86919e-07 1.72584e-17)
(0.0617637 -2.24969e-07 2.76214e-17)
(0.0617764 2.83305e-07 1.68904e-17)
(0.0617888 6.8387e-07 1.86389e-17)
(0.061801 1.01907e-06 2.05016e-17)
(0.061813 1.29978e-06 1.79703e-17)
(0.0618248 1.5383e-06 2.4432e-17)
(0.0618366 1.73352e-06 1.89224e-17)
(0.0618482 1.90208e-06 2.83453e-17)
(0.0618597 2.04514e-06 1.70873e-17)
(0.0618711 2.1594e-06 1.94781e-17)
(0.0618825 2.2611e-06 1.91808e-17)
(0.0618938 2.34232e-06 2.1897e-17)
(0.061905 2.4091e-06 1.99547e-17)
(0.0619163 2.46472e-06 2.61419e-17)
(0.0619275 2.51618e-06 2.0103e-17)
(0.0619386 2.55856e-06 2.94913e-17)
(0.0619497 2.59144e-06 1.74523e-17)
(0.0619608 2.61801e-06 1.96704e-17)
(0.0619719 2.63845e-06 1.80061e-17)
(0.061983 2.65602e-06 2.3895e-17)
(0.061994 2.67159e-06 1.44248e-17)
(0.0620051 2.68456e-06 3.30866e-17)
(0.0620161 2.6955e-06 1.1909e-17)
(0.0620271 2.70463e-06 3.64422e-17)
(0.0620381 2.71187e-06 1.09753e-17)
(0.0620491 2.71719e-06 1.1446e-17)
(0.06206 2.7213e-06 1.00441e-17)
(0.062071 2.72434e-06 1.12498e-17)
(0.0620819 2.72647e-06 1.41425e-17)
(0.0620929 2.72781e-06 1.86597e-17)
(0.0621038 2.7285e-06 2.11068e-17)
(0.0621147 2.72863e-06 2.40466e-17)
(0.0621256 2.72827e-06 2.223e-17)
(0.0621365 2.7275e-06 2.78681e-17)
(0.0621474 2.72636e-06 2.02878e-17)
(0.0621583 2.72492e-06 2.95592e-17)
(0.0621691 2.72321e-06 1.80132e-17)
(0.06218 2.72127e-06 1.94906e-17)
(0.0621908 2.71911e-06 1.95582e-17)
(0.0622017 2.71676e-06 2.05611e-17)
(0.0622125 2.71421e-06 2.14173e-17)
(0.0622233 2.71149e-06 2.27371e-17)
(0.0622341 2.70862e-06 2.40804e-17)
(0.0622449 2.70562e-06 2.42038e-17)
(0.0622557 2.70252e-06 2.46672e-17)
(0.0622665 2.69934e-06 2.44478e-17)
(0.0622773 2.69607e-06 2.5501e-17)
(0.062288 2.6927e-06 2.25978e-17)
(0.0622988 2.68922e-06 2.79579e-17)
(0.0623095 2.68568e-06 2.00025e-17)
(0.0623202 2.68204e-06 2.9714e-17)
(0.0623309 2.67824e-06 1.82545e-17)
(0.0623417 2.67432e-06 1.92929e-17)
(0.0623523 2.67043e-06 1.96016e-17)
(0.062363 2.66657e-06 2.05336e-17)
(0.0623737 2.66272e-06 2.13607e-17)
(0.0623844 2.65887e-06 2.25672e-17)
(0.062395 2.65503e-06 2.38935e-17)
(0.0624056 2.65125e-06 2.47508e-17)
(0.0624163 2.64752e-06 2.43844e-17)
(0.0624269 2.6438e-06 2.49854e-17)
(0.0624375 2.64012e-06 2.4189e-17)
(0.0624481 2.63652e-06 2.6285e-17)
(0.0624586 2.633e-06 2.23316e-17)
(0.0624692 2.62955e-06 2.80837e-17)
(0.0624798 2.62636e-06 2.05758e-17)
(0.0624903 2.62347e-06 2.93958e-17)
(0.0625008 2.62066e-06 1.78467e-17)
(0.0625113 2.61791e-06 1.92771e-17)
(0.0625218 2.61522e-06 1.98333e-17)
(0.0625323 2.61265e-06 2.05482e-17)
(0.0625428 2.61021e-06 2.15118e-17)
(0.0625533 2.60795e-06 2.32209e-17)
(0.0625637 2.60596e-06 2.41142e-17)
(0.0625741 2.60419e-06 2.47351e-17)
(0.0625846 2.60267e-06 2.4553e-17)
(0.062595 2.60143e-06 2.48511e-17)
(0.0626054 2.60048e-06 2.35918e-17)
(0.0626157 2.59976e-06 2.76263e-17)
(0.0626261 2.59935e-06 1.98391e-17)
(0.0626364 2.59937e-06 3.24158e-17)
(0.0626468 2.59979e-06 1.61028e-17)
(0.0626571 2.60071e-06 3.18414e-17)
(0.0626674 2.6022e-06 1.79172e-17)
(0.0626777 2.60427e-06 1.69277e-17)
(0.062688 2.60697e-06 1.4339e-17)
(0.0626982 2.61033e-06 1.50046e-17)
(0.0627085 2.61446e-06 1.72248e-17)
(0.0627187 2.61944e-06 2.04919e-17)
(0.0627289 2.62534e-06 2.28759e-17)
(0.0627391 2.6322e-06 2.36756e-17)
(0.0627493 2.64012e-06 2.43928e-17)
(0.0627595 2.64916e-06 2.4741e-17)
(0.0627696 2.6593e-06 2.43728e-17)
(0.0627798 2.67062e-06 2.47151e-17)
(0.0627899 2.68319e-06 2.49499e-17)
(0.0628 2.69702e-06 2.4728e-17)
(0.0628101 2.71219e-06 2.44952e-17)
(0.0628201 2.72874e-06 2.44831e-17)
(0.0628302 2.74665e-06 2.49192e-17)
(0.0628402 2.766e-06 2.43709e-17)
(0.0628502 2.78647e-06 2.60074e-17)
(0.0628602 2.8087e-06 2.29288e-17)
(0.0628702 2.83083e-06 2.8008e-17)
(0.0628802 2.8571e-06 2.05099e-17)
(0.0628901 2.87629e-06 2.98479e-17)
(0.0629 2.91536e-06 1.78067e-17)
(0.0629098 2.91123e-06 1.90499e-17)
(0.0629197 3.00873e-06 2.00161e-17)
(0.0629294 2.90174e-06 2.02586e-17)
(0.0629393 3.19734e-06 2.18112e-17)
(0.0629488 2.80103e-06 2.36672e-17)
(0.0629583 3.53824e-06 2.39442e-17)
(0.0629678 2.90815e-06 2.47829e-17)
(0.0629764 4.27324e-06 2.45083e-17)
(0.0629866 5.46543e-06 2.49956e-17)
(0.0629975 6.70034e-06 2.48944e-17)
(0.0630092 4.64923e-06 2.48997e-17)
(0.059626 -1.01074e-05 7.463e-20)
(0.0600922 -3.33694e-05 -9.50948e-20)
(0.0602791 -6.65515e-05 -7.40896e-20)
(0.0599762 -0.000117203 2.68838e-19)
(0.0601992 -0.000169319 -8.2361e-19)
(0.0604331 -0.000205249 1.33995e-18)
(0.0604611 -0.000220089 -2.62477e-18)
(0.0605505 -0.000218213 3.40387e-18)
(0.0607064 -0.000206189 -2.94401e-18)
(0.0608296 -0.000189232 3.58932e-18)
(0.0609231 -0.000170508 -1.48924e-18)
(0.0610124 -0.000151705 4.48168e-18)
(0.0610973 -0.000133576 2.45883e-18)
(0.0611723 -0.000116702 3.38487e-18)
(0.0612382 -0.000101038 6.62068e-18)
(0.0612968 -8.70428e-05 2.31904e-18)
(0.0613486 -7.43106e-05 6.63894e-18)
(0.0613948 -6.29306e-05 4.27018e-18)
(0.061436 -5.32976e-05 7.73321e-18)
(0.0614723 -4.48531e-05 3.72522e-18)
(0.0615049 -3.74946e-05 8.03621e-18)
(0.0615342 -3.12484e-05 5.6475e-18)
(0.0615606 -2.59202e-05 8.8535e-18)
(0.0615846 -2.13513e-05 4.3609e-18)
(0.0616065 -1.74605e-05 8.18738e-18)
(0.0616267 -1.41677e-05 5.98636e-18)
(0.0616454 -1.13861e-05 8.6219e-18)
(0.0616629 -9.03888e-06 4.75034e-18)
(0.0616793 -7.05789e-06 7.62455e-18)
(0.0616949 -5.38481e-06 6.7648e-18)
(0.0617098 -3.96792e-06 7.66453e-18)
(0.061724 -2.77862e-06 5.35856e-18)
(0.0617378 -1.77406e-06 8.67096e-18)
(0.0617511 -9.05224e-07 5.48227e-18)
(0.061764 -1.72158e-07 9.02415e-18)
(0.0617766 3.94074e-07 8.85275e-18)
(0.061789 8.63608e-07 7.7406e-18)
(0.0618011 1.26308e-06 7.79964e-18)
(0.0618131 1.59837e-06 5.302e-18)
(0.0618249 1.87307e-06 9.00904e-18)