/*--------------------------------*- C++ -*----------------------------------*\
| =========                 |                                                 |
| \\      /  F ield         | OpenFOAM: The Open Source CFD Toolbox           |
|  \\    /   O peration     | Version:  2512                                  |
|   \\  /    A nd           | Website:  www.openfoam.com                      |
|    \\/     M anipulation  |                                                 |
\*---------------------------------------------------------------------------*/
FoamFile
{
    version     2.0;
    format      ascii;
    arch        "LSB;label=32;scalar=64";
    class       volScalarField;
    location    "0.1";
    object      Ux;
}
// * * * * * * * * * * * * * * * * * * * * * * * * * * * * * * * * * * * * * //

dimensions      [0 1 -1 0 0 0 0];

internalField   nonuniform List<scalar> 
8333
(
0.0596267
0.0600903
0.0602709
0.0599602
0.0601778
0.0604102
0.0604393
0.0605306
0.0606879
0.0608123
0.0609066
0.0609968
0.0610826
0.0611588
0.061226
0.0612856
0.0613384
0.0596266
0.0600909
0.0602727
0.0599632
0.060181
0.0604125
0.0604404
0.0605306
0.0606874
0.0608114
0.0609056
0.0609959
0.0610817
0.0611579
0.0612252
0.0612849
0.0613374
0.0613852
0.0614278
0.0614652
0.0614989
0.0615292
0.0615564
0.061581
0.0616035
0.0616241
0.0616433
0.0616611
0.0616778
0.0616937
0.0617087
0.0617231
0.061737
0.0617504
0.0617635
0.0617762
0.0617886
0.0618009
0.0618129
0.0618248
0.0618365
0.0618481
0.0618597
0.0618711
0.0618825
0.0618938
0.0619051
0.0619163
0.0619275
0.0619387
0.0619498
0.0619609
0.061972
0.0619831
0.0619941
0.0620051
0.0620161
0.0620271
0.0620381
0.0620491
0.0620601
0.062071
0.062082
0.0620929
0.0621038
0.0621148
0.0621257
0.0621366
0.0621474
0.0621583
0.0621692
0.06218
0.0621909
0.0622017
0.0622125
0.0622234
0.0622342
0.062245
0.0622558
0.0622665
0.0622773
0.0622881
0.0622988
0.0623095
0.0623203
0.062331
0.0623417
0.0623524
0.0623631
0.0623737
0.0623844
0.062395
0.0624057
0.0624163
0.0624269
0.0624375
0.0624481
0.0624587
0.0624692
0.0624798
0.0624903
0.0625008
0.0625114
0.0625219
0.0625323
0.0625428
0.0625533
0.0625637
0.0625741
0.0625846
0.062595
0.0626054
0.0626157
0.0626261
0.0626365
0.0626468
0.0626571
0.0626674
0.0626777
0.062688
0.0626982
0.0627085
0.0627187
0.0627289
0.0627391
0.0627493
0.0627595
0.0627696
0.0627798
0.0627899
0.0628
0.0628101
0.0628201
0.0628302
0.0628402
0.0628502
0.0628602
0.0628702
0.0628801
0.06289
0.0629
0.0629098
0.0629197
0.0629293
0.0629393
0.0629487
0.0629583
0.0629675
0.0629761
0.0596264
0.0600914
0.0602746
0.0599666
0.0601849
0.0604159
0.0604428
0.0605322
0.0606883
0.060812
0.060906
0.0609962
0.061082
0.0611582
0.0612255
0.0612851
0.0613379
0.0613857
0.0614282
0.0614654
0.061499
0.0615293
0.0615565
0.0615811
0.0616036
0.0616242
0.0616434
0.0616612
0.061678
0.0616938
0.0617088
0.0617232
0.0617371
0.0617505
0.0617635
0.0617762
0.0617886
0.0618009
0.0618129
0.0618247
0.0618365
0.0618481
0.0618596
0.0618711
0.0618825
0.0618938
0.0619051
0.0619163
0.0619275
0.0619386
0.0619498
0.0619609
0.061972
0.061983
0.0619941
0.0620051
0.0620161
0.0620271
0.0620381
0.0620491
0.0620601
0.062071
0.062082
0.0620929
0.0621038
0.0621147
0.0621256
0.0621365
0.0621474
0.0621583
0.0621692
0.06218
0.0621909
0.0622017
0.0622125
0.0622233
0.0622342
0.062245
0.0622557
0.0622665
0.0622773
0.062288
0.0622988
0.0623095
0.0623203
0.062331
0.0623417
0.0623524
0.062363
0.0623737
0.0623844
0.062395
0.0624057
0.0624163
0.0624269
0.0624375
0.0624481
0.0624587
0.0624692
0.0624798
0.0624903
0.0625008
0.0625113
0.0625218
0.0625323
0.0625428
0.0625533
0.0625637
0.0625741
0.0625846
0.062595
0.0626054
0.0626157
0.0626261
0.0626365
0.0626468
0.0626571
0.0626674
0.0626777
0.062688
0.0626982
0.0627085
0.0627187
0.0627289
0.0627391
0.0627493
0.0627595
0.0627696
0.0627798
0.0627899
0.0628
0.0628101
0.0628201
0.0628302
0.0628402
0.0628502
0.0628602
0.0628702
0.0628801
0.06289
0.0629
0.0629098
0.0629197
0.0629293
0.0629393
0.0629486
0.0629584
0.0629674
0.0629747
0.0596262
0.0600915
0.0602759
0.0599693
0.0601886
0.0604197
0.0604463
0.0605351
0.0606909
0.0608143
0.0609082
0.0609982
0.0610839
0.06116
0.061227
0.0612866
0.0613393
0.0613868
0.0614291
0.0614662
0.0614997
0.0615298
0.0615569
0.0615814
0.0616038
0.0616244
0.0616435
0.0616613
0.061678
0.0616937
0.0617088
0.0617232
0.061737
0.0617505
0.0617635
0.0617762
0.0617886
0.0618009
0.0618129
0.0618247
0.0618365
0.0618481
0.0618596
0.0618711
0.0618824
0.0618938
0.061905
0.0619163
0.0619275
0.0619386
0.0619497
0.0619608
0.0619719
0.061983
0.061994
0.0620051
0.0620161
0.0620271
0.0620381
0.0620491
0.06206
0.062071
0.0620819
0.0620929
0.0621038
0.0621147
0.0621256
0.0621365
0.0621474
0.0621583
0.0621691
0.06218
0.0621908
0.0622017
0.0622125
0.0622233
0.0622341
0.0622449
0.0622557
0.0622665
0.0622773
0.062288
0.0622988
0.0623095
0.0623202
0.062331
0.0623417
0.0623524
0.062363
0.0623737
0.0623844
0.062395
0.0624056
0.0624163
0.0624269
0.0624375
0.0624481
0.0624586
0.0624692
0.0624798
0.0624903
0.0625008
0.0625113
0.0625218
0.0625323
0.0625428
0.0625533
0.0625637
0.0625741
0.0625846
0.062595
0.0626054
0.0626157
0.0626261
0.0626365
0.0626468
0.0626571
0.0626674
0.0626777
0.062688
0.0626982
0.0627085
0.0627187
0.0627289
0.0627391
0.0627493
0.0627595
0.0627696
0.0627798
0.0627899
0.0628
0.0628101
0.0628201
0.0628302
0.0628402
0.0628502
0.0628602
0.0628702
0.0628801
0.06289
0.0629
0.0629098
0.0629197
0.0629293
0.0629393
0.0629487
0.0629583
0.0629676
0.0629749
0.062986
0.0596261
0.0600917
0.060277
0.0599717
0.0601921
0.0604239
0.0604506
0.0605393
0.0606949
0.0608182
0.0609119
0.0610017
0.0610872
0.061163
0.0612297
0.0612891
0.0613416
0.0613888
0.0614307
0.0614677
0.0615009
0.0615309
0.0615578
0.0615822
0.0616044
0.0616249
0.0616439
0.0616617
0.0616783
0.0616941
0.0617091
0.0617235
0.0617373
0.0617507
0.0617636
0.0617763
0.0617887
0.0618009
0.0618129
0.0618248
0.0618365
0.0618481
0.0618596
0.0618711
0.0618824
0.0618938
0.061905
0.0619163
0.0619274
0.0619386
0.0619497
0.0619608
0.0619719
0.061983
0.061994
0.0620051
0.0620161
0.0620271
0.0620381
0.0620491
0.06206
0.062071
0.0620819
0.0620929
0.0621038
0.0621147
0.0621256
0.0621365
0.0621474
0.0621583
0.0621691
0.06218
0.0621908
0.0622017
0.0622125
0.0622233
0.0622341
0.0622449
0.0622557
0.0622665
0.0622773
0.062288
0.0622988
0.0623095
0.0623202
0.0623309
0.0623417
0.0623523
0.062363
0.0623737
0.0623844
0.062395
0.0624056
0.0624163
0.0624269
0.0624375
0.0624481
0.0624586
0.0624692
0.0624798
0.0624903
0.0625008
0.0625113
0.0625218
0.0625323
0.0625428
0.0625533
0.0625637
0.0625741
0.0625846
0.062595
0.0626054
0.0626157
0.0626261
0.0626364
0.0626468
0.0626571
0.0626674
0.0626777
0.062688
0.0626982
0.0627085
0.0627187
0.0627289
0.0627391
0.0627493
0.0627595
0.0627696
0.0627798
0.0627899
0.0628
0.0628101
0.0628201
0.0628302
0.0628402
0.0628502
0.0628602
0.0628702
0.0628801
0.0628901
0.0629
0.0629098
0.0629197
0.0629293
0.0629393
0.0629487
0.0629582
0.0629677
0.0629759
0.0629862
0.062998
0.059626
0.0600919
0.060278
0.059974
0.0601956
0.0604283
0.0604555
0.0605444
0.0607001
0.0608233
0.0609169
0.0610065
0.0610916
0.0611671
0.0612335
0.0612925
0.0613448
0.0613915
0.0614331
0.0614698
0.0615027
0.0615323
0.061559
0.0615832
0.0616053
0.0616257
0.0616446
0.0616622
0.0616788
0.0616944
0.0617094
0.0617237
0.0617374
0.0617507
0.0617637
0.0617764
0.0617888
0.061801
0.061813
0.0618248
0.0618366
0.0618482
0.0618597
0.0618711
0.0618825
0.0618938
0.061905
0.0619163
0.0619275
0.0619386
0.0619497
0.0619608
0.0619719
0.061983
0.061994
0.0620051
0.0620161
0.0620271
0.0620381
0.0620491
0.06206
0.062071
0.0620819
0.0620929
0.0621038
0.0621147
0.0621256
0.0621365
0.0621474
0.0621583
0.0621691
0.06218
0.0621908
0.0622017
0.0622125
0.0622233
0.0622341
0.0622449
0.0622557
0.0622665
0.0622773
0.062288
0.0622988
0.0623095
0.0623202
0.0623309
0.0623417
0.0623523
0.062363
0.0623737
0.0623844
0.062395
0.0624056
0.0624163
0.0624269
0.0624375
0.0624481
0.0624586
0.0624692
0.0624798
0.0624903
0.0625008
0.0625113
0.0625218
0.0625323
0.0625428
0.0625533
0.0625637
0.0625741
0.0625846
0.062595
0.0626054
0.0626157
0.0626261
0.0626364
0.0626468
0.0626571
0.0626674
0.0626777
0.062688
0.0626982
0.0627085
0.0627187
0.0627289
0.0627391
0.0627493
0.0627595
0.0627696
0.0627798
0.0627899
0.0628
0.0628101
0.0628201
0.0628302
0.0628402
0.0628502
0.0628602
0.0628702
0.0628802
0.0628901
0.0629
0.0629098
0.0629197
0.0629294
0.0629393
0.0629488
0.0629583
0.0629678
0.0629764
0.0629866
0.0629975
0.0630092
0.059626
0.0600922
0.0602791
0.0599762
0.0601992
0.0604331
0.0604611
0.0605505
0.0607064
0.0608296
0.0609231
0.0610124
0.0610973
0.0611723
0.0612382
0.0612968
0.0613486
0.0613948
0.061436
0.0614723
0.0615049
0.0615342
0.0615606
0.0615846
0.0616065
0.0616267
0.0616454
0.0616629
0.0616793
0.0616949
0.0617098
0.061724
0.0617378
0.0617511
0.061764
0.0617766
0.061789
0.0618011
0.0618131
0.0618249
0.0618366
0.0618482
0.0618597
0.0618711
0.0618825
0.0618938
0.0619051
0.0619163
0.0619275
0.0619386
0.0619497
0.0619609
0.0619719
0.061983
0.061994
0.0620051
0.0620161
0.0620271
0.0620381
0.0620491
0.06206
0.062071
0.0620819
0.0620929
0.0621038
0.0621147
0.0621256
0.0621365
0.0621474
0.0621583
0.0621691
0.06218
0.0621908
0.0622017
0.0622125
0.0622233
0.0622341
0.0622449
0.0622557
0.0622665
0.0622773
0.062288
0.0622988
0.0623095
0.0623202
0.0623309
0.0623416
0.0623523
0.062363
0.0623737
0.0623844
0.062395
0.0624056
0.0624163
0.0624269
0.0624375
0.0624481
0.0624586
0.0624692
0.0624798
0.0624903
0.0625008
0.0625113
0.0625218
0.0625323
0.0625428
0.0625533
0.0625637
0.0625741
0.0625846
0.062595
0.0626054
0.0626157
0.0626261
0.0626364
0.0626468
0.0626571
0.0626674
0.0626777
0.062688
0.0626982
0.0627085
0.0627187
0.0627289
0.0627391
0.0627493
0.0627595
0.0627696
0.0627798
0.0627899
0.0628
0.0628101
0.0628201
0.0628302
0.0628402
0.0628502
0.0628602
0.0628702
0.0628802
0.0628901
0.0629
0.0629098
0.0629197
0.0629294
0.0629393
0.0629488
0.0629583
0.062968
0.0629768
0.062987
0.0629978
0.0630073
0.0596259
0.0600926
0.0602802
0.0599786
0.060203
0.0604383
0.0604674
0.0605575
0.0607138
0.0608372
0.0609306
0.0610196
0.061104
0.0611786
0.0612439
0.0613019
0.0613532
0.0613989
0.0614394
0.0614754
0.0615075
0.0615364
0.0615625
0.0615862
0.0616079
0.0616278
0.0616464
0.0616637
0.06168
0.0616955
0.0617103
0.0617244
0.0617381
0.0617513
0.0617642
0.0617768
0.0617891
0.0618013
0.0618132
0.061825
0.0618367
0.0618483
0.0618598
0.0618712
0.0618826
0.0618938
0.0619051
0.0619163
0.0619275
0.0619386
0.0619498
0.0619609
0.0619719
0.061983
0.0619941
0.0620051
0.0620161
0.0620271
0.0620381
0.0620491
0.06206
0.062071
0.0620819
0.0620929
0.0621038
0.0621147
0.0621256
0.0621365
0.0621474
0.0621583
0.0621691
0.06218
0.0621908
0.0622017
0.0622125
0.0622233
0.0622341
0.0622449
0.0622557
0.0622665
0.0622773
0.062288
0.0622988
0.0623095
0.0623202
0.0623309
0.0623416
0.0623523
0.062363
0.0623737
0.0623844
0.062395
0.0624056
0.0624163
0.0624269
0.0624375
0.0624481
0.0624586
0.0624692
0.0624798
0.0624903
0.0625008
0.0625113
0.0625218
0.0625323
0.0625428
0.0625533
0.0625637
0.0625741
0.0625846
0.062595
0.0626054
0.0626157
0.0626261
0.0626364
0.0626468
0.0626571
0.0626674
0.0626777
0.062688
0.0626982
0.0627085
0.0627187
0.0627289
0.0627391
0.0627493
0.0627595
0.0627696
0.0627798
0.0627899
0.0628
0.0628101
0.0628202
0.0628302
0.0628402
0.0628503
0.0628602
0.0628702
0.0628802
0.0628901
0.0629
0.0629098
0.0629197
0.0629294
0.0629393
0.0629489
0.0629584
0.0629681
0.0629772
0.0629873
0.0629978
0.063007
0.0630176
0.0596259
0.060093
0.0602814
0.0599811
0.0602071
0.0604441
0.0604745
0.0605655
0.0607224
0.060846
0.0609393
0.061028
0.0611119
0.0611859
0.0612506
0.0613079
0.0613586
0.0614035
0.0614435
0.0614789
0.0615105
0.061539
0.0615647
0.0615881
0.0616094
0.0616292
0.0616475
0.0616647
0.0616809
0.0616962
0.0617109
0.0617249
0.0617385
0.0617517
0.0617645
0.0617771
0.0617894
0.0618014
0.0618134
0.0618251
0.0618368
0.0618484
0.0618599
0.0618713
0.0618826
0.0618939
0.0619051
0.0619163
0.0619275
0.0619387
0.0619498
0.0619609
0.061972
0.061983
0.0619941
0.0620051
0.0620161
0.0620271
0.0620381
0.0620491
0.06206
0.062071
0.0620819
0.0620929
0.0621038
0.0621147
0.0621256
0.0621365
0.0621474
0.0621583
0.0621691
0.06218
0.0621908
0.0622017
0.0622125
0.0622233
0.0622341
0.0622449
0.0622557
0.0622665
0.0622773
0.062288
0.0622988
0.0623095
0.0623202
0.0623309
0.0623416
0.0623523
0.062363
0.0623737
0.0623844
0.062395
0.0624056
0.0624163
0.0624269
0.0624375
0.0624481
0.0624586
0.0624692
0.0624798
0.0624903
0.0625008
0.0625113
0.0625218
0.0625323
0.0625428
0.0625533
0.0625637
0.0625741
0.0625846
0.062595
0.0626054
0.0626157
0.0626261
0.0626364
0.0626468
0.0626571
0.0626674
0.0626777
0.062688
0.0626982
0.0627085
0.0627187
0.0627289
0.0627391
0.0627493
0.0627595
0.0627696
0.0627798
0.0627899
0.0628
0.0628101
0.0628202
0.0628302
0.0628402
0.0628503
0.0628603
0.0628702
0.0628802
0.0628901
0.0629
0.0629099
0.0629197
0.0629295
0.0629393
0.062949
0.0629584
0.0629682
0.0629775
0.0629875
0.0629979
0.0630075
0.0630175
0.0630299
0.059626
0.0600934
0.0602828
0.0599838
0.0602117
0.0604505
0.0604825
0.0605747
0.0607322
0.0608561
0.0609493
0.0610377
0.061121
0.0611943
0.0612582
0.0613147
0.0613647
0.0614089
0.0614481
0.0614829
0.061514
0.0615419
0.0615672
0.0615902
0.0616113
0.0616307
0.0616488
0.0616658
0.0616818
0.061697
0.0617115
0.0617255
0.061739
0.0617521
0.0617648
0.0617773
0.0617896
0.0618016
0.0618135
0.0618253
0.0618369
0.0618485
0.0618599
0.0618713
0.0618827
0.0618939
0.0619052
0.0619164
0.0619276
0.0619387
0.0619498
0.0619609
0.061972
0.061983
0.0619941
0.0620051
0.0620161
0.0620271
0.0620381
0.0620491
0.06206
0.062071
0.0620819
0.0620929
0.0621038
0.0621147
0.0621256
0.0621365
0.0621474
0.0621583
0.0621691
0.06218
0.0621908
0.0622017
0.0622125
0.0622233
0.0622341
0.0622449
0.0622557
0.0622665
0.0622773
0.062288
0.0622988
0.0623095
0.0623202
0.0623309
0.0623416
0.0623523
0.062363
0.0623737
0.0623843
0.062395
0.0624056
0.0624163
0.0624269
0.0624375
0.0624481
0.0624586
0.0624692
0.0624798
0.0624903
0.0625008
0.0625113
0.0625218
0.0625323
0.0625428
0.0625533
0.0625637
0.0625741
0.0625846
0.062595
0.0626054
0.0626157
0.0626261
0.0626364
0.0626468
0.0626571
0.0626674
0.0626777
0.062688
0.0626982
0.0627085
0.0627187
0.0627289
0.0627391
0.0627493
0.0627595
0.0627697
0.0627798
0.0627899
0.0628
0.0628101
0.0628202
0.0628302
0.0628403
0.0628503
0.0628603
0.0628702
0.0628802
0.0628901
0.0629
0.0629099
0.0629198
0.0629295
0.0629393
0.062949
0.0629586
0.0629684
0.0629778
0.0629877
0.0629979
0.0630078
0.0630177
0.0630277
0.059626
0.0600939
0.0602843
0.0599868
0.0602166
0.0604576
0.0604914
0.0605849
0.0607433
0.0608675
0.0609606
0.0610486
0.0611312
0.0612037
0.0612668
0.0613224
0.0613715
0.0614148
0.0614533
0.0614874
0.0615178
0.0615452
0.06157
0.0615926
0.0616133
0.0616324
0.0616502
0.061667
0.0616828
0.0616978
0.0617122
0.0617261
0.0617395
0.0617525
0.0617652
0.0617776
0.0617898
0.0618018
0.0618137
0.0618254
0.0618371
0.0618486
0.06186
0.0618714
0.0618827
0.061894
0.0619052
0.0619164
0.0619276
0.0619387
0.0619498
0.0619609
0.061972
0.061983
0.0619941
0.0620051
0.0620161
0.0620271
0.0620381
0.0620491
0.06206
0.062071
0.0620819
0.0620929
0.0621038
0.0621147
0.0621256
0.0621365
0.0621474
0.0621583
0.0621691
0.06218
0.0621908
0.0622017
0.0622125
0.0622233
0.0622341
0.0622449
0.0622557
0.0622665
0.0622773
0.062288
0.0622988
0.0623095
0.0623202
0.0623309
0.0623416
0.0623523
0.062363
0.0623737
0.0623843
0.062395
0.0624056
0.0624163
0.0624269
0.0624375
0.0624481
0.0624586
0.0624692
0.0624797
0.0624903
0.0625008
0.0625113
0.0625218
0.0625323
0.0625428
0.0625533
0.0625637
0.0625741
0.0625846
0.062595
0.0626054
0.0626157
0.0626261
0.0626364
0.0626468
0.0626571
0.0626674
0.0626777
0.062688
0.0626982
0.0627085
0.0627187
0.0627289
0.0627391
0.0627493
0.0627595
0.0627697
0.0627798
0.0627899
0.0628
0.0628101
0.0628202
0.0628302
0.0628403
0.0628503
0.0628603
0.0628703
0.0628802
0.0628901
0.0629001
0.0629099
0.0629198
0.0629296
0.0629393
0.0629491
0.0629587
0.0629685
0.062978
0.0629879
0.0629981
0.063008
0.0630179
0.0630275
0.0630382
0.059626
0.0600945
0.060286
0.0599902
0.0602222
0.0604655
0.0605014
0.0605964
0.0607557
0.0608803
0.0609733
0.0610607
0.0611427
0.0612142
0.0612763
0.0613309
0.061379
0.0614214
0.061459
0.0614923
0.0615221
0.0615488
0.0615731
0.0615952
0.0616155
0.0616343
0.0616518
0.0616683
0.0616839
0.0616988
0.061713
0.0617267
0.06174
0.061753
0.0617656
0.0617779
0.0617901
0.0618021
0.0618139
0.0618256
0.0618372
0.0618487
0.0618601
0.0618715
0.0618828
0.0618941
0.0619053
0.0619165
0.0619276
0.0619388
0.0619499
0.0619609
0.061972
0.0619831
0.0619941
0.0620051
0.0620161
0.0620271
0.0620381
0.0620491
0.06206
0.062071
0.0620819
0.0620929
0.0621038
0.0621147
0.0621256
0.0621365
0.0621474
0.0621583
0.0621691
0.06218
0.0621908
0.0622017
0.0622125
0.0622233
0.0622341
0.0622449
0.0622557
0.0622665
0.0622773
0.062288
0.0622988
0.0623095
0.0623202
0.0623309
0.0623416
0.0623523
0.062363
0.0623737
0.0623843
0.062395
0.0624056
0.0624163
0.0624269
0.0624375
0.0624481
0.0624586
0.0624692
0.0624797
0.0624903
0.0625008
0.0625113
0.0625218
0.0625323
0.0625428
0.0625533
0.0625637
0.0625741
0.0625846
0.062595
0.0626054
0.0626157
0.0626261
0.0626364
0.0626468
0.0626571
0.0626674
0.0626777
0.062688
0.0626982
0.0627085
0.0627187
0.0627289
0.0627391
0.0627493
0.0627595
0.0627697
0.0627798
0.0627899
0.0628
0.0628101
0.0628202
0.0628302
0.0628403
0.0628503
0.0628603
0.0628703
0.0628802
0.0628902
0.0629001
0.0629099
0.0629198
0.0629296
0.0629394
0.0629492
0.0629588
0.0629686
0.0629782
0.0629881
0.0629982
0.0630082
0.063018
0.0630279
0.0630381
0.0630488
0.0596261
0.0600951
0.0602878
0.0599939
0.0602283
0.0604744
0.0605126
0.0606092
0.0607696
0.0608946
0.0609874
0.0610743
0.0611553
0.0612259
0.0612868
0.0613403
0.0613873
0.0614287
0.0614652
0.0614977
0.0615267
0.0615528
0.0615764
0.061598
0.0616179
0.0616363
0.0616535
0.0616698
0.0616851
0.0616998
0.0617139
0.0617275
0.0617406
0.0617535
0.061766
0.0617783
0.0617904
0.0618023
0.0618141
0.0618258
0.0618373
0.0618488
0.0618602
0.0618716
0.0618829
0.0618941
0.0619053
0.0619165
0.0619277
0.0619388
0.0619499
0.061961
0.061972
0.0619831
0.0619941
0.0620051
0.0620161
0.0620271
0.0620381
0.0620491
0.0620601
0.062071
0.0620819
0.0620929
0.0621038
0.0621147
0.0621256
0.0621365
0.0621474
0.0621583
0.0621691
0.06218
0.0621908
0.0622017
0.0622125
0.0622233
0.0622341
0.0622449
0.0622557
0.0622665
0.0622773
0.062288
0.0622988
0.0623095
0.0623202
0.0623309
0.0623416
0.0623523
0.062363
0.0623737
0.0623843
0.062395
0.0624056
0.0624163
0.0624269
0.0624375
0.0624481
0.0624586
0.0624692
0.0624797
0.0624903
0.0625008
0.0625113
0.0625218
0.0625323
0.0625428
0.0625532
0.0625637
0.0625741
0.0625846
0.062595
0.0626054
0.0626157
0.0626261
0.0626364
0.0626468
0.0626571
0.0626674
0.0626777
0.062688
0.0626983
0.0627085
0.0627187
0.062729
0.0627392
0.0627493
0.0627595
0.0627697
0.0627798
0.0627899
0.0628
0.0628101
0.0628202
0.0628303
0.0628403
0.0628503
0.0628603
0.0628703
0.0628802
0.0628902
0.0629001
0.06291
0.0629198
0.0629297
0.0629394
0.0629492
0.0629589
0.0629687
0.0629784
0.0629883
0.0629983
0.0630083
0.0630182
0.0630281
0.0630383
0.0630485
0.0630606
0.0596261
0.0600958
0.06029
0.0599981
0.0602352
0.0604842
0.060525
0.0606235
0.0607849
0.0609104
0.0610029
0.0610891
0.0611692
0.0612386
0.0612983
0.0613505
0.0613963
0.0614365
0.061472
0.0615035
0.0615317
0.061557
0.06158
0.0616011
0.0616205
0.0616385
0.0616554
0.0616713
0.0616864
0.0617009
0.0617148
0.0617282
0.0617413
0.061754
0.0617665
0.0617787
0.0617907
0.0618026
0.0618143
0.061826
0.0618375
0.061849
0.0618603
0.0618717
0.061883
0.0618942
0.0619054
0.0619166
0.0619277
0.0619388
0.0619499
0.061961
0.0619721
0.0619831
0.0619941
0.0620051
0.0620162
0.0620271
0.0620381
0.0620491
0.0620601
0.062071
0.0620819
0.0620929
0.0621038
0.0621147
0.0621256
0.0621365
0.0621474
0.0621583
0.0621691
0.06218
0.0621908
0.0622017
0.0622125
0.0622233
0.0622341
0.0622449
0.0622557
0.0622665
0.0622773
0.062288
0.0622988
0.0623095
0.0623202
0.0623309
0.0623416
0.0623523
0.062363
0.0623737
0.0623843
0.062395
0.0624056
0.0624163
0.0624269
0.0624375
0.0624481
0.0624586
0.0624692
0.0624797
0.0624903
0.0625008
0.0625113
0.0625218
0.0625323
0.0625428
0.0625532
0.0625637
0.0625741
0.0625846
0.062595
0.0626054
0.0626157
0.0626261
0.0626364
0.0626468
0.0626571
0.0626674
0.0626777
0.062688
0.0626983
0.0627085
0.0627187
0.062729
0.0627392
0.0627493
0.0627595
0.0627697
0.0627798
0.0627899
0.0628
0.0628101
0.0628202
0.0628303
0.0628403
0.0628503
0.0628603
0.0628703
0.0628803
0.0628902
0.0629001
0.06291
0.0629199
0.0629297
0.0629395
0.0629493
0.062959
0.0629688
0.0629786
0.0629885
0.0629985
0.0630084
0.0630184
0.0630282
0.0630386
0.0630486
0.0630582
0.0596262
0.0600967
0.0602924
0.0600028
0.0602429
0.0604952
0.0605387
0.0606392
0.0608019
0.0609277
0.06102
0.0611054
0.0611843
0.0612524
0.0613107
0.0613615
0.0614059
0.0614449
0.0614793
0.0615098
0.061537
0.0615616
0.0615839
0.0616044
0.0616232
0.0616408
0.0616573
0.061673
0.0616878
0.0617021
0.0617158
0.0617291
0.061742
0.0617546
0.0617669
0.0617791
0.0617911
0.0618029
0.0618146
0.0618262
0.0618377
0.0618491
0.0618605
0.0618718
0.061883
0.0618943
0.0619055
0.0619166
0.0619277
0.0619389
0.06195
0.061961
0.0619721
0.0619831
0.0619941
0.0620052
0.0620162
0.0620272
0.0620381
0.0620491
0.0620601
0.062071
0.062082
0.0620929
0.0621038
0.0621147
0.0621256
0.0621365
0.0621474
0.0621583
0.0621691
0.06218
0.0621908
0.0622017
0.0622125
0.0622233
0.0622341
0.0622449
0.0622557
0.0622665
0.0622773
0.062288
0.0622988
0.0623095
0.0623202
0.0623309
0.0623416
0.0623523
0.062363
0.0623737
0.0623843
0.062395
0.0624056
0.0624162
0.0624269
0.0624375
0.0624481
0.0624586
0.0624692
0.0624797
0.0624903
0.0625008
0.0625113
0.0625218
0.0625323
0.0625428
0.0625532
0.0625637
0.0625741
0.0625846
0.062595
0.0626054
0.0626157
0.0626261
0.0626364
0.0626468
0.0626571
0.0626674
0.0626777
0.062688
0.0626983
0.0627085
0.0627187
0.062729
0.0627392
0.0627493
0.0627595
0.0627697
0.0627798
0.0627899
0.0628
0.0628101
0.0628202
0.0628303
0.0628403
0.0628503
0.0628603
0.0628703
0.0628803
0.0628902
0.0629001
0.06291
0.0629199
0.0629297
0.0629396
0.0629494
0.0629591
0.0629689
0.0629787
0.0629886
0.0629986
0.0630085
0.0630185
0.0630284
0.0630386
0.0630487
0.063058
0.0630688
0.0596263
0.0600976
0.0602951
0.0600081
0.0602515
0.0605074
0.060554
0.0606567
0.0608206
0.0609467
0.0610386
0.0611231
0.0612007
0.0612673
0.0613241
0.0613734
0.0614163
0.0614539
0.0614871
0.0615164
0.0615427
0.0615664
0.061588
0.0616078
0.0616262
0.0616433
0.0616594
0.0616747
0.0616893
0.0617033
0.0617168
0.0617299
0.0617427
0.0617552
0.0617675
0.0617795
0.0617914
0.0618032
0.0618148
0.0618264
0.0618379
0.0618493
0.0618606
0.0618719
0.0618831
0.0618943
0.0619055
0.0619167
0.0619278
0.0619389
0.06195
0.0619611
0.0619721
0.0619831
0.0619942
0.0620052
0.0620162
0.0620272
0.0620381
0.0620491
0.0620601
0.062071
0.062082
0.0620929
0.0621038
0.0621147
0.0621256
0.0621365
0.0621474
0.0621583
0.0621691
0.06218
0.0621908
0.0622017
0.0622125
0.0622233
0.0622341
0.0622449
0.0622557
0.0622665
0.0622773
0.062288
0.0622988
0.0623095
0.0623202
0.0623309
0.0623416
0.0623523
0.062363
0.0623737
0.0623843
0.062395
0.0624056
0.0624162
0.0624269
0.0624375
0.062448
0.0624586
0.0624692
0.0624797
0.0624903
0.0625008
0.0625113
0.0625218
0.0625323
0.0625428
0.0625532
0.0625637
0.0625741
0.0625846
0.062595
0.0626054
0.0626157
0.0626261
0.0626364
0.0626468
0.0626571
0.0626674
0.0626777
0.062688
0.0626983
0.0627085
0.0627187
0.062729
0.0627392
0.0627494
0.0627595
0.0627697
0.0627798
0.0627899
0.0628001
0.0628101
0.0628202
0.0628303
0.0628403
0.0628503
0.0628603
0.0628703
0.0628803
0.0628902
0.0629002
0.0629101
0.0629199
0.0629298
0.0629396
0.0629494
0.0629592
0.062969
0.0629789
0.0629887
0.0629987
0.0630086
0.0630187
0.0630285
0.0630387
0.0630488
0.0630583
0.0630685
0.0630809
0.0596263
0.0600987
0.0602981
0.0600141
0.0602611
0.0605209
0.0605709
0.0606759
0.0608411
0.0609675
0.0610589
0.0611423
0.0612185
0.0612834
0.0613385
0.061386
0.0614274
0.0614635
0.0614953
0.0615235
0.0615487
0.0615715
0.0615923
0.0616115
0.0616293
0.0616459
0.0616616
0.0616765
0.0616908
0.0617046
0.0617179
0.0617308
0.0617435
0.0617558
0.061768
0.06178
0.0617918
0.0618035
0.0618151
0.0618266
0.0618381
0.0618494
0.0618607
0.061872
0.0618832
0.0618944
0.0619056
0.0619167
0.0619278
0.0619389
0.06195
0.0619611
0.0619721
0.0619832
0.0619942
0.0620052
0.0620162
0.0620272
0.0620382
0.0620491
0.0620601
0.062071
0.062082
0.0620929
0.0621038
0.0621147
0.0621256
0.0621365
0.0621474
0.0621583
0.0621691
0.06218
0.0621908
0.0622017
0.0622125
0.0622233
0.0622341
0.0622449
0.0622557
0.0622665
0.0622773
0.062288
0.0622988
0.0623095
0.0623202
0.0623309
0.0623416
0.0623523
0.062363
0.0623737
0.0623843
0.062395
0.0624056
0.0624162
0.0624269
0.0624375
0.062448
0.0624586
0.0624692
0.0624797
0.0624903
0.0625008
0.0625113
0.0625218
0.0625323
0.0625428
0.0625532
0.0625637
0.0625741
0.0625845
0.062595
0.0626054
0.0626157
0.0626261
0.0626364
0.0626468
0.0626571
0.0626674
0.0626777
0.062688
0.0626983
0.0627085
0.0627187
0.062729
0.0627392
0.0627494
0.0627595
0.0627697
0.0627798
0.06279
0.0628001
0.0628102
0.0628202
0.0628303
0.0628403
0.0628504
0.0628604
0.0628704
0.0628803
0.0628903
0.0629002
0.0629101
0.06292
0.0629298
0.0629397
0.0629495
0.0629593
0.0629691
0.062979
0.0629889
0.0629988
0.0630088
0.0630188
0.0630286
0.0630388
0.0630488
0.0630586
0.0630686
0.0630786
0.0596264
0.0600999
0.0603016
0.0600208
0.0602719
0.0605361
0.0605896
0.0606971
0.0608635
0.0609902
0.0610809
0.061163
0.0612375
0.0613006
0.0613538
0.0613995
0.0614391
0.0614737
0.061504
0.0615309
0.0615551
0.0615769
0.0615969
0.0616153
0.0616325
0.0616486
0.0616639
0.0616785
0.0616924
0.0617059
0.061719
0.0617318
0.0617443
0.0617565
0.0617686
0.0617805
0.0617922
0.0618038
0.0618154
0.0618269
0.0618383
0.0618496
0.0618609
0.0618721
0.0618833
0.0618945
0.0619057
0.0619168
0.0619279
0.061939
0.0619501
0.0619611
0.0619722
0.0619832
0.0619942
0.0620052
0.0620162
0.0620272
0.0620382
0.0620491
0.0620601
0.062071
0.062082
0.0620929
0.0621038
0.0621147
0.0621256
0.0621365
0.0621474
0.0621583
0.0621691
0.06218
0.0621908
0.0622017
0.0622125
0.0622233
0.0622341
0.0622449
0.0622557
0.0622665
0.0622773
0.062288
0.0622988
0.0623095
0.0623202
0.0623309
0.0623416
0.0623523
0.062363
0.0623737
0.0623843
0.062395
0.0624056
0.0624162
0.0624269
0.0624375
0.062448
0.0624586
0.0624692
0.0624797
0.0624903
0.0625008
0.0625113
0.0625218
0.0625323
0.0625428
0.0625532
0.0625637
0.0625741
0.0625845
0.062595
0.0626054
0.0626157
0.0626261
0.0626364
0.0626468
0.0626571
0.0626674
0.0626777
0.062688
0.0626983
0.0627085
0.0627187
0.062729
0.0627392
0.0627494
0.0627595
0.0627697
0.0627798
0.06279
0.0628001
0.0628102
0.0628202
0.0628303
0.0628403
0.0628504
0.0628604
0.0628704
0.0628803
0.0628903
0.0629002
0.0629101
0.06292
0.0629299
0.0629397
0.0629496
0.0629594
0.0629692
0.0629791
0.062989
0.062999
0.0630089
0.0630189
0.0630288
0.0630389
0.0630489
0.0630587
0.0630687
0.0630782
0.0630888
0.0596265
0.0601013
0.0603056
0.0600284
0.060284
0.0605529
0.0606104
0.0607204
0.0608881
0.0610149
0.0611047
0.0611853
0.061258
0.061319
0.0613701
0.0614137
0.0614515
0.0614843
0.0615132
0.0615387
0.0615617
0.0615825
0.0616016
0.0616193
0.0616359
0.0616515
0.0616663
0.0616805
0.0616941
0.0617073
0.0617202
0.0617328
0.0617451
0.0617572
0.0617691
0.0617809
0.0617926
0.0618042
0.0618157
0.0618271
0.0618385
0.0618498
0.061861
0.0618722
0.0618834
0.0618946
0.0619057
0.0619169
0.061928
0.061939
0.0619501
0.0619612
0.0619722
0.0619832
0.0619942
0.0620052
0.0620162
0.0620272
0.0620382
0.0620491
0.0620601
0.062071
0.062082
0.0620929
0.0621038
0.0621147
0.0621256
0.0621365
0.0621474
0.0621583
0.0621691
0.06218
0.0621908
0.0622017
0.0622125
0.0622233
0.0622341
0.0622449
0.0622557
0.0622665
0.0622773
0.062288
0.0622988
0.0623095
0.0623202
0.0623309
0.0623416
0.0623523
0.062363
0.0623737
0.0623843
0.062395
0.0624056
0.0624162
0.0624269
0.0624375
0.062448
0.0624586
0.0624692
0.0624797
0.0624903
0.0625008
0.0625113
0.0625218
0.0625323
0.0625428
0.0625532
0.0625637
0.0625741
0.0625845
0.062595
0.0626053
0.0626157
0.0626261
0.0626364
0.0626468
0.0626571
0.0626674
0.0626777
0.062688
0.0626983
0.0627085
0.0627187
0.062729
0.0627392
0.0627494
0.0627595
0.0627697
0.0627798
0.06279
0.0628001
0.0628102
0.0628203
0.0628303
0.0628404
0.0628504
0.0628604
0.0628704
0.0628804
0.0628903
0.0629002
0.0629102
0.0629201
0.0629299
0.0629398
0.0629496
0.0629595
0.0629693
0.0629792
0.0629891
0.0629991
0.063009
0.063019
0.0630289
0.063039
0.0630489
0.0630588
0.0630688
0.0630786
0.0630888
0.0630994
0.0596266
0.0601028
0.0603101
0.0600371
0.0602976
0.0605717
0.0606333
0.060746
0.0609149
0.0610417
0.0611304
0.0612092
0.0612798
0.0613385
0.0613873
0.0614288
0.0614645
0.0614955
0.0615227
0.0615469
0.0615686
0.0615884
0.0616066
0.0616235
0.0616394
0.0616544
0.0616687
0.0616825
0.0616959
0.0617088
0.0617214
0.0617338
0.061746
0.0617579
0.0617698
0.0617815
0.061793
0.0618046
0.061816
0.0618274
0.0618387
0.0618499
0.0618612
0.0618724
0.0618835
0.0618947
0.0619058
0.0619169
0.061928
0.0619391
0.0619501
0.0619612
0.0619722
0.0619832
0.0619942
0.0620052
0.0620162
0.0620272
0.0620382
0.0620492
0.0620601
0.062071
0.062082
0.0620929
0.0621038
0.0621147
0.0621256
0.0621365
0.0621474
0.0621583
0.0621691
0.06218
0.0621908
0.0622017
0.0622125
0.0622233
0.0622341
0.0622449
0.0622557
0.0622665
0.0622773
0.062288
0.0622988
0.0623095
0.0623202
0.0623309
0.0623416
0.0623523
0.062363
0.0623737
0.0623843
0.062395
0.0624056
0.0624162
0.0624269
0.0624375
0.062448
0.0624586
0.0624692
0.0624797
0.0624903
0.0625008
0.0625113
0.0625218
0.0625323
0.0625428
0.0625532
0.0625637
0.0625741
0.0625845
0.062595
0.0626053
0.0626157
0.0626261
0.0626364
0.0626468
0.0626571
0.0626674
0.0626777
0.062688
0.0626983
0.0627085
0.0627187
0.062729
0.0627392
0.0627494
0.0627595
0.0627697
0.0627798
0.06279
0.0628001
0.0628102
0.0628203
0.0628303
0.0628404
0.0628504
0.0628604
0.0628704
0.0628804
0.0628903
0.0629003
0.0629102
0.0629201
0.06293
0.0629399
0.0629497
0.0629596
0.0629694
0.0629793
0.0629892