/*--------------------------------*- C++ -*----------------------------------*\
| =========                 |                                                 |
| \\      /  F ield         | OpenFOAM: The Open Source CFD Toolbox           |
|  \\    /   O peration     | Version:  2512                                  |
|   \\  /    A nd           | Website:  www.openfoam.com                      |
|    \\/     M anipulation  |                                                 |
\*---------------------------------------------------------------------------*/
FoamFile
{
    version     2.0;
    format      ascii;
    arch        "LSB;label=32;scalar=64";
    class       volScalarField;
    location    "0.1";
    object      Uy;
}
// * * * * * * * * * * * * * * * * * * * * * * * * * * * * * * * * * * * * * //

dimensions      [0 1 -1 0 0 0 0];

internalField   nonuniform List<scalar> 
8333
(
6.69491e-06
8.106e-06
1.22018e-05
1.64726e-05
1.90796e-05
1.98502e-05
1.94773e-05
1.85741e-05
1.73903e-05
1.606e-05
1.45777e-05
1.31694e-05
1.1531e-05
1.04393e-05
8.58498e-06
8.16544e-06
6.24411e-06
4.78596e-06
3.70031e-06
2.7418e-06
-2.11818e-06
-9.26066e-06
-1.51603e-05
-1.81558e-05
-1.85422e-05
-1.73846e-05
-1.55457e-05
-1.35981e-05
-1.16109e-05
-9.93262e-06
-8.09483e-06
-6.90989e-06
-5.45652e-06
-4.29564e-06
-3.44098e-06
-3.32622e-06
-2.42948e-06
-1.88806e-06
-1.43035e-06
-9.79448e-07
-6.01824e-07
-2.62805e-07
4.8072e-11
2.18153e-07
4.08883e-07
5.69213e-07
7.10646e-07
8.45613e-07
9.51669e-07
1.03773e-06
1.1248e-06
1.1975e-06
1.25361e-06
1.29849e-06
1.33213e-06
1.36078e-06
1.38378e-06
1.40408e-06
1.41963e-06
1.43234e-06
1.4436e-06
1.45407e-06
1.46341e-06
1.47105e-06
1.47656e-06
1.48043e-06
1.48375e-06
1.48661e-06
1.48892e-06
1.49072e-06
1.49195e-06
1.49251e-06
1.49258e-06
1.49225e-06
1.49156e-06
1.49048e-06
1.48908e-06
1.48738e-06
1.48544e-06
1.48328e-06
1.48094e-06
1.47839e-06
1.47569e-06
1.47282e-06
1.46977e-06
1.46661e-06
1.46334e-06
1.45998e-06
1.45653e-06
1.453e-06
1.44937e-06
1.44569e-06
1.44191e-06
1.43806e-06
1.43417e-06
1.43025e-06
1.42631e-06
1.42232e-06
1.41828e-06
1.41419e-06
1.41009e-06
1.406e-06
1.40189e-06
1.39776e-06
1.39362e-06
1.38947e-06
1.38534e-06
1.38122e-06
1.37715e-06
1.37308e-06
1.36903e-06
1.36503e-06
1.36106e-06
1.35715e-06
1.3533e-06
1.34952e-06
1.3458e-06
1.34217e-06
1.33866e-06
1.3353e-06
1.33214e-06
1.32916e-06
1.32637e-06
1.32379e-06
1.32139e-06
1.31924e-06
1.31737e-06
1.31576e-06
1.31447e-06
1.31357e-06
1.31306e-06
1.31296e-06
1.31329e-06
1.31411e-06
1.31548e-06
1.31742e-06
1.31995e-06
1.3231e-06
1.32701e-06
1.33182e-06
1.33761e-06
1.34453e-06
1.35272e-06
1.36243e-06
1.37341e-06
1.38549e-06
1.39867e-06
1.413e-06
1.42841e-06
1.44479e-06
1.46212e-06
1.48023e-06
1.49906e-06
1.5176e-06
1.53651e-06
1.55219e-06
1.5713e-06
1.57256e-06
1.59795e-06
1.54398e-06
1.61578e-06
1.38142e-06
1.62865e-06
9.30221e-07
1.44289e-06
-7.14211e-07
1.3077e-06
-4.3485e-06
-1.12673e-05
-2.53064e-05
-4.20078e-05
-5.451e-05
-6.02196e-05
-6.02512e-05
-5.68897e-05
-5.19733e-05
-4.66487e-05
-4.1298e-05
-3.63377e-05
-3.15633e-05
-2.73389e-05
-2.35146e-05
-1.98217e-05
-1.56289e-05
-1.29241e-05
-1.02626e-05
-8.3285e-06
-6.67735e-06
-5.1445e-06
-3.82764e-06
-2.68877e-06
-1.70745e-06
-8.64924e-07
-1.36819e-07
4.59585e-07
9.3474e-07
1.29609e-06
1.6304e-06
1.91427e-06
2.16482e-06
2.37712e-06
2.55656e-06
2.71329e-06
2.84813e-06
2.96295e-06
3.06182e-06
3.14311e-06
3.21155e-06
3.2679e-06
3.31554e-06
3.35553e-06
3.38801e-06
3.41496e-06
3.43786e-06
3.45781e-06
3.47416e-06
3.48776e-06
3.49814e-06
3.50588e-06
3.51198e-06
3.5169e-06
3.52047e-06
3.52296e-06
3.52457e-06
3.52543e-06
3.52575e-06
3.5255e-06
3.52476e-06
3.52359e-06
3.52202e-06
3.52012e-06
3.51791e-06
3.51545e-06
3.51282e-06
3.50995e-06
3.50687e-06
3.50364e-06
3.50029e-06
3.49684e-06
3.49329e-06
3.48961e-06
3.48586e-06
3.48205e-06
3.47809e-06
3.47403e-06
3.46991e-06
3.46574e-06
3.46152e-06
3.45726e-06
3.45296e-06
3.44861e-06
3.44426e-06
3.43996e-06
3.43563e-06
3.43128e-06
3.42691e-06
3.42254e-06
3.41818e-06
3.41381e-06
3.40946e-06
3.40514e-06
3.40085e-06
3.39662e-06
3.39243e-06
3.3883e-06
3.38431e-06
3.38048e-06
3.37677e-06
3.37318e-06
3.3697e-06
3.36636e-06
3.36317e-06
3.36017e-06
3.35737e-06
3.35481e-06
3.3525e-06
3.35051e-06
3.34884e-06
3.3475e-06
3.34655e-06
3.34604e-06
3.34595e-06
3.34635e-06
3.34723e-06
3.34868e-06
3.3508e-06
3.35366e-06
3.35731e-06
3.36179e-06
3.36712e-06
3.37328e-06
3.38031e-06
3.38814e-06
3.39694e-06
3.4069e-06
3.41809e-06
3.43054e-06
3.44437e-06
3.45962e-06
3.47623e-06
3.49406e-06
3.51276e-06
3.53193e-06
3.55126e-06
3.56942e-06
3.58685e-06
3.59915e-06
3.61175e-06
3.6074e-06
3.6107e-06
3.56425e-06
3.54358e-06
3.40498e-06
3.40162e-06
3.69583e-06
-1.17124e-06
-1.08128e-05
-2.4099e-05
-4.72689e-05
-7.30157e-05
-9.16243e-05
-9.97952e-05
-9.9433e-05
-9.3924e-05
-8.59935e-05
-7.73147e-05
-6.8608e-05
-6.03306e-05
-5.25691e-05
-4.54017e-05
-3.91359e-05
-3.30912e-05
-2.75009e-05
-2.33275e-05
-1.94264e-05
-1.61384e-05
-1.33699e-05
-1.0942e-05
-8.85569e-06
-7.08643e-06
-5.60378e-06
-4.37385e-06
-3.36633e-06
-2.53918e-06
-1.8531e-06
-1.28041e-06
-7.42009e-07
-2.45757e-07
1.50282e-07
4.70611e-07
7.33623e-07
9.46524e-07
1.12471e-06
1.27049e-06
1.39316e-06
1.49669e-06
1.58469e-06
1.65935e-06
1.72226e-06
1.7738e-06
1.81684e-06
1.85507e-06
1.88616e-06
1.9107e-06
1.93156e-06
1.94874e-06
1.96317e-06
1.97539e-06
1.98574e-06
1.9937e-06
1.99996e-06
2.00495e-06
2.00889e-06
2.0118e-06
2.01373e-06
2.01495e-06
2.01555e-06
2.01562e-06
2.01523e-06
2.01445e-06
2.01333e-06
2.0119e-06
2.0102e-06
2.00826e-06
2.00614e-06
2.00385e-06
2.00141e-06
1.99884e-06
1.99613e-06
1.9933e-06
1.99033e-06
1.98726e-06
1.98413e-06
1.98095e-06
1.97772e-06
1.97439e-06
1.97099e-06
1.9675e-06
1.96397e-06
1.96042e-06
1.95676e-06
1.95304e-06
1.94931e-06
1.94557e-06
1.94184e-06
1.9381e-06
1.93441e-06
1.93073e-06
1.92704e-06
1.92338e-06
1.91975e-06
1.91617e-06
1.91264e-06
1.90916e-06
1.90566e-06
1.90213e-06
1.8987e-06
1.89542e-06
1.89228e-06
1.88932e-06
1.88652e-06
1.88394e-06
1.88162e-06
1.87953e-06
1.87769e-06
1.87612e-06
1.87485e-06
1.87389e-06
1.87326e-06
1.87303e-06
1.87322e-06
1.87387e-06
1.87504e-06
1.87675e-06
1.87904e-06
1.88196e-06
1.88562e-06
1.89012e-06
1.89553e-06
1.90196e-06
1.90952e-06
1.91834e-06
1.92827e-06
1.93926e-06
1.95133e-06
1.96451e-06
1.9788e-06
1.99419e-06
2.01063e-06
2.02803e-06
2.04623e-06
2.06518e-06
2.08418e-06
2.10404e-06
2.12111e-06
2.14281e-06
2.14665e-06
2.18197e-06
2.13257e-06
2.2443e-06
2.00202e-06
2.40964e-06
1.65834e-06
3.17874e-06
5.0089e-06
-4.21416e-06
-1.82881e-05
-3.79884e-05
-7.02011e-05
-0.000104791
-0.000129305
-0.000139815
-0.000139024
-0.00013139
-0.000120489
-0.000108494
-9.64626e-05
-8.4917e-05
-7.41733e-05
-6.41642e-05
-5.53621e-05
-4.70676e-05
-3.95898e-05
-3.35532e-05
-2.80257e-05
-2.32606e-05
-1.92841e-05
-1.5856e-05
-1.28975e-05
-1.03729e-05
-8.23104e-06
-6.41432e-06
-4.87438e-06
-3.5597e-06
-2.4339e-06
-1.45651e-06
-6.31187e-07
6.08877e-08
5.80813e-07
9.95787e-07
1.3607e-06
1.67628e-06
1.94114e-06
2.16685e-06
2.35388e-06
2.51095e-06
2.63776e-06
2.74472e-06
2.83407e-06
2.9083e-06
2.97205e-06
3.0262e-06
3.06807e-06
3.10282e-06
3.13227e-06
3.15892e-06
3.17973e-06
3.19628e-06
3.21002e-06
3.22138e-06
3.23016e-06
3.23702e-06
3.2423e-06
3.24629e-06
3.24963e-06
3.25201e-06
3.25357e-06
3.2544e-06
3.25459e-06
3.25425e-06
3.25345e-06
3.25224e-06
3.25071e-06
3.24887e-06
3.24674e-06
3.24437e-06
3.24183e-06
3.2391e-06
3.23627e-06
3.23332e-06
3.23023e-06
3.22708e-06
3.2238e-06
3.22037e-06
3.21688e-06
3.21335e-06
3.20977e-06
3.20616e-06
3.20252e-06
3.19883e-06
3.19522e-06
3.19175e-06
3.18821e-06
3.1846e-06
3.181e-06
3.17738e-06
3.17374e-06
3.17013e-06
3.1665e-06
3.16289e-06
3.15932e-06
3.1558e-06
3.15231e-06
3.14886e-06
3.14555e-06
3.14241e-06
3.13937e-06
3.13645e-06
3.13367e-06
3.13103e-06
3.12854e-06
3.12621e-06
3.12399e-06
3.12194e-06
3.12014e-06
3.11862e-06
3.11741e-06
3.11658e-06
3.11615e-06
3.11612e-06
3.11651e-06
3.11735e-06
3.11866e-06
3.12051e-06
3.12298e-06
3.12615e-06
3.13004e-06
3.13473e-06
3.14024e-06
3.14661e-06
3.15389e-06
3.16211e-06
3.17136e-06
3.18174e-06
3.19334e-06
3.20623e-06
3.22047e-06
3.23612e-06
3.25316e-06
3.27161e-06
3.2911e-06
3.31182e-06
3.33237e-06
3.35538e-06
3.37305e-06
3.4031e-06
3.40164e-06
3.46583e-06
3.38257e-06
3.59361e-06
3.25013e-06
3.84524e-06
3.18177e-06
4.35778e-06
7.38508e-06
6.06479e-06
-7.12445e-06
-2.57328e-05
-5.20872e-05
-9.34777e-05
-0.000136858
-0.000167143
-0.000179882
-0.000178596
-0.000168801
-0.000154897
-0.000139556
-0.000124157
-0.000109325
-9.55329e-05
-8.26856e-05
-7.12824e-05
-6.07647e-05
-5.13217e-05
-4.3442e-05
-3.64478e-05
-3.04006e-05
-2.53169e-05
-2.09626e-05
-1.72148e-05
-1.40224e-05
-1.13229e-05
-9.04632e-06
-7.13216e-06
-5.52706e-06
-4.1849e-06
-3.06847e-06
-2.15441e-06
-1.41061e-06
-7.86919e-07
-2.24969e-07
2.83305e-07
6.8387e-07
1.01907e-06
1.29978e-06
1.5383e-06
1.73352e-06
1.90208e-06
2.04514e-06
2.1594e-06
2.2611e-06
2.34232e-06
2.4091e-06
2.46472e-06
2.51618e-06
2.55856e-06
2.59144e-06
2.61801e-06
2.63845e-06
2.65602e-06
2.67159e-06
2.68456e-06
2.6955e-06
2.70463e-06
2.71187e-06
2.71719e-06
2.7213e-06
2.72434e-06
2.72647e-06
2.72781e-06
2.7285e-06
2.72863e-06
2.72827e-06
2.7275e-06
2.72636e-06
2.72492e-06
2.72321e-06
2.72127e-06
2.71911e-06
2.71676e-06
2.71421e-06
2.71149e-06
2.70862e-06
2.70562e-06
2.70252e-06
2.69934e-06
2.69607e-06
2.6927e-06
2.68922e-06
2.68568e-06
2.68204e-06
2.67824e-06
2.67432e-06
2.67043e-06
2.66657e-06
2.66272e-06
2.65887e-06
2.65503e-06
2.65125e-06
2.64752e-06
2.6438e-06
2.64012e-06
2.63652e-06
2.633e-06
2.62955e-06
2.62636e-06
2.62347e-06
2.62066e-06
2.61791e-06
2.61522e-06
2.61265e-06
2.61021e-06
2.60795e-06
2.60596e-06
2.60419e-06
2.60267e-06
2.60143e-06
2.60048e-06
2.59976e-06
2.59935e-06
2.59937e-06
2.59979e-06
2.60071e-06
2.6022e-06
2.60427e-06
2.60697e-06
2.61033e-06
2.61446e-06
2.61944e-06
2.62534e-06
2.6322e-06
2.64012e-06
2.64916e-06
2.6593e-06
2.67062e-06
2.68319e-06
2.69702e-06
2.71219e-06
2.72874e-06
2.74665e-06
2.766e-06
2.78647e-06
2.8087e-06
2.83083e-06
2.8571e-06
2.87629e-06
2.91536e-06
2.91123e-06
3.00873e-06
2.90174e-06
3.19734e-06
2.80103e-06
3.53824e-06
2.90815e-06
4.27324e-06
5.46543e-06
6.70034e-06
4.64923e-06
-1.01074e-05
-3.33694e-05
-6.65515e-05
-0.000117203
-0.000169319
-0.000205249
-0.000220089
-0.000218213
-0.000206189
-0.000189232
-0.000170508
-0.000151705
-0.000133576
-0.000116702
-0.000101038
-8.70428e-05
-7.43106e-05
-6.29306e-05
-5.32976e-05
-4.48531e-05
-3.74946e-05
-3.12484e-05
-2.59202e-05
-2.13513e-05
-1.74605e-05
-1.41677e-05
-1.13861e-05
-9.03888e-06
-7.05789e-06
-5.38481e-06
-3.96792e-06
-2.77862e-06
-1.77406e-06
-9.05224e-07
-1.72158e-07
3.94074e-07
8.63608e-07
1.26308e-06
1.59837e-06
1.87307e-06
2.10809e-06
2.30553e-06
2.46691e-06
2.60254e-06
2.7188e-06
2.81436e-06
2.89194e-06
2.96036e-06
3.01946e-06
3.0656e-06
3.10086e-06
3.13054e-06
3.15847e-06
3.18299e-06
3.20292e-06
3.21842e-06
3.23131e-06
3.24255e-06
3.25169e-06
3.25821e-06
3.26315e-06
3.26685e-06
3.26952e-06
3.27136e-06
3.2725e-06
3.27305e-06
3.27303e-06
3.27258e-06
3.27174e-06
3.27056e-06
3.26909e-06
3.26738e-06
3.26544e-06
3.26331e-06
3.26101e-06
3.25856e-06
3.25604e-06
3.25343e-06
3.25068e-06
3.24784e-06
3.24488e-06
3.24182e-06
3.23871e-06
3.23555e-06
3.23234e-06
3.22891e-06
3.22518e-06
3.22133e-06
3.21744e-06
3.21364e-06
3.20991e-06
3.20623e-06
3.20254e-06
3.19885e-06
3.19522e-06
3.19166e-06
3.18814e-06
3.18473e-06
3.18141e-06
3.17809e-06
3.17475e-06
3.17153e-06
3.16848e-06
3.16564e-06
3.16298e-06
3.16049e-06
3.15821e-06
3.15614e-06
3.1543e-06
3.15265e-06
3.15128e-06
3.15028e-06
3.1497e-06
3.14954e-06
3.14982e-06
3.1505e-06
3.15161e-06
3.1532e-06
3.15531e-06
3.15804e-06
3.16146e-06
3.16564e-06
3.17064e-06
3.17651e-06
3.18331e-06
3.19113e-06
3.20006e-06
3.21012e-06
3.22134e-06
3.23386e-06
3.24776e-06
3.26308e-06
3.27991e-06
3.29827e-06
3.31834e-06
3.33974e-06
3.36334e-06
3.38701e-06
3.41617e-06
3.43737e-06
3.48348e-06
3.47989e-06
3.59074e-06
3.48491e-06
3.78259e-06
3.45186e-06
4.14554e-06
3.72606e-06
4.91774e-06
5.9548e-06
6.70745e-06
6.57221e-06
-1.31575e-05
-4.11863e-05
-8.1363e-05
-0.000141403
-0.000202266
-0.00024376
-0.000260587
-0.00025801
-0.000243664
-0.000223575
-0.00020141
-0.00017915
-0.000157696
-0.000137711
-0.000119231
-0.000102645
-8.77014e-05
-7.43951e-05
-6.29946e-05
-5.30552e-05
-4.43994e-05
-3.70305e-05
-3.07638e-05
-2.54074e-05
-2.0849e-05
-1.6992e-05
-1.37359e-05
-1.09911e-05
-8.68019e-06
-6.73819e-06
-5.11207e-06
-3.76127e-06
-2.64054e-06
-1.70569e-06
-9.39957e-07
-3.06913e-07
2.79352e-07
7.54236e-07
1.15328e-06
1.48584e-06
1.766e-06
1.99651e-06
2.18846e-06
2.35757e-06
2.49163e-06
2.60661e-06
2.70048e-06
2.78331e-06
2.84928e-06
2.90086e-06
2.94697e-06
2.98622e-06
3.02214e-06
3.05041e-06
3.07259e-06
3.08994e-06
3.10474e-06
3.117e-06
3.12667e-06
3.13479e-06
3.14139e-06
3.14664e-06
3.1507e-06
3.15354e-06
3.15546e-06
3.15665e-06
3.15721e-06
3.15724e-06
3.15681e-06
3.15599e-06
3.15484e-06
3.1534e-06
3.15175e-06
3.1499e-06
3.14786e-06
3.14562e-06
3.14317e-06
3.14054e-06
3.13775e-06
3.13486e-06
3.13195e-06
3.129e-06
3.12585e-06
3.12258e-06
3.11924e-06
3.11595e-06
3.11276e-06
3.10958e-06
3.10642e-06
3.10321e-06
3.09995e-06
3.09664e-06
3.09339e-06
3.09011e-06
3.08685e-06
3.08364e-06
3.08049e-06
3.07729e-06
3.07407e-06
3.07096e-06
3.06799e-06
3.06517e-06
3.06246e-06
3.0598e-06
3.0573e-06
3.05495e-06
3.05279e-06
3.05082e-06
3.04909e-06
3.04767e-06
3.04656e-06
3.04575e-06
3.0453e-06
3.04521e-06
3.04555e-06
3.0463e-06
3.04758e-06
3.04941e-06
3.05186e-06
3.05493e-06
3.05868e-06
3.06322e-06
3.06863e-06
3.07493e-06
3.08221e-06
3.09061e-06
3.10009e-06
3.11068e-06
3.12263e-06
3.1359e-06
3.15055e-06
3.1667e-06
3.18447e-06
3.2039e-06
3.22515e-06
3.24791e-06
3.27318e-06
3.29885e-06
3.3306e-06
3.35518e-06
3.40499e-06
3.40904e-06
3.52026e-06
3.44208e-06
3.73341e-06
3.4799e-06
4.08788e-06
3.93178e-06
4.76391e-06
5.8792e-06
5.95768e-06
6.25802e-06
6.45253e-06
-1.62818e-05
-4.92032e-05
-9.65413e-05
-0.000166117
-0.000235771
-0.000282766
-0.000301461
-0.000298049
-0.000281258
-0.000257932
-0.000232242
-0.000206457
-0.000181635
-0.000158508
-0.000137196
-0.000118033
-0.000100869
-8.56269e-05
-7.24759e-05
-6.1065e-05
-5.11567e-05
-4.26971e-05
-3.55041e-05
-2.93687e-05
-2.41518e-05
-1.97385e-05
-1.60143e-05
-1.28758e-05
-1.02348e-05
-8.01563e-06
-6.15403e-06
-4.59445e-06
-3.28339e-06
-2.17198e-06
-1.23093e-06
-4.32126e-07
2.1547e-07
7.499e-07
1.19288e-06
1.5684e-06
1.8802e-06
2.14085e-06
2.36134e-06
2.54661e-06
2.69663e-06
2.82577e-06
2.93307e-06
3.02471e-06
3.09624e-06
3.15913e-06
3.21296e-06
3.25943e-06
3.29754e-06
3.32557e-06
3.34837e-06
3.36933e-06
3.38746e-06
3.40244e-06
3.41394e-06
3.42333e-06
3.43081e-06
3.43658e-06
3.44099e-06
3.44455e-06
3.44723e-06
3.44911e-06
3.45031e-06
3.45092e-06
3.45104e-06
3.45072e-06
3.45001e-06
3.44895e-06
3.44759e-06
3.44591e-06
3.44401e-06
3.44194e-06
3.43971e-06
3.43734e-06
3.43487e-06
3.43226e-06
3.4295e-06
3.42658e-06
3.42376e-06
3.42093e-06
3.41803e-06
3.41508e-06
3.41209e-06
3.40894e-06
3.40577e-06
3.40259e-06
3.39935e-06
3.39617e-06
3.39301e-06
3.38984e-06
3.38668e-06
3.38349e-06
3.38031e-06
3.37709e-06
3.37392e-06
3.37084e-06
3.3678e-06
3.36484e-06
3.36206e-06
3.35949e-06
3.35707e-06
3.35486e-06
3.35287e-06
3.35111e-06
3.34959e-06
3.3483e-06
3.3473e-06
3.34656e-06
3.34605e-06
3.34589e-06
3.34615e-06
3.34685e-06
3.34801e-06
3.34965e-06
3.35188e-06
3.35477e-06
3.35833e-06
3.36266e-06
3.36784e-06
3.37392e-06
3.3809e-06
3.38895e-06
3.39815e-06
3.40851e-06
3.42009e-06
3.43306e-06
3.44756e-06
3.46358e-06
3.4813e-06
3.50077e-06
3.52233e-06
3.54564e-06
3.57173e-06
3.5986e-06
3.63217e-06
3.65915e-06
3.71234e-06
3.7221e-06
3.83728e-06
3.78294e-06
4.05703e-06
3.89347e-06
4.40283e-06
4.41829e-06
5.08592e-06
5.9986e-06
6.37827e-06
6.27912e-06
8.546e-06
6.19066e-06
-1.94907e-05
-5.74441e-05
-0.000112113
-0.000191386
-0.000269898
-0.000322346
-0.000342783
-0.000338386
-0.000319002
-0.000292309
-0.000262992
-0.000233602
-0.000205362
-0.00017906
-0.000154901
-0.000133168
-0.000113778
-9.66112e-05
-8.1746e-05
-6.8881e-05
-5.77366e-05
-4.82049e-05
-4.01018e-05
-3.32043e-05
-2.73461e-05
-2.23917e-05
-1.82124e-05
-1.46918e-05
-1.17303e-05
-9.24226e-06
-7.15434e-06
-5.40463e-06
-3.93966e-06
-2.7141e-06
-1.69844e-06
-8.57413e-07
-1.5965e-07
4.47225e-07
9.52226e-07
1.37798e-06
1.73222e-06
2.03038e-06
2.27804e-06
2.48214e-06
2.6538e-06
2.7995e-06
2.92121e-06
3.02239e-06
3.1039e-06
3.17779e-06
3.23764e-06
3.28803e-06
3.32733e-06
3.35942e-06
3.38749e-06
3.41349e-06
3.4338e-06
3.44999e-06
3.4626e-06
3.47311e-06
3.48175e-06
3.48857e-06
3.49397e-06
3.49844e-06
3.50194e-06
3.50453e-06
3.50631e-06
3.5074e-06
3.50789e-06
3.50787e-06
3.50744e-06
3.50665e-06
3.50555e-06
3.50419e-06
3.50258e-06
3.50075e-06
3.49882e-06
3.49665e-06
3.49431e-06
3.49181e-06
3.48927e-06
3.48663e-06
3.484e-06
3.48131e-06
3.47852e-06
3.47565e-06
3.47275e-06
3.46977e-06
3.46675e-06
3.46376e-06
3.46082e-06
3.45779e-06
3.45466e-06
3.45157e-06
3.44855e-06
3.44565e-06
3.44278e-06
3.44002e-06
3.4373e-06
3.43467e-06
3.43209e-06
3.42959e-06
3.42724e-06
3.42501e-06
3.4229e-06
3.4209e-06
3.41907e-06
3.41738e-06
3.41594e-06
3.41473e-06
3.4138e-06
3.41315e-06
3.41294e-06
3.41328e-06
3.41401e-06
3.41513e-06
3.41678e-06
3.41893e-06
3.42166e-06
3.42503e-06
3.42912e-06
3.43403e-06
3.43975e-06
3.4464e-06
3.45411e-06
3.46288e-06
3.47275e-06
3.48372e-06
3.4961e-06
3.50989e-06
3.52517e-06
3.54196e-06
3.56065e-06
3.5812e-06
3.60386e-06
3.62842e-06
3.65616e-06
3.6852e-06
3.721e-06
3.75213e-06
3.80769e-06
3.82835e-06
3.93931e-06
3.91223e-06
4.15706e-06
4.08061e-06
4.50433e-06
4.66003e-06
5.16842e-06
5.97488e-06
6.35544e-06
6.22643e-06
7.5857e-06
7.2315e-06
-2.27949e-05
-6.59342e-05
-0.000128112
-0.000217261
-0.000304723
-0.000362585
-0.000384635
-0.000379082
-0.000356934
-0.00032672
-0.000293653
-0.000260567
-0.000228846
-0.000199333
-0.000172308
-0.000148012
-0.000126399
-0.000107321
-9.07686e-05
-7.64656e-05
-6.41085e-05
-5.35361e-05
-4.45494e-05
-3.69113e-05
-3.04307e-05
-2.49522e-05
-2.03325e-05
-1.64427e-05
-1.3172e-05
-1.04252e-05
-8.12176e-06
-6.19246e-06
-4.58044e-06
-3.22869e-06
-2.0941e-06
-1.13286e-06
-3.26963e-07
3.38815e-07
8.91884e-07
1.35289e-06
1.73922e-06
2.06275e-06
2.33609e-06
2.5608e-06
2.75044e-06
2.90837e-06
3.04186e-06
3.15091e-06
3.2451e-06
3.3247e-06
3.38809e-06
3.44287e-06
3.4861e-06
3.52445e-06
3.55726e-06
3.58468e-06
3.60637e-06
3.62279e-06
3.63781e-06
3.65025e-06
3.66054e-06
3.66909e-06
3.67611e-06
3.68151e-06
3.68563e-06
3.68876e-06
3.69104e-06
3.69256e-06
3.69348e-06
3.69381e-06
3.69367e-06
3.69314e-06
3.69223e-06
3.69103e-06
3.68957e-06
3.68788e-06
3.68591e-06
3.68381e-06
3.68161e-06
3.67925e-06
3.67682e-06
3.67433e-06
3.67156e-06
3.66862e-06
3.66571e-06
3.66278e-06
3.65978e-06
3.65678e-06
3.65379e-06
3.65066e-06
3.64762e-06
3.64454e-06
3.64141e-06
3.63825e-06
3.63514e-06
3.63197e-06
3.62885e-06
3.62586e-06
3.62302e-06
3.62026e-06
3.61768e-06
3.61525e-06
3.61287e-06
3.61052e-06
3.60834e-06
3.60629e-06
3.60448e-06
3.60288e-06
3.60152e-06
3.60051e-06
3.59972e-06
3.59923e-06
3.599e-06
3.5991e-06
3.59962e-06
3.60061e-06
3.60204e-06
3.60401e-06
3.60662e-06
3.6098e-06
3.61357e-06
3.61826e-06
3.62379e-06
3.63013e-06
3.63752e-06
3.64613e-06
3.65582e-06
3.66686e-06
3.67944e-06
3.69334e-06
3.70888e-06
3.72617e-06
3.74528e-06
3.76639e-06
3.78953e-06
3.81497e-06
3.84353e-06
3.87421e-06
3.91135e-06
3.94618e-06
4.00219e-06
4.0337e-06
4.13824e-06
4.14406e-06
4.35793e-06
4.35948e-06
4.70823e-06
4.95049e-06
5.33919e-06
6.10237e-06
6.36147e-06
6.66917e-06
7.14204e-06
7.55203e-06
7.61854e-06
-2.62064e-05
-7.47035e-05
-0.000144583
-0.000243808
-0.000340326
-0.000403572
-0.000427095
-0.000420193
-0.000395082
-0.000361171
-0.000324212
-0.000287323
-0.00025205
-0.000219287
-0.000189375
-0.000162521
-0.000138693
-0.000117718
-9.95088e-05
-8.37961e-05
-7.02551e-05
-5.86726e-05
-4.88279e-05
-4.04708e-05
-3.33877e-05
-2.7403e-05
-2.23587e-05
-1.81134e-05
-1.45452e-05
-1.15496e-05
-9.03816e-06
-6.93487e-06
-5.1738e-06
-3.6943e-06
-2.45555e-06
-1.42521e-06
-5.72616e-07
1.45527e-07
7.51512e-07
1.25531e-06
1.67937e-06
2.03287e-06
2.32985e-06
2.5773e-06
2.78567e-06
2.95772e-06
3.10291e-06
3.22226e-06
3.32567e-06
3.40991e-06
3.48037e-06
3.53959e-06
3.58945e-06
3.63231e-06
3.66757e-06
3.69557e-06
3.71923e-06
3.73856e-06
3.75586e-06
3.76985e-06
3.78089e-06
3.78999e-06
3.79744e-06
3.80338e-06
3.80806e-06
3.81169e-06
3.8144e-06
3.81632e-06
3.8176e-06
3.81835e-06
3.81859e-06
3.81835e-06
3.81773e-06
3.81677e-06
3.81554e-06
3.81409e-06
3.81244e-06
3.81073e-06
3.80894e-06
3.80682e-06
3.80452e-06
3.80209e-06
3.7996e-06
3.79706e-06
3.7945e-06
3.79196e-06
3.78931e-06
3.78661e-06
3.78382e-06
3.78109e-06
3.77814e-06
3.77523e-06
3.77233e-06
3.76944e-06
3.76661e-06
3.76369e-06
3.76079e-06
3.75802e-06
3.75555e-06
3.75299e-06
3.75041e-06
3.74794e-06
3.7456e-06
3.74345e-06
3.74142e-06
3.73956e-06
3.73798e-06
3.73659e-06
3.73537e-06
3.7344e-06
3.73374e-06
3.73338e-06
3.73346e-06
3.73386e-06
3.73458e-06
3.73582e-06
3.73745e-06
3.73959e-06
3.74242e-06
3.74587e-06
3.75026e-06
3.75522e-06
3.76085e-06
3.76747e-06
3.77475e-06
3.78304e-06
3.79261e-06
3.80412e-06
3.81664e-06
3.8307e-06
3.84639e-06
3.86416e-06
3.88363e-06
3.90515e-06
3.92918e-06
3.95582e-06
3.98577e-06
4.01829e-06
4.05763e-06
4.09578e-06
4.15362e-06
4.19219e-06
4.29511e-06
4.32529e-06
4.51851e-06
4.57366e-06
4.87139e-06
5.16521e-06
5.4866e-06
6.17008e-06
6.42956e-06
6.75972e-06
7.09129e-06
7.44855e-06
8.72454e-06
7.54995e-06
-2.97392e-05
-8.37874e-05
-0.000161579
-0.000271098
-0.000376797
-0.000445396
-0.000470236
-0.000461769
-0.000433471
-0.000395662
-0.000354648
-0.000313838
-0.000274934
-0.000238878
-0.000206057
-0.000176651
-0.000150621
-0.000127768
-0.000107938
-9.08477e-05
-7.61516e-05
-6.35902e-05
-5.29169e-05
-4.38661e-05
-3.62034e-05
-2.97331e-05
-2.42821e-05
-1.96967e-05
-1.58443e-05
-1.26114e-05
-9.90121e-06
-7.63177e-06
-5.72938e-06
-4.13885e-06
-2.8117e-06
-1.69981e-06
-7.64721e-07
1.68318e-08
6.67069e-07
1.2109e-06
1.66465e-06
2.04523e-06
2.36211e-06
2.62827e-06
2.851e-06
3.0368e-06
3.19347e-06
3.32399e-06
3.43276e-06
3.52289e-06
3.60051e-06
3.66386e-06
3.71805e-06
3.76309e-06
3.80027e-06
3.83099e-06
3.85685e-06
3.87883e-06
3.89679e-06
3.91179e-06
3.92412e-06
3.93431e-06
3.94261e-06
3.94926e-06
3.95456e-06
3.95873e-06
3.96191e-06
3.96427e-06
3.96589e-06
3.96697e-06
3.96748e-06
3.96751e-06
3.96714e-06
3.96634e-06
3.96524e-06
3.96387e-06
3.96232e-06
3.96046e-06
3.9584e-06
3.95639e-06
3.95417e-06
3.95192e-06
3.94963e-06
3.9472e-06
3.94464e-06
3.94196e-06
3.93923e-06
3.93665e-06
3.93407e-06
3.93139e-06
3.92844e-06
3.92546e-06
3.92257e-06
3.9198e-06
3.91704e-06
3.9144e-06
3.91184e-06
3.90933e-06
3.9069e-06
3.90439e-06
3.90179e-06
3.89929e-06
3.89698e-06
3.89482e-06
3.89284e-06
3.8911e-06
3.88943e-06
3.888e-06
3.88684e-06
3.88599e-06
3.88537e-06
3.88505e-06
3.88523e-06
3.88567e-06
3.8863e-06
3.88741e-06
3.88921e-06
3.89159e-06
3.89458e-06
3.8982e-06
3.90269e-06
3.90772e-06
3.91353e-06
3.92034e-06
3.92826e-06
3.93708e-06
3.94711e-06
3.95852e-06
3.97124e-06
3.98564e-06
4.00142e-06
4.01918e-06
4.03888e-06
4.06086e-06
4.0855e-06
4.11284e-06
4.14382e-06
4.17749e-06
4.2181e-06
4.25919e-06
4.31808e-06
4.36477e-06
4.46416e-06
4.51621e-06
4.69056e-06
4.78776e-06
5.04561e-06
5.36347e-06
5.63718e-06
6.26451e-06
6.46906e-06
6.91982e-06
7.01381e-06
7.75825e-06
7.67939e-06
8.95105e-06
6.96559e-06
-3.34093e-05
-9.32269e-05
-0.000179163
-0.000299215
-0.00041423
-0.000488148
-0.000514132
-0.000503859
-0.000472119
-0.000430185
-0.000384937
-0.000340075
-0.000297452
-0.000258059
-0.000222311
-0.00019036
-0.000162144
-0.000137439
-0.000116025
-9.75925e-05
-8.17746e-05
-6.82692e-05
-5.68002e-05
-4.70844e-05
-3.88672e-05
-3.19337e-05
-2.60956e-05
-2.11871e-05
-1.7065e-05
-1.36071e-05
-1.07093e-05
-8.28218e-06
-6.25124e-06
-4.55298e-06
-3.13087e-06
-1.93991e-06
-9.45146e-07
-1.16042e-07
5.7909e-07
1.16051e-06
1.64622e-06
2.05254e-06
2.3916e-06
2.67575e-06
2.91325e-06
3.11231e-06
3.27851e-06
3.41736e-06
3.53389e-06
3.63129e-06
3.71362e-06
3.7815e-06
3.83888e-06
3.88677e-06
3.9267e-06
3.96007e-06
3.98772e-06
4.01098e-06
4.03044e-06
4.04675e-06
4.06027e-06
4.07132e-06
4.08035e-06
4.08769e-06
4.09361e-06
4.09832e-06
4.102e-06
4.10477e-06
4.10678e-06
4.10811e-06
4.10888e-06
4.10916e-06
4.10903e-06
4.10856e-06
4.1078e-06
4.10677e-06
4.10545e-06
4.10387e-06
4.10212e-06
4.10044e-06
4.09841e-06
4.09632e-06
4.09418e-06
4.09192e-06
4.08949e-06
4.08691e-06
4.08437e-06
4.08182e-06
4.07918e-06
4.07627e-06
4.07354e-06
4.07083e-06
4.06822e-06
4.06568e-06
4.06313e-06
4.06062e-06
4.05812e-06
4.05563e-06
4.05309e-06
4.05062e-06
4.0483e-06
4.04613e-06
4.04408e-06
4.04215e-06
4.04034e-06
4.0387e-06
4.03707e-06
4.03575e-06
4.03476e-06
4.03407e-06
4.0336e-06
4.03345e-06
4.03349e-06
4.03389e-06
4.03465e-06
4.03601e-06
4.03796e-06
4.04046e-06
4.04338e-06
4.047e-06
4.05126e-06
4.05636e-06
4.06224e-06
4.06892e-06
4.07705e-06
4.08619e-06
4.09651e-06
4.10784e-06
4.12084e-06
4.13535e-06
4.15157e-06
4.1697e-06
4.18994e-06
4.21262e-06
4.23789e-06
4.26607e-06
4.29788e-06
4.333e-06
4.37491e-06
4.41896e-06
4.47912e-06
4.53283e-06
4.6298e-06
4.69852e-06
4.85957e-06
4.98541e-06
5.21684e-06
5.53887e-06
5.78796e-06
6.34865e-06
6.54455e-06
7.01133e-06
7.05193e-06
7.8091e-06
7.65165e-06
8.44392e-06
8.04204e-06
-3.72349e-05
-0.000103068
-0.000197404
-0.00032825
-0.000452728
-0.000531925
-0.000558859
-0.000546506
-0.00051104
-0.000464729
-0.000415046
-0.000365989
-0.000319557
-0.000276779
-0.000238087
-0.0002036
-0.000173223
-0.000146696
-0.000123737
-0.000104004
-8.71022e-05
-7.2691e-05
-6.04618e-05
-5.01121e-05
-4.13679e-05
-3.39952e-05
-2.7791e-05
-2.25775e-05
-1.82013e-05
-1.45318e-05
-1.14573e-05
-8.88339e-06
-6.72987e-06
-4.92758e-06
-3.4197e-06
-2.15951e-06
-1.10653e-06
-2.26453e-07
5.10193e-07
1.12578e-06
1.64004e-06
2.07011e-06
2.42947e-06
2.73034e-06
2.98215e-06
3.19274e-06
3.36862e-06
3.51621e-06
3.63988e-06
3.74318e-06
3.82973e-06
3.90198e-06
3.96259e-06
4.01341e-06
4.05593e-06
4.09128e-06
4.1209e-06
4.14599e-06
4.16667e-06
4.18385e-06
4.19819e-06
4.20996e-06
4.21967e-06
4.22764e-06
4.2341e-06
4.23927e-06
4.24335e-06
4.24649e-06
4.24881e-06
4.25045e-06
4.2515e-06
4.25205e-06
4.25218e-06
4.25197e-06
4.2514e-06
4.25057e-06
4.24942e-06
4.24816e-06
4.24671e-06
4.24499e-06
4.24314e-06
4.24116e-06
4.23903e-06
4.2368e-06
4.23444e-06
4.23205e-06
4.22965e-06
4.22713e-06
4.22451e-06
4.22192e-06
4.21945e-06
4.21696e-06
4.21445e-06
4.21192e-06
4.20936e-06
4.20683e-06
4.20434e-06
4.20186e-06
4.1994e-06
4.19712e-06
4.19498e-06
4.1929e-06
4.1909e-06
4.18903e-06
4.18729e-06
4.18568e-06
4.18429e-06
4.18316e-06
4.18226e-06
4.1816e-06
4.18119e-06
4.18101e-06
4.18112e-06
4.1817e-06
4.18275e-06
4.18429e-06
4.18624e-06
4.18873e-06
4.19169e-06
4.19536e-06
4.19975e-06
4.20492e-06
4.21091e-06
4.2179e-06
4.22598e-06
4.23509e-06
4.24539e-06
4.25698e-06
4.27007e-06
4.28471e-06
4.30118e-06
4.31959e-06
4.34019e-06
4.36327e-06
4.38904e-06
4.41792e-06
4.45063e-06
4.48726e-06
4.53043e-06
4.57711e-06
4.63829e-06
4.69787e-06
4.79298e-06
4.87442e-06
5.0262e-06
5.17041e-06
5.38467e-06
5.69857e-06
5.93621e-06
6.4299e-06
6.64017e-06
7.05716e-06
7.18228e-06
7.68965e-06
7.92395e-06
7.89077e-06
8.19264e-06
8.07969e-06
-4.12369e-05
-0.000113366
-0.000216383
-0.000358305
-0.000492404
-0.000576827
-0.000604489
-0.00058975
-0.000550241
-0.000499273
-0.000444937
-0.000391533
-0.000341195
-0.000294984
-0.000253334
-0.000216325
-0.000183815
-0.000155501
-0.000131044
-0.000110055
-9.21126e-05
-7.68364e-05
-6.38854e-05
-5.29356e-05
-4.36939e-05
-3.59081e-05
-2.93604e-05
-2.38612e-05
-1.92476e-05
-1.53804e-05
-1.21414e-05
-9.43056e-06
-7.16231e-06
-5.265e-06
-3.67859e-06
-2.3524e-06
-1.24393e-06
-3.17569e-07
4.56963e-07
1.10433e-06
1.64532e-06
2.09761e-06
2.47571e-06
2.79211e-06
3.05689e-06
3.27817e-06
3.46341e-06
3.61872e-06
3.74854e-06
3.85712e-06
3.94812e-06
4.02439e-06
4.08823e-06
4.14177e-06
4.18659e-06
4.22397e-06
4.25543e-06
4.28182e-06
4.30362e-06
4.32181e-06
4.33702e-06
4.34962e-06
4.36001e-06
4.36856e-06
4.37551e-06
4.38111e-06
4.38557e-06
4.38906e-06
4.39171e-06
4.39365e-06
4.39497e-06
4.39577e-06
4.39612e-06
4.39608e-06
4.39569e-06
4.395e-06
4.39405e-06
4.39291e-06
4.39151e-06
4.38986e-06
4.38816e-06
4.38628e-06
4.38426e-06
4.38214e-06
4.37997e-06
4.37776e-06
4.37546e-06
4.37305e-06
4.37065e-06
4.36829e-06
4.36588e-06
4.36346e-06
4.36098e-06
4.35849e-06
4.35602e-06
4.35358e-06
4.35118e-06
4.3488e-06
4.3465e-06
4.34433e-06
4.34222e-06
4.34017e-06
4.33824e-06
4.33644e-06
4.3348e-06
4.33331e-06
4.33208e-06
4.33102e-06
4.33014e-06
4.32949e-06
4.32912e-06
4.32906e-06
4.32936e-06
4.33008e-06
4.33123e-06
4.33276e-06
4.3347e-06
4.33721e-06
4.34032e-06
4.34408e-06
4.34853e-06
4.35376e-06
4.3599e-06
4.36698e-06
4.37499e-06
4.38418e-06
4.39458e-06
4.40631e-06
4.41948e-06
4.43432e-06
4.45097e-06
4.46962e-06
4.49047e-06
4.5139e-06
4.54017e-06
4.56973e-06
4.60336e-06
4.6412e-06
4.68544e-06
4.7343e-06
4.79642e-06
4.86078e-06
4.95471e-06
5.04564e-06
5.1908e-06
5.3458e-06
5.5481e-06
5.84801e-06
6.07939e-06
6.51555e-06
6.73377e-06
7.11599e-06
7.26406e-06
7.71214e-06
7.88056e-06
8.07652e-06
7.91085e-06
9.71903e-06
7.25688e-06
-4.54392e-05
-0.00012418
-0.000236192
-0.000389497
-0.000533378
-0.000622962
-0.000651097
-0.000633626
-0.000589722
-0.00053379
-0.000474563
-0.000416648
-0.000362304
-0.000312614
-0.000267997
-0.000228483
-0.000193876
-0.00016382
-0.000137912
-0.000115719
-9.67835e-05
-8.06868e-05
-6.70552e-05
-5.55419e-05
-4.58345e-05
-3.76633e-05
-3.07962e-05
-2.50321e-05
-2.01986e-05
-1.61488e-05
-1.27582e-05
-9.9209e-06
-7.54761e-06
-5.56307e-06
-3.90397e-06
-2.5171e-06
-1.35808e-06
-3.89639e-07
4.19875e-07
1.09655e-06
1.66206e-06
2.13469e-06
2.52984e-06
2.8604e-06
3.137e-06
3.36825e-06
3.56189e-06
3.72404e-06
3.85964e-06
3.97323e-06
4.06846e-06
4.14826e-06
4.21504e-06
4.27104e-06
4.31799e-06
4.35724e-06
4.39019e-06
4.41778e-06
4.44074e-06
4.45994e-06
4.47597e-06
4.48929e-06
4.50031e-06
4.50939e-06
4.51681e-06
4.52284e-06
4.52768e-06
4.53151e-06
4.53446e-06
4.53667e-06
4.53825e-06
4.53928e-06
4.53983e-06
4.53997e-06
4.53976e-06
4.53922e-06
4.53844e-06
4.53738e-06
4.53611e-06