/*--------------------------------*- C++ -*----------------------------------*\
| =========                 |                                                 |
| \\      /  F ield         | OpenFOAM: The Open Source CFD Toolbox           |
|  \\    /   O peration     | Version:  2512                                  |
|   \\  /    A nd           | Website:  www.openfoam.com                      |
|    \\/     M anipulation  |                                                 |
\*---------------------------------------------------------------------------*/
FoamFile
{
    version     2.0;
    format      ascii;
    arch        "LSB;label=32;scalar=64";
    class       volScalarField;
    location    "0.1";
    object      Uz;
}
// * * * * * * * * * * * * * * * * * * * * * * * * * * * * * * * * * * * * * //

dimensions      [0 1 -1 0 0 0 0];

internalField   nonuniform List<scalar> 
8333
(
-4.29585e-19
2.28415e-18
2.23811e-18
5.30697e-18
6.94079e-18
6.99307e-18
5.56721e-18
3.65949e-18
1.98426e-18
9.42388e-19
3.79327e-19
1.66405e-19
1.02806e-19
8.06128e-20
1.15944e-19
1.05925e-19
1.1321e-19
-2.56957e-19
3.76207e-19
2.9364e-19
9.93492e-19
1.85919e-18
2.37999e-18
2.01292e-18
1.50742e-18
7.73339e-19
4.24752e-19
1.20166e-19
1.0171e-19
1.15013e-19
7.82554e-20
2.10034e-19
1.48016e-19
1.70483e-19
1.40886e-19
2.28002e-19
1.36439e-19
1.48076e-19
1.25795e-19
2.16633e-19
1.23569e-19
1.29311e-19
1.09787e-19
1.969e-19
1.21496e-19
1.00072e-19
1.28398e-19
1.83567e-19
1.12854e-19
1.67421e-19
1.22773e-19
1.42928e-19
2.12076e-19
2.14382e-19
2.16796e-19
1.29932e-19
2.03742e-19
1.72942e-19
1.85482e-19
2.38925e-19
2.53649e-19
1.98084e-19
1.99955e-19
1.42241e-19
2.31608e-19
1.99071e-19
2.19116e-19
2.51652e-19
2.96969e-19
1.42998e-19
3.55772e-19
-7.44916e-20
5.04872e-19
8.25346e-20
1.39763e-19
4.2374e-19
3.63292e-19
3.20881e-20
-1.89296e-19
-2.13288e-19
1.10985e-20
-9.00301e-20
5.81543e-19
-5.08556e-19
1.36324e-18
-9.87288e-19
1.26027e-18
-1.21776e-19
-8.356e-19
-1.26564e-18
-1.24268e-18
-8.63091e-19
-4.11432e-19
-6.6401e-20
9.08915e-20
2.67443e-19
5.29034e-20
6.5619e-19
-5.08478e-19
1.38564e-18
-1.03113e-18
1.25185e-18
-9.65212e-20
-8.51655e-19
-1.31934e-18
-1.29422e-18
-8.96888e-19
-4.32986e-19
-8.60458e-20
1.17643e-19
1.82507e-19
2.99353e-19
7.40199e-20
6.49341e-19
-5.22662e-19
1.4319e-18
-1.10724e-18
1.2714e-18
-1.06171e-20
-8.79164e-19
-1.41403e-18
-1.3587e-18
-9.12007e-19
-4.1806e-19
-6.37737e-20
1.2093e-19
2.12879e-19
2.15822e-19
3.05238e-19
1.31573e-19
4.83295e-19
-7.46957e-20
5.7807e-19
1.00457e-19
1.18847e-19
3.7817e-19
5.93184e-19
6.18661e-19
5.11389e-19
3.8829e-19
3.04238e-19
2.72491e-19
2.24705e-19
3.39794e-19
-4.28384e-20
1.04252e-18
-1.61776e-18
3.95609e-18
-5.83521e-18
8.44555e-18
-9.66105e-18
1.40684e-17
1.17984e-17
9.49326e-18
9.60064e-18
5.31812e-18
2.30042e-18
5.49575e-18
-7.49031e-18
-5.69954e-18
-5.48436e-18
-2.12796e-18
-3.85742e-18
2.44627e-18
-5.97694e-18
-7.30691e-18
-7.59662e-20
5.12477e-20
-1.37569e-20
1.63197e-19
2.55412e-19
7.54245e-19
2.68884e-19
6.76574e-19
1.46821e-20
2.66999e-19
-1.53168e-19
1.77422e-19
2.64442e-19
1.43203e-19
6.37981e-19
3.17651e-19
4.51012e-19
3.48503e-19
7.1204e-19
3.59286e-19
5.08208e-19
4.4651e-19
8.10703e-19
4.22795e-19
5.24111e-19
4.50771e-19
7.85847e-19
4.51303e-19
4.34227e-19
5.43347e-19
7.14752e-19
4.17719e-19
6.46913e-19
4.24957e-19
5.37675e-19
7.71223e-19
7.32268e-19
7.28778e-19
3.92648e-19
7.09973e-19
5.4055e-19
6.28052e-19
8.15088e-19
8.37377e-19
6.20426e-19
6.44022e-19
4.26733e-19
7.91131e-19
6.08941e-19
7.1942e-19
8.38713e-19
9.30861e-19
4.51105e-19
1.05087e-18
-2.34552e-19
1.62172e-18
5.50985e-20
6.83541e-19
1.28861e-18
8.7254e-19
-6.11943e-20
-5.55867e-19
-5.02496e-19
1.22108e-19
-7.18232e-20
1.58283e-18
-1.14697e-18
3.7602e-18
-3.13352e-18
5.71503e-18
-6.4394e-18
-4.60938e-18
-3.98979e-18
-3.21879e-18
-2.02646e-18
-8.36925e-19
2.07025e-20
4.06732e-19
8.22797e-19
3.17277e-19
1.77487e-18
-1.10088e-18
3.80699e-18
-3.20619e-18
5.71498e-18
-6.51312e-18
-4.63612e-18
-4.09697e-18
-3.29963e-18
-2.05831e-18
-8.61959e-19
-2.84563e-21
4.86884e-19
6.37828e-19
9.14416e-19
3.68955e-19
1.76876e-18
-1.13587e-18
3.88618e-18
-3.31523e-18
5.68149e-18
-6.23416e-18
-4.62075e-18
-4.23771e-18
-3.40857e-18
-2.09256e-18
-8.31111e-19
3.97198e-20
4.95074e-19
6.68388e-19
8.10324e-19
6.56386e-19
1.11063e-18
2.68893e-19
1.51053e-18
2.48356e-19
8.10125e-19
1.15107e-18
7.4818e-19
7.4964e-20
-2.27368e-19
-9.59532e-20
2.15649e-19
4.91083e-19
6.61606e-19
7.19197e-19
8.30727e-19
5.82175e-19
1.32932e-18
-4.45828e-19
3.10538e-18
-2.65003e-18
4.39086e-18
-1.34832e-18
4.60352e-19
4.13155e-18
3.67898e-18
7.97855e-18
1.14874e-18
6.63465e-18
-4.30847e-18
-4.90244e-18
-5.13562e-18
-5.79345e-18
-2.75328e-18
-2.89708e-18
-2.92366e-19
1.25478e-18
-2.69318e-18
-2.38729e-20
1.52771e-20
-8.86348e-20
1.39141e-19
-3.34142e-19
7.25509e-19
-8.86055e-19
1.14994e-18
-9.14603e-19
7.43508e-19
-7.13702e-19
8.97269e-19
8.1919e-19
6.57972e-19
2.20493e-18
8.53605e-19
1.68876e-18
1.26853e-18
2.45956e-18
1.16765e-18
2.11017e-18
1.78497e-18
2.927e-18
1.45453e-18
2.21775e-18
1.84849e-18
2.88049e-18
1.57135e-18
1.9464e-18
2.18457e-18
2.57062e-18
1.59796e-18
2.50892e-18
1.5981e-18
2.32687e-18
2.86877e-18
2.56172e-18
2.5388e-18
1.49714e-18
2.71427e-18
1.95107e-18
2.56725e-18
2.96385e-18
2.85702e-18
2.16142e-18
2.3231e-18
1.67835e-18
2.98782e-18
2.15539e-18
2.83671e-18
3.02339e-18
3.06466e-18
1.71242e-18
3.37692e-18
-2.02444e-19
5.4977e-18
-1.26108e-19
3.84451e-18
3.44521e-18
1.6361e-18
-5.71134e-19
-1.35283e-18
-6.87956e-19
7.71408e-19
1.33447e-18
3.24888e-18
1.07925e-18
5.06405e-18
7.01031e-19
3.99721e-18
3.04436e-18
1.69139e-18
3.08499e-19
-1.0375e-19
4.42711e-19
1.38566e-18
2.14575e-18
2.49556e-18
2.86676e-18
2.41256e-18
3.77074e-18
1.25293e-18
5.12792e-18
6.38855e-19
4.0219e-18
3.106e-18
1.63634e-18
1.78789e-19
-1.83244e-19
4.3279e-19
1.31513e-18
2.13663e-18
2.61558e-18
2.74077e-18
2.99812e-18
2.4847e-18
3.76716e-18
1.19207e-18
5.18115e-18
5.74975e-19
3.96305e-18
3.13741e-18
1.63762e-18
7.94852e-20
-2.41223e-19
4.20493e-19
1.41678e-18
2.21477e-18
2.6257e-18
2.7207e-18
2.99729e-18
2.44741e-18
3.91376e-18
1.06686e-18
5.5014e-18
4.06406e-19
3.98291e-18
3.29571e-18
1.64136e-18
-1.74747e-19
-6.70624e-19
3.6236e-20
1.122e-18
2.00204e-18
2.49697e-18
2.71356e-18
2.83196e-18
2.75549e-18
3.09302e-18
2.34235e-18
3.75885e-18
1.61534e-18
3.79511e-18
2.86617e-18
1.8843e-18
3.78148e-18
2.72005e-18
6.56709e-18
2.35138e-18
4.56703e-18
3.65362e-18
1.82693e-18
1.47974e-19
-1.03881e-18
1.72784e-19
7.64278e-19
1.63062e-18
3.27868e-18
1.89233e-18
2.92251e-18
-1.32347e-20
3.12705e-20
-1.65108e-19
3.31462e-19
-8.81534e-19
1.56727e-18
-2.59752e-18
3.27493e-18
-3.51631e-18
3.20985e-18
-1.91489e-18
4.38564e-18
2.19935e-18
3.46887e-18
6.35854e-18
2.36048e-18
6.52743e-18
4.24669e-18
7.37693e-18
3.88383e-18
8.15253e-18
5.85677e-18
8.67071e-18
4.56035e-18
8.40252e-18
6.05973e-18
8.57391e-18
4.8544e-18
7.784e-18
6.93989e-18
7.57079e-18
5.52914e-18
8.42495e-18
5.52217e-18
9.01604e-18
8.62031e-18
7.55665e-18
7.75382e-18
5.51163e-18
9.09155e-18
6.47532e-18
9.55591e-18
8.80658e-18
8.20361e-18
6.82155e-18
7.64918e-18
6.27864e-18
9.8727e-18
7.00628e-18
1.02441e-17
8.96185e-18
8.54307e-18
5.97944e-18
9.61697e-18
2.37729e-18
1.53644e-17
6.96601e-19
1.608e-17
2.20889e-18
1.37305e-18
-6.64714e-19
-4.7329e-19
1.77252e-18
4.84584e-18
6.65395e-18
9.12165e-18
7.24503e-18
1.15034e-17
6.98795e-18
1.04259e-17
9.59401e-18
8.1471e-18
6.67131e-18
6.28092e-18
6.77447e-18
7.77953e-18
8.58287e-18
8.90344e-18
9.23335e-18
8.85682e-18
1.01544e-17
7.63188e-18
1.15912e-17
6.90503e-18
1.04896e-17
9.69627e-18
8.03752e-18
6.52645e-18
6.22187e-18
6.76211e-18
7.57842e-18
8.60908e-18
9.17705e-18
9.14447e-18
9.44982e-18
8.90961e-18
1.02541e-17
7.48699e-18
1.16325e-17
6.96953e-18
1.03008e-17
9.53305e-18
8.12043e-18
6.49784e-18
6.2224e-18
6.79056e-18
7.87957e-18
8.74817e-18
9.13158e-18
9.1117e-18
9.54761e-18
8.46268e-18
1.13894e-17
5.55065e-18
1.51209e-17
2.64632e-18
1.53639e-17
2.66087e-18
2.65313e-18
1.21979e-18
1.61055e-18
3.57886e-18
5.92505e-18
7.67234e-18
8.60898e-18
9.02038e-18
9.20624e-18
9.16493e-18
9.34553e-18
9.14281e-18
9.52683e-18
8.87274e-18
9.336e-18
9.48931e-18
8.66689e-18
1.01005e-17
8.11089e-18
1.20928e-17
7.49722e-18
1.07031e-17
9.63032e-18
8.0748e-18
6.65407e-18
5.95809e-18
6.70052e-18
7.79331e-18
8.3984e-18
9.29778e-18
9.06303e-18
9.38597e-18
9.23452e-18
2.54169e-21
2.74395e-20
-2.08031e-19
4.8672e-19
-1.28495e-18
2.39089e-18
-4.35856e-18
6.37502e-18
-8.88658e-18
1.31401e-17
-3.01879e-18
1.68176e-17
4.01544e-18
1.48732e-17
1.20471e-17
8.44816e-18
2.19936e-17
9.37167e-18
1.85965e-17
1.36058e-17
2.55861e-17
1.23709e-17
2.06103e-17
1.43447e-17
2.60097e-17
1.27753e-17
2.04215e-17
1.51494e-17
2.50608e-17
1.41838e-17
1.8681e-17
1.72178e-17
2.32375e-17
1.72584e-17
2.76214e-17
1.68904e-17
1.86389e-17
2.05016e-17
1.79703e-17
2.4432e-17
1.89224e-17
2.83453e-17
1.70873e-17
1.94781e-17
1.91808e-17
2.1897e-17
1.99547e-17
2.61419e-17
2.0103e-17
2.94913e-17
1.74523e-17
1.96704e-17
1.80061e-17
2.3895e-17
1.44248e-17
3.30866e-17
1.1909e-17
3.64422e-17
1.09753e-17
1.1446e-17
1.00441e-17
1.12498e-17
1.41425e-17
1.86597e-17
2.11068e-17
2.40466e-17
2.223e-17
2.78681e-17
2.02878e-17
2.95592e-17
1.80132e-17
1.94906e-17
1.95582e-17
2.05611e-17
2.14173e-17
2.27371e-17
2.40804e-17
2.42038e-17
2.46672e-17
2.44478e-17
2.5501e-17
2.25978e-17
2.79579e-17
2.00025e-17
2.9714e-17
1.82545e-17
1.92929e-17
1.96016e-17
2.05336e-17
2.13607e-17
2.25672e-17
2.38935e-17
2.47508e-17
2.43844e-17
2.49854e-17
2.4189e-17
2.6285e-17
2.23316e-17
2.80837e-17
2.05758e-17
2.93958e-17
1.78467e-17
1.92771e-17
1.98333e-17
2.05482e-17
2.15118e-17
2.32209e-17
2.41142e-17
2.47351e-17
2.4553e-17
2.48511e-17
2.35918e-17
2.76263e-17
1.98391e-17
3.24158e-17
1.61028e-17
3.18414e-17
1.79172e-17
1.69277e-17
1.4339e-17
1.50046e-17
1.72248e-17
2.04919e-17
2.28759e-17
2.36756e-17
2.43928e-17
2.4741e-17
2.43728e-17
2.47151e-17
2.49499e-17
2.4728e-17
2.44952e-17
2.44831e-17
2.49192e-17
2.43709e-17
2.60074e-17
2.29288e-17
2.8008e-17
2.05099e-17
2.98479e-17
1.78067e-17
1.90499e-17
2.00161e-17
2.02586e-17
2.18112e-17
2.36672e-17
2.39442e-17
2.47829e-17
2.45083e-17
2.49956e-17
2.48944e-17
2.48997e-17
7.463e-20
-9.50948e-20
-7.40896e-20
2.68838e-19
-8.2361e-19
1.33995e-18
-2.62477e-18
3.40387e-18
-2.94401e-18
3.58932e-18
-1.48924e-18
4.48168e-18
2.45883e-18
3.38487e-18
6.62068e-18
2.31904e-18
6.63894e-18
4.27018e-18
7.73321e-18
3.72522e-18
8.03621e-18
5.6475e-18
8.8535e-18
4.3609e-18
8.18738e-18
5.98636e-18
8.6219e-18
4.75034e-18
7.62455e-18
6.7648e-18
7.66453e-18
5.35856e-18
8.67096e-18
5.48227e-18
9.02415e-18
8.85275e-18
7.7406e-18
7.79964e-18
5.302e-18
9.00904e-18
6.38881e-18
9.54646e-18
8.92685e-18
8.36494e-18
6.89274e-18
7.729e-18
6.24919e-18
1.00019e-17
7.06651e-18
1.03362e-17
9.07306e-18
8.856e-18
5.70961e-18
1.04632e-17
9.6083e-19
1.7478e-17
-1.24671e-18
1.72349e-17
2.87841e-18
3.61562e-19
-3.02008e-18
-3.10856e-18
-2.48199e-19
3.61281e-18
6.22123e-18
8.74133e-18
7.66045e-18
1.10954e-17
7.52346e-18
1.04828e-17
9.49995e-18
8.34622e-18
7.30317e-18
7.08984e-18
7.48186e-18
8.27849e-18
8.90029e-18
9.13367e-18
9.35364e-18
9.09703e-18
1.00595e-17
8.15533e-18
1.12011e-17
7.4609e-18
1.05426e-17
9.59125e-18
8.24518e-18
7.17433e-18
7.04677e-18
7.47638e-18
8.07715e-18
8.92904e-18
9.38373e-18
9.31606e-18
9.54724e-18
9.1393e-18
1.01565e-17
8.01476e-18
1.12263e-17
7.55335e-18
1.03415e-17
9.40138e-18
8.33975e-18
7.18224e-18
7.07057e-18
7.5086e-18
8.37579e-18
9.05518e-18
9.3506e-18
9.21942e-18
9.82429e-18
8.22433e-18
1.23345e-17
4.18423e-18
1.7384e-17
5.87957e-19
1.67637e-17
3.00582e-18
1.39521e-18
-1.31272e-18
-1.15733e-18
1.46193e-18
4.69884e-18
7.12848e-18
8.45165e-18
9.04612e-18
9.2895e-18
9.31331e-18
9.40128e-18
9.41665e-18
9.40266e-18
9.31244e-18
9.27675e-18
9.51689e-18
9.07546e-18
1.0123e-17
8.32681e-18
1.13691e-17
7.59226e-18
1.05667e-17
9.38825e-18
8.20835e-18
7.25777e-18
6.98232e-18
7.47847e-18
8.43699e-18
8.92567e-18
9.29474e-18
9.3937e-18
9.52553e-18
9.53749e-18
9.49151e-18
2.90309e-19
-4.81897e-19
3.07986e-19
-2.01174e-19
-2.32679e-19
9.12468e-21
-8.21974e-19
2.30178e-18
9.8153e-19
2.37536e-18
6.67331e-19
1.62459e-18
1.98742e-18
7.43657e-19
3.70401e-18
8.44807e-19
2.75049e-18
1.67938e-18
4.02654e-18
5.24e-19
2.16451e-18
1.28373e-18
3.80703e-18
6.13111e-19
1.85217e-18
1.78342e-18
3.15829e-18
1.19316e-18
1.52564e-18
1.79526e-18
3.15133e-18
1.14728e-18
3.71999e-18
1.44248e-18
2.80064e-18
3.9478e-18
3.21149e-18
2.70217e-18
7.54754e-19
2.66473e-18
1.7807e-18
2.80299e-18
3.68623e-18
3.65165e-18
2.55123e-18
2.77317e-18
1.68165e-18
3.72346e-18
2.51151e-18
3.39996e-18
3.78338e-18
4.15029e-18
1.50509e-18
5.23459e-18
-2.87217e-18
1.04493e-17
-5.09082e-18
1.02409e-17
-2.75967e-18
-4.01737e-18
-6.61781e-18
-6.75792e-18
-4.36248e-18
-1.19778e-18
1.00305e-18
2.88422e-18
2.58892e-18
4.27609e-18
2.97651e-18
3.57927e-18
3.9978e-18
3.61737e-18
2.94588e-18
2.56338e-18
2.62865e-18
2.98143e-18
3.29523e-18
3.43694e-18
3.55485e-18
3.36568e-18
3.94256e-18
2.9608e-18
4.34936e-18
2.95747e-18
3.58786e-18
4.02146e-18
3.58971e-18
2.85834e-18
2.52573e-18
2.63346e-18
2.90561e-18
3.28336e-18
3.49829e-18
3.54087e-18
3.62994e-18
3.41843e-18
3.92431e-18
2.91871e-18
4.35834e-18
2.96842e-18
3.49919e-18
3.96775e-18
3.61656e-18
2.86047e-18
2.53166e-18
2.63421e-18
3.0079e-18
3.3318e-18
3.52776e-18
3.38168e-18
4.00311e-18
2.38118e-18
6.3662e-18
-1.53964e-18
1.12567e-17
-4.97862e-18
1.07126e-17
-2.6648e-18
-4.27572e-18
-6.88465e-18
-6.83422e-18
-4.24773e-18
-1.08069e-18
1.29087e-18
2.60298e-18
3.20479e-18
3.42505e-18
3.5399e-18
3.55968e-18
3.54672e-18
3.56356e-18
3.5396e-18
3.54528e-18
3.62901e-18
3.38666e-18
3.92881e-18
3.02912e-18
4.43103e-18
2.96152e-18
3.59466e-18
3.98673e-18
3.56867e-18
2.84704e-18
2.49224e-18
2.62835e-18
3.0194e-18
3.31312e-18
3.49173e-18
3.54612e-18
3.61041e-18
3.61117e-18
3.60161e-18
3.57393e-18
7.66056e-19
-1.40622e-18
1.32551e-18
-1.62704e-18
5.453e-19
-8.37638e-19
2.42607e-18
5.21509e-18
5.08935e-18
4.3138e-18
3.2013e-18
2.41028e-18
3.98528e-18
1.21001e-18
5.98785e-18
5.96116e-19
5.46859e-18
1.69219e-18
5.06884e-18
-1.93898e-18
2.42146e-18
-7.51618e-19
3.32513e-18
-2.44187e-18
1.38014e-18
3.32723e-19
1.52942e-18
-6.28869e-19
5.13359e-20
4.90114e-19
3.15443e-18
-1.00848e-19
5.07714e-18
-4.6236e-20
4.00732e-18
3.88591e-18
2.01772e-18
1.18465e-18
-1.35249e-18
1.78666e-18
6.6602e-19
2.61507e-18
3.88836e-18
3.67909e-18
2.12652e-18
2.49354e-18
9.11011e-19
3.94493e-18
2.05896e-18
3.46669e-18
4.08397e-18
4.10627e-18
1.5216e-18
4.01954e-18
-1.84532e-18
8.1235e-18
-2.63213e-18
8.32379e-18
-2.07936e-18
-1.68942e-18
-3.43923e-18
-3.71868e-18
-2.11772e-18
2.35662e-19
1.72914e-18
3.33051e-18
2.83396e-18
4.517e-18
3.15614e-18
3.70069e-18
4.12357e-18
3.71424e-18
3.05801e-18
2.65796e-18
2.74574e-18
3.09756e-18
3.45834e-18
3.6035e-18
3.73319e-18
3.46117e-18
4.081e-18
3.06977e-18
4.49397e-18
3.10379e-18
3.67696e-18
4.11069e-18
3.73252e-18
2.98668e-18
2.62915e-18
2.72914e-18
3.0521e-18
3.38386e-18
3.59659e-18
3.65357e-18
3.7428e-18
3.51086e-18
4.02062e-18
3.09046e-18
4.51135e-18
3.09725e-18
3.63807e-18
4.12963e-18
3.73771e-18
3.00564e-18
2.60715e-18
2.7112e-18
3.09717e-18
3.37861e-18
3.59877e-18
3.47682e-18
4.08635e-18
2.5363e-18
6.30439e-18
-1.06322e-18
1.06863e-17
-3.93094e-18
9.7563e-18
-1.89361e-18
-2.90045e-18
-5.57061e-18
-5.84756e-18
-3.61098e-18
-6.83762e-19
1.51405e-18
2.75906e-18
3.34025e-18
3.52886e-18
3.70761e-18
3.68954e-18
3.67399e-18
3.7347e-18
3.7332e-18
3.75801e-18
3.78827e-18
3.49536e-18
4.09721e-18
3.10171e-18
4.56245e-18
3.03047e-18
3.71092e-18
4.16683e-18
3.65304e-18
2.91063e-18
2.58996e-18
2.76928e-18
3.1101e-18
3.40854e-18
3.62048e-18
3.62557e-18
3.7485e-18
3.70956e-18
3.73545e-18
3.73306e-18
3.66987e-18
1.33495e-18
-2.70477e-18
2.81186e-18
-6.25535e-18
5.1832e-18
3.01597e-18
1.46046e-17
1.08198e-17
8.25336e-18
6.20336e-18
6.10785e-18
5.92242e-18
1.00145e-17
5.89977e-18
1.49247e-17
3.32809e-18
1.7754e-17
-2.96606e-19
9.12062e-18
-3.47429e-18
1.12792e-17
-5.14066e-18
5.69119e-18
-4.60912e-18
9.61376e-18
-3.55578e-18
2.46661e-18
-3.92638e-19
4.02015e-18
3.86986e-18
8.1567e-18
2.45285e-18
1.26905e-17
8.23431e-19
1.54834e-17
2.25798e-18
1.58557e-18
3.14808e-18
-3.70035e-19
7.75717e-18
3.15873e-18
1.04625e-17
9.46411e-18
7.87955e-18
5.20675e-18
6.74684e-18
3.72194e-18
1.11754e-17
5.22867e-18
1.16404e-17
9.62876e-18
8.33631e-18
5.07104e-18
7.21034e-18
3.18015e-18
1.16985e-17
6.59611e-18
7.76155e-18
1.74208e-17
1.22032e-17
7.01688e-18
4.93595e-18
5.47734e-18
7.38974e-18
8.27805e-18
1.02837e-17
8.66057e-18
1.22104e-17
8.43197e-18
1.11905e-17
1.02136e-17
8.91799e-18
7.99346e-18
7.68705e-18
8.05554e-18
8.92786e-18
9.79467e-18
9.99161e-18
1.02432e-17
9.65936e-18
1.08705e-17
8.77949e-18
1.201e-17
8.26724e-18
1.11211e-17
1.01365e-17
9.05134e-18
7.84845e-18
7.58869e-18
8.02403e-18
8.86634e-18
9.51498e-18
9.95911e-18
1.00571e-17
1.02266e-17
9.77613e-18
1.07191e-17
8.90492e-18
1.20502e-17
8.26982e-18
1.11594e-17
1.02795e-17
9.0308e-18
7.94476e-18
7.53853e-18
8.03751e-18
8.90878e-18
9.51064e-18
9.86408e-18
9.80456e-18
1.04398e-17
8.8395e-18
1.28425e-17
5.32247e-18
1.69901e-17
3.24691e-18
1.36188e-17
1.11924e-17
6.57443e-18
1.93782e-18
7.98424e-19
2.65194e-18
5.53482e-18
7.7329e-18
9.10027e-18
9.75682e-18
9.84357e-18
1.02064e-17
1.01235e-17
1.01468e-17
1.02634e-17
1.02637e-17
1.02822e-17
1.0326e-17
9.75327e-18
1.10052e-17
8.79294e-18
1.21111e-17
8.02649e-18
1.11831e-17
1.0329e-17
8.75303e-18
7.61872e-18
7.58677e-18
8.20799e-18
8.99464e-18
9.53484e-18
1.00015e-17
9.93568e-18
1.02838e-17
1.01588e-17
1.0257e-17
1.02342e-17
1.0009e-17
1.10679e-18
-3.56652e-18
-1.11267e-18
-9.35254e-18
-5.34854e-18
-1.46634e-17
-5.34458e-18
-8.17176e-18
1.85832e-19
5.4823e-18
1.14457e-17
1.60821e-17
2.39207e-17
2.14614e-17
3.22494e-17
1.99239e-17
3.51918e-17
1.69183e-17
2.72625e-17
1.31822e-17
2.85751e-17
1.17614e-17
2.31285e-17
1.18278e-17
2.72192e-17
1.24139e-17
2.1512e-17
1.38237e-17
2.45246e-17
1.40256e-17
2.1033e-17
1.68692e-17
2.7596e-17
1.58503e-17
3.44863e-17
1.30767e-17
1.52105e-17
2.04489e-17
1.52617e-17
2.82788e-17
1.5731e-17
3.58184e-17
1.36222e-17
1.66563e-17
1.68096e-17
2.10472e-17
1.70767e-17
2.98745e-17
1.6909e-17
3.65022e-17
1.31839e-17
1.79089e-17
1.62912e-17
2.18996e-17
1.56128e-17
3.21348e-17
1.68147e-17
3.65779e-17
1.44661e-17
1.70827e-17
1.55272e-17
1.65936e-17
1.94034e-17
2.317e-17
2.47658e-17
2.76896e-17
2.49282e-17
3.13613e-17
2.36341e-17
3.26439e-17
2.08989e-17
2.19745e-17
2.24526e-17
2.30114e-17
2.37873e-17
2.54905e-17
2.7512e-17
2.75377e-17
2.76112e-17
2.67772e-17
2.86791e-17
2.50618e-17
3.11085e-17
2.33576e-17
3.24898e-17
2.06856e-17
2.24309e-17
2.21404e-17
2.27974e-17
2.3744e-17
2.5513e-17
2.65946e-17
2.73491e-17
2.73171e-17
2.77388e-17
2.71551e-17
2.84405e-17
2.56013e-17
3.12075e-17
2.33794e-17
3.32579e-17
2.11426e-17
2.23311e-17
2.25978e-17
2.27457e-17
2.40485e-17
2.55039e-17
2.71167e-17
2.7139e-17
2.70873e-17
2.79278e-17
2.57736e-17
3.13092e-17
2.14754e-17
3.75739e-17
1.5687e-17
3.9408e-17
1.51659e-17
1.51481e-17
1.32661e-17
1.46809e-17
1.77228e-17
2.15342e-17
2.4336e-17
2.62712e-17
2.7269e-17
2.69438e-17
2.77005e-17
2.77032e-17
2.81217e-17
2.80261e-17
2.79606e-17
2.74719e-17
2.78344e-17
2.71804e-17
2.92987e-17
2.50692e-17
3.12909e-17
2.25086e-17
3.25608e-17
2.11831e-17
2.16227e-17
2.14326e-17
2.30772e-17
2.42999e-17
2.59129e-17
2.65855e-17
2.74569e-17
2.73147e-17
2.81413e-17
2.8083e-17
2.80092e-17
2.80354e-17
2.73104e-17
2.75372e-17
-2.48887e-18
-1.38879e-17
-1.41958e-17
-2.75105e-17
-2.3679e-17
-3.7404e-17
-2.51203e-17
-2.93391e-17
-2.0397e-17
-1.31416e-17
-4.44422e-18
2.90526e-18
1.2747e-17
1.22621e-17
2.20973e-17
1.3925e-17
2.29382e-17
1.63883e-17
2.16242e-17
9.7182e-18
1.75924e-17
1.17966e-17
1.83557e-17
8.46596e-18
1.684e-17
1.19183e-17
1.77118e-17
9.46808e-18
1.5006e-17
1.41008e-17
1.46639e-17
1.28631e-17
1.42666e-17
1.56583e-17
1.35974e-17
2.55635e-17
2.104e-17
2.1871e-17
1.51237e-17
2.32021e-17
1.37004e-17
2.1875e-17
1.88647e-17
1.63225e-17
1.26414e-17
1.48775e-17
1.08043e-17
2.07173e-17
1.26052e-17
2.15589e-17
1.84366e-17
1.66687e-17
1.17104e-17
1.66585e-17
7.30386e-18
2.60956e-17
7.16417e-18
2.73307e-17
1.21119e-17
9.68589e-18
5.99771e-18
6.08671e-18
9.16943e-18
1.35304e-17
1.56651e-17
1.90782e-17
1.67483e-17
2.24971e-17
1.62549e-17
2.14089e-17
1.90107e-17
1.70133e-17
1.57318e-17
1.53043e-17
1.60841e-17
1.74196e-17
1.86747e-17
1.89806e-17
1.93867e-17
1.84878e-17
2.02843e-17
1.72382e-17
2.23247e-17
1.61308e-17
2.12786e-17
1.89889e-17
1.71067e-17
1.54191e-17
1.51904e-17
1.60488e-17
1.74091e-17
1.82808e-17
1.89237e-17
1.90603e-17
1.92931e-17
1.86733e-17
2.03359e-17
1.73975e-17
2.23871e-17
1.61692e-17
2.13591e-17
1.91178e-17
1.70213e-17
1.53582e-17
1.51724e-17
1.60204e-17
1.74158e-17
1.84007e-17
1.89081e-17
1.88622e-17
1.97374e-17
1.75158e-17
2.30848e-17
1.21336e-17
2.98445e-17
7.35559e-18
2.87747e-17
1.27102e-17
9.03229e-18
5.006e-18
4.98434e-18
8.59911e-18
1.28564e-17
1.59284e-17
1.78797e-17
1.88396e-17
1.88994e-17
1.93824e-17
1.91515e-17
1.91478e-17
1.92892e-17
1.95392e-17
1.959e-17
1.9676e-17
1.88183e-17
2.07631e-17
1.67386e-17
2.29971e-17
1.52823e-17
2.15291e-17
1.93851e-17
1.66797e-17
1.4402e-17
1.43831e-17
1.56913e-17
1.71345e-17
1.81838e-17
1.91214e-17
1.88931e-17
1.94763e-17
1.929e-17
1.95657e-17
1.9266e-17
1.90518e-17
1.91373e-17
1.93643e-17
-1.69301e-18
-1.54214e-17
-1.24626e-17
-3.21976e-17
-1.84538e-17
-3.17238e-17
-9.79423e-18
-2.12536e-17
-9.72152e-18
-2.11609e-18
6.28644e-18
1.34042e-17
2.37297e-17
2.29805e-17
3.42097e-17
2.47157e-17
3.76871e-17
2.17305e-17
3.02574e-17
1.89144e-17
3.16033e-17
1.6884e-17
2.72288e-17
1.81095e-17
3.11555e-17
1.6493e-17
2.74529e-17
1.8392e-17
2.89912e-17
1.9828e-17
2.23269e-17
2.42292e-17
2.29792e-17
2.82744e-17
2.57237e-17
3.10974e-17
3.17348e-17
3.50879e-17
2.98609e-17
3.63412e-17
2.74638e-17
3.51416e-17
2.51925e-17
2.72556e-17
2.56251e-17
2.7766e-17
2.46203e-17
3.20489e-17
2.54643e-17
3.4366e-17
2.48211e-17
2.72751e-17
2.39771e-17
3.02382e-17
1.95313e-17
3.92044e-17
1.85506e-17
4.10945e-17
1.83246e-17
1.91304e-17
1.67046e-17
1.72395e-17
2.02188e-17
2.45938e-17
2.71341e-17
3.04759e-17
2.84776e-17
3.35711e-17
2.77524e-17
3.50435e-17
2.47388e-17
2.67502e-17
2.74541e-17
2.76175e-17
2.83176e-17
2.95239e-17
3.03618e-17
3.06651e-17
3.08338e-17
3.04014e-17
3.14647e-17
2.93701e-17
3.39249e-17
2.74372e-17
3.50854e-17
2.47488e-17
2.69748e-17
2.71005e-17
2.72426e-17
2.82004e-17
2.97075e-17
3.00831e-17
3.04093e-17
3.05928e-17
3.07146e-17
3.04607e-17
3.19117e-17
2.95627e-17
3.37763e-17
2.77783e-17
3.50991e-17
2.491e-17
2.68897e-17
2.65042e-17
2.7482e-17
2.80319e-17
2.9473e-17
3.03766e-17
3.06305e-17
3.07135e-17
3.17664e-17
2.94684e-17
3.46901e-17
2.31626e-17
4.17488e-17
1.86161e-17
4.19949e-17
1.89477e-17
1.88348e-17
1.63761e-17
1.65949e-17
2.06954e-17
2.48409e-17
2.79971e-17
2.94377e-17
3.05492e-17
3.07414e-17
3.12147e-17
3.07498e-17
3.07066e-17
3.09379e-17
3.12427e-17
3.15805e-17
3.17755e-17
3.09569e-17
3.24361e-17
2.79014e-17
3.56212e-17
2.53485e-17
3.60148e-17
2.46314e-17
2.55154e-17
2.43178e-17
2.4714e-17
2.68792e-17
2.8504e-17
2.98141e-17
3.08522e-17
3.03343e-17
3.14551e-17
3.08333e-17
3.13946e-17
3.09034e-17
3.05725e-17
3.04696e-17
3.15242e-17
3.12665e-17
2.10196e-18
-7.21823e-18
-1.37038e-18
-2.08619e-17
-6.00346e-18
-1.86014e-17
4.49198e-19
-3.89565e-18
-5.34849e-18
-4.84675e-18
-2.72359e-20
5.86617e-18
1.56968e-17
1.4898e-17
2.56437e-17
1.71539e-17
2.62721e-17
1.95587e-17
2.50647e-17
1.26063e-17
2.06594e-17
1.48244e-17
2.1903e-17
1.13632e-17
2.00163e-17
1.44478e-17
2.16128e-17
1.19705e-17
1.77808e-17
1.77457e-17
1.68737e-17
1.68639e-17
1.47313e-17
2.00847e-17
1.54727e-17
2.84727e-17
2.54121e-17
2.69908e-17
2.18196e-17
2.68086e-17
2.1236e-17
2.11436e-17
2.95749e-17
2.4967e-17
1.9845e-17
2.02319e-17
1.64707e-17
2.32082e-17
1.93519e-17
2.01941e-17
2.93551e-17
2.5218e-17
1.84757e-17
2.24258e-17
1.19154e-17
2.94273e-17
1.29107e-17
2.61503e-17
2.32666e-17
1.80304e-17
1.19971e-17
1.02222e-17
1.24673e-17
1.65476e-17
1.88397e-17
2.17945e-17
2.07484e-17
2.3709e-17
2.2398e-17
1.99767e-17
3.00674e-17
2.5711e-17
2.27097e-17
2.06755e-17
2.07462e-17
2.13304e-17
2.19127e-17
2.23173e-17
2.25942e-17
2.20566e-17
2.3178e-17
2.14784e-17
2.39817e-17
2.23269e-17
1.99424e-17
2.97814e-17
2.56378e-17
2.24213e-17
2.09014e-17
2.0844e-17
2.14839e-17
2.18375e-17
2.22188e-17
2.22057e-17
2.24068e-17
2.21532e-17
2.3323e-17
2.14256e-17
2.38622e-17
2.23923e-17
1.98264e-17
2.99694e-17
2.58773e-17
2.2407e-17
2.10118e-17
2.08729e-17
2.14896e-17
2.1944e-17
2.21823e-17
2.2261e-17
2.31675e-17
2.0914e-17
2.61641e-17
1.57149e-17
3.20431e-17
1.33967e-17
2.70636e-17
2.40524e-17
1.76046e-17
1.13498e-17
9.90806e-18
1.26866e-17
1.64961e-17
1.93784e-17
2.11526e-17
2.22933e-17
2.23183e-17
2.25231e-17
2.25782e-17
2.25252e-17
2.24193e-17
2.27172e-17
2.27556e-17
2.29847e-17
2.22121e-17
2.42147e-17
1.95371e-17
2.69875e-17
1.80949e-17
2.48105e-17
2.29373e-17
2.00865e-17
1.70704e-17
1.65223e-17
1.82248e-17
1.99402e-17
2.12062e-17
2.24049e-17
2.22935e-17
2.26721e-17
2.23238e-17
2.2707e-17
2.25896e-17
2.23519e-17
2.23927e-17
2.28421e-17
2.28139e-17
-2.20712e-18
-1.47856e-17
-1.38027e-17
-3.21597e-17
-2.53218e-17
-4.33521e-17
-2.50868e-17
-3.1924e-17
-1.64458e-17
-5.18051e-18
6.69556e-18
1.74652e-17
3.08849e-17
2.98711e-17
4.43541e-17
3.10952e-17
4.75031e-17
2.84998e-17
3.95317e-17
2.33407e-17
3.96026e-17
2.25057e-17
3.55829e-17
2.20327e-17
3.86742e-17
2.2013e-17
3.50899e-17
2.25201e-17
3.56512e-17
2.57329e-17
2.92291e-17
2.82709e-17
3.22803e-17
3.10483e-17
3.93456e-17
3.12468e-17
3.33577e-17
3.94446e-17
3.21908e-17
4.52093e-17
2.97344e-17
4.93494e-17
2.58892e-17
2.91215e-17
2.751e-17
3.23708e-17
2.74168e-17
4.26227e-17
2.85795e-17
4.8585e-17
2.50983e-17
2.97015e-17
2.63977e-17
3.4282e-17
2.3974e-17
4.75393e-17
2.45466e-17
5.04859e-17
2.6427e-17
2.64492e-17
2.3121e-17
2.32875e-17
2.69348e-17
3.27026e-17
3.49709e-17
3.95217e-17
3.61672e-17
4.33603e-17
3.4619e-17
4.48495e-17
3.33202e-17
3.41183e-17
3.434e-17
3.34395e-17
3.53423e-17
3.71822e-17
3.81591e-17
3.87431e-17
3.98377e-17
3.86707e-17
4.12168e-17
3.67335e-17
4.39569e-17
3.41935e-17
4.4596e-17
3.34562e-17
3.41529e-17
3.32976e-17
3.38975e-17
3.52542e-17
3.71336e-17
3.81917e-17
3.90079e-17
3.89312e-17
3.94163e-17
3.87342e-17
4.1003e-17
3.65389e-17
4.35e-17
3.41817e-17
4.48996e-17
3.32426e-17
3.45108e-17
3.38818e-17
3.40286e-17
3.59035e-17
3.72979e-17
3.83199e-17
3.86187e-17
3.91987e-17
4.0417e-17
3.80056e-17
4.40044e-17
3.1333e-17
5.21372e-17
2.5681e-17
5.21112e-17
2.69543e-17
2.57194e-17
2.1984e-17
2.3113e-17
2.71033e-17
3.24012e-17
3.5799e-17
3.76492e-17
3.95083e-17
3.94227e-17
3.93819e-17
3.97345e-17
3.953e-17
3.95484e-17
3.99932e-17
3.95748e-17
3.97872e-17
3.88939e-17
4.15671e-17
3.58934e-17
4.50623e-17
3.27132e-17
4.55417e-17
3.29544e-17
3.25533e-17
3.09796e-17
3.15907e-17
3.41831e-17
3.6296e-17
3.78447e-17
3.93664e-17
3.93289e-17
3.96389e-17
3.88359e-17
3.98226e-17
4.00805e-17
3.94686e-17
3.94599e-17
3.99466e-17
3.97781e-17
3.97788e-17
-2.10555e-18
-1.68531e-17
-1.39216e-17
-3.77171e-17
-2.29753e-17
-3.99822e-17
-1.41531e-17
-2.78911e-17
-1.45005e-17
-4.1906e-18
9.11894e-18
1.98557e-17
3.42271e-17
3.28672e-17
4.95734e-17
3.34564e-17
5.29941e-17
3.14108e-17
4.40228e-17
2.49273e-17
4.3784e-17
2.43167e-17
3.94951e-17
2.3246e-17
4.30607e-17
2.45079e-17
3.83234e-17
2.43685e-17
3.9569e-17
2.82787e-17
3.21312e-17
3.14742e-17
3.5542e-17
3.46928e-17
4.0891e-17
4.24489e-17
4.08158e-17
4.48837e-17
3.64228e-17
4.98012e-17
3.38822e-17
5.13321e-17
3.58858e-17
3.56493e-17
3.21727e-17
3.69119e-17
3.0775e-17
4.68027e-17
3.2639e-17
5.06338e-17
3.53882e-17
3.57609e-17
3.12884e-17
3.82711e-17
2.78965e-17
5.18688e-17
2.71013e-17
5.63043e-17
2.94277e-17
2.90838e-17
2.59695e-17
2.64067e-17
3.07565e-17
3.66012e-17
3.90976e-17
4.46994e-17
3.93394e-17
4.90354e-17
3.71765e-17
5.12606e-17
3.69602e-17
3.60955e-17
3.55699e-17
3.56652e-17
3.79948e-17
4.01587e-17
4.13912e-17
4.28466e-17
4.45828e-17
4.29761e-17
4.56444e-17
3.96437e-17
4.96812e-17
3.6512e-17
5.07113e-17
3.66329e-17
3.62028e-17
3.54078e-17
3.60771e-17
3.78776e-17
4.07602e-17
4.18686e-17
4.2864e-17
4.34828e-17
4.46011e-17
4.31929e-17
4.58351e-17
3.98832e-17
4.93835e-17
3.64553e-17
5.09615e-17
3.64346e-17
3.6714e-17
3.529e-17
3.5992e-17
3.88215e-17
4.06894e-17
4.24513e-17
4.31111e-17
4.30081e-17
4.49879e-17
4.19441e-17
4.8761e-17
3.48925e-17
5.7883e-17
2.82033e-17
5.81944e-17
3.05555e-17
2.78268e-17
2.41243e-17
2.57338e-17
3.04693e-17
3.54753e-17
3.9958e-17
4.18427e-17
4.35582e-17
4.35383e-17
4.37434e-17
4.41236e-17
4.43426e-17
4.33975e-17
4.39924e-17
4.35882e-17
4.47114e-17
4.31578e-17
4.57332e-17
4.00463e-17
4.95859e-17
3.6177e-17
5.06766e-17
3.64059e-17
3.62772e-17
3.473e-17
3.59007e-17
3.84816e-17
4.06339e-17
4.23072e-17
4.32422e-17
4.37739e-17
4.31878e-17
4.31614e-17
4.38849e-17
4.44031e-17
4.36928e-17
4.43878e-17
4.43552e-17
4.3889e-17
4.42385e-17
4.37847e-17
-1.76479e-18
-1.52764e-17
-1.19487e-17
-3.23621e-17
-1.84693e-17
-3.22157e-17
-8.95296e-18
-2.09062e-17
-8.02613e-18
2.38956e-19
9.91824e-18
1.78627e-17
3.02177e-17
2.73838e-17
4.30556e-17
2.70748e-17
4.64332e-17
2.50691e-17
3.74847e-17
1.82071e-17
3.76535e-17
1.78215e-17
3.27108e-17
1.6908e-17
3.56574e-17
1.87076e-17
3.04825e-17
1.95682e-17
3.24772e-17
2.21793e-17
2.69706e-17
2.62572e-17
3.04916e-17
2.95728e-17
3.47486e-17
3.59071e-17
3.48188e-17
3.76142e-17
3.15853e-17
4.16015e-17
3.04318e-17
4.26116e-17
3.03504e-17
3.14743e-17
2.88346e-17
3.21009e-17
2.79182e-17
3.99279e-17
2.9536e-17
4.27996e-17
3.00703e-17
3.12561e-17
2.84343e-17
3.38543e-17
2.56299e-17
4.37742e-17
2.51328e-17
4.72391e-17
2.40363e-17
2.62406e-17
2.36859e-17
2.46615e-17
2.80907e-17
3.12965e-17
3.37768e-17
3.78035e-17
3.31076e-17
4.19865e-17
3.17576e-17
4.32606e-17
3.0603e-17
3.07696e-17
3.06708e-17
3.10973e-17
3.29533e-17
3.49286e-17
3.5586e-17
3.61319e-17
3.77779e-17
3.66866e-17
3.91222e-17
3.41647e-17
4.2357e-17
3.16206e-17
4.36442e-17
3.04303e-17
3.09951e-17
3.02296e-17
3.14022e-17
3.26893e-17
3.49226e-17
3.61208e-17
3.68373e-17
3.68667e-17
3.76289e-17
3.71236e-17
3.93271e-17
3.40526e-17
4.28322e-17
3.14141e-17
4.36806e-17
3.043e-17
3.1051e-17
3.04193e-17