/*--------------------------------*- C++ -*----------------------------------*\
| =========                 |                                                 |
| \\      /  F ield         | OpenFOAM: The Open Source CFD Toolbox           |
|  \\    /   O peration     | Version:  2512                                  |
|   \\  /    A nd           | Website:  www.openfoam.com                      |
|    \\/     M anipulation  |                                                 |
\*---------------------------------------------------------------------------*/
FoamFile
{
    version     2.0;
    format      ascii;
    arch        "LSB;label=32;scalar=64";
    class       volScalarField;
    location    "0.001";
    object      alphat;
}
// * * * * * * * * * * * * * * * * * * * * * * * * * * * * * * * * * * * * * //

dimensions      [1 -1 -1 0 0 0 0];

internalField   nonuniform List<scalar> 
100000
(
1.33621e-07
2.64731e-08
1.14912e-08
6.99134e-09
5.20124e-09
4.35056e-09
3.88852e-09
3.61139e-09
3.43076e-09
3.30451e-09
3.21132e-09
3.13967e-09
3.08288e-09
3.03683e-09
2.99882e-09
2.96701e-09
2.94011e-09
2.91716e-09
2.89744e-09
2.88041e-09
2.86563e-09
2.85277e-09
2.84154e-09
2.83173e-09
2.82315e-09
2.81566e-09
2.80911e-09
2.8034e-09
2.79844e-09
2.79414e-09
2.79045e-09
2.7873e-09
2.78465e-09
2.78245e-09
2.78067e-09
2.77928e-09
2.77824e-09
2.77753e-09
2.77712e-09
2.77699e-09
2.77713e-09
2.7775e-09
2.77809e-09
2.77888e-09
2.77986e-09
2.78102e-09
2.78235e-09
2.78383e-09
2.78546e-09
2.78723e-09
2.78913e-09
2.79115e-09
2.79329e-09
2.79554e-09
2.79789e-09
2.80035e-09
2.8029e-09
2.80555e-09
2.80829e-09
2.81111e-09
2.81401e-09
2.81699e-09
2.82004e-09
2.82316e-09
2.82635e-09
2.82959e-09
2.83289e-09
2.83623e-09
2.83962e-09
2.84303e-09
2.84644e-09
2.84984e-09
2.8532e-09
2.85648e-09
2.85966e-09
2.86271e-09
2.86564e-09
2.86845e-09
2.87116e-09
2.87378e-09
2.87633e-09
2.87882e-09
2.88126e-09
2.88365e-09
2.88601e-09
2.88833e-09
2.89062e-09
2.89288e-09
2.89512e-09
2.89733e-09
2.89953e-09
2.90171e-09
2.90388e-09
2.90603e-09
2.90817e-09
2.9103e-09
2.91243e-09
2.91454e-09
2.91666e-09
2.91877e-09
2.92089e-09
2.923e-09
2.92512e-09
2.92724e-09
2.92936e-09
2.93149e-09
2.93363e-09
2.93577e-09
2.93793e-09
2.94008e-09
2.94224e-09
2.94439e-09
2.94654e-09
2.94866e-09
2.95074e-09
2.9528e-09
2.9548e-09
2.95677e-09
2.9587e-09
2.96059e-09
2.96246e-09
2.9643e-09
2.96611e-09
2.96791e-09
2.96968e-09
2.97144e-09
2.97318e-09
2.97491e-09
2.97662e-09
2.97832e-09
2.98001e-09
2.98169e-09
2.98336e-09
2.98501e-09
2.98666e-09
2.98831e-09
2.98995e-09
2.99158e-09
2.9932e-09
2.99482e-09
2.99644e-09
2.99805e-09
2.99965e-09
3.00125e-09
3.00285e-09
3.00443e-09
3.00602e-09
3.00759e-09
3.00915e-09
3.01069e-09
3.01222e-09
3.01373e-09
3.01522e-09
3.01669e-09
3.01815e-09
3.01959e-09
3.02102e-09
3.02243e-09
3.02383e-09
3.02522e-09
3.02659e-09
3.02795e-09
3.0293e-09
3.03063e-09
3.03195e-09
3.03326e-09
3.03456e-09
3.03584e-09
3.03711e-09
3.03838e-09
3.03963e-09
3.04087e-09
3.0421e-09
3.04332e-09
3.04453e-09
3.04573e-09
3.04692e-09
3.0481e-09
3.04926e-09
3.05041e-09
3.05155e-09
3.05267e-09
3.05377e-09
3.05486e-09
3.05593e-09
3.05697e-09
3.058e-09
3.05902e-09
3.06002e-09
3.061e-09
3.06197e-09
3.06292e-09
3.06386e-09
3.06479e-09
3.0657e-09
3.0666e-09
3.06749e-09
3.06837e-09
3.06923e-09
3.07009e-09
3.07093e-09
3.07176e-09
3.07257e-09
3.07338e-09
3.07417e-09
3.07494e-09
3.07571e-09
3.07645e-09
3.07718e-09
3.0779e-09
3.0786e-09
3.07928e-09
3.07994e-09
3.08059e-09
3.08122e-09
3.08183e-09
3.08242e-09
3.083e-09
3.08356e-09
3.0841e-09
3.08462e-09
3.08513e-09
3.08562e-09
3.08609e-09
3.08654e-09
3.08698e-09
3.0874e-09
3.08781e-09
3.0882e-09
3.08857e-09
3.08893e-09
3.08927e-09
3.0896e-09
3.0899e-09
3.0902e-09
3.09047e-09
3.09073e-09
3.09097e-09
3.0912e-09
3.09141e-09
3.0916e-09
3.09177e-09
3.09193e-09
3.09207e-09
3.09219e-09
3.0923e-09
3.09238e-09
3.09245e-09
3.09251e-09
3.09254e-09
3.09256e-09
3.09256e-09
3.09255e-09
3.09252e-09
3.09246e-09
3.0924e-09
3.09231e-09
3.09221e-09
3.09209e-09
3.09195e-09
3.0918e-09
3.09162e-09
3.09143e-09
3.09122e-09
3.091e-09
3.09075e-09
3.09049e-09
3.09021e-09
3.08991e-09
3.08959e-09
3.08925e-09
3.0889e-09
3.08853e-09
3.08814e-09
3.08773e-09
3.0873e-09
3.08686e-09
3.08639e-09
3.08591e-09
3.08541e-09
3.08489e-09
3.08436e-09
3.0838e-09
3.08323e-09
3.08264e-09
3.08203e-09
3.0814e-09
3.08075e-09
3.08009e-09
3.07941e-09
3.07871e-09
3.07798e-09
3.07725e-09
3.07649e-09
3.07571e-09
3.07492e-09
3.07411e-09
3.07328e-09
3.07243e-09
3.07156e-09
3.07067e-09
3.06977e-09
3.06884e-09
3.0679e-09
3.06694e-09
3.06596e-09
3.06496e-09
3.06395e-09
3.06292e-09
3.06186e-09
3.06079e-09
3.0597e-09
3.0586e-09
3.05747e-09
3.05633e-09
3.05516e-09
3.05398e-09
3.05278e-09
3.05157e-09
3.05033e-09
3.04908e-09
3.04781e-09
3.04652e-09
3.04521e-09
3.04388e-09
3.04254e-09
3.04118e-09
3.0398e-09
3.0384e-09
3.03698e-09
3.03555e-09
3.0341e-09
3.03263e-09
3.03114e-09
3.02963e-09
3.02811e-09
3.02657e-09
3.02501e-09
3.02343e-09
3.02184e-09
3.02023e-09
3.0186e-09
3.01695e-09
3.01529e-09
3.01361e-09
3.01191e-09
3.01019e-09
3.00846e-09
3.00671e-09
3.00494e-09
3.00315e-09
3.00135e-09
2.99953e-09
2.99769e-09
2.99584e-09
2.99397e-09
2.99208e-09
2.99018e-09
2.98826e-09
2.98632e-09
2.98437e-09
2.9824e-09
2.98041e-09
2.97841e-09
2.97639e-09
2.97435e-09
2.9723e-09
2.97023e-09
2.96814e-09
2.96604e-09
2.96393e-09
2.96179e-09
2.95964e-09
2.95748e-09
2.9553e-09
2.9531e-09
2.95089e-09
2.94866e-09
2.94642e-09
2.94416e-09
2.94188e-09
2.93959e-09
2.93729e-09
2.93497e-09
2.93263e-09
2.93028e-09
2.92792e-09
2.92554e-09
2.92314e-09
2.92074e-09
2.91831e-09
2.91587e-09
2.91342e-09
2.91095e-09
2.90847e-09
2.90597e-09
2.90346e-09
2.90094e-09
2.8984e-09
2.89585e-09
2.89328e-09
2.8907e-09
2.88811e-09
2.8855e-09
2.88288e-09
2.88024e-09
2.8776e-09
2.87494e-09
2.87226e-09
2.86957e-09
2.86687e-09
2.86416e-09
2.86144e-09
2.8587e-09
2.85595e-09
2.85318e-09
2.85041e-09
2.84762e-09
2.84482e-09
2.842e-09
2.83918e-09
2.83634e-09
2.83349e-09
2.83063e-09
2.82776e-09
2.82488e-09
2.82198e-09
2.81907e-09
2.81616e-09
2.81323e-09
2.81029e-09
2.80734e-09
2.80437e-09
2.8014e-09
2.79842e-09
2.79542e-09
2.79242e-09
2.7894e-09
2.78638e-09
2.78334e-09
2.78029e-09
2.77724e-09
2.77417e-09
2.7711e-09
2.76801e-09
2.76492e-09
2.76181e-09
2.7587e-09
2.75558e-09
2.75244e-09
2.7493e-09
2.74615e-09
2.743e-09
2.73983e-09
2.73665e-09
2.73347e-09
2.73028e-09
2.72707e-09
2.72386e-09
2.72065e-09
2.71742e-09
2.71419e-09
2.71095e-09
2.7077e-09
2.70445e-09
2.70118e-09
2.69791e-09
2.69463e-09
2.69135e-09
2.68806e-09
2.68476e-09
2.68146e-09
2.67814e-09
2.67483e-09
2.6715e-09
2.66817e-09
2.66483e-09
2.66149e-09
2.65814e-09
2.65479e-09
2.65143e-09
2.64806e-09
2.64469e-09
2.64132e-09
2.63794e-09
2.63455e-09
2.63116e-09
2.62776e-09
2.62436e-09
2.62095e-09
2.61754e-09
2.61413e-09
2.61071e-09
2.60729e-09
2.60386e-09
2.60043e-09
2.597e-09
2.59356e-09
2.59012e-09
2.58667e-09
2.58322e-09
2.57977e-09
2.57632e-09
2.57286e-09
2.5694e-09
2.56593e-09
2.56247e-09
2.559e-09
2.55553e-09
2.55206e-09
2.54858e-09
2.5451e-09
2.54162e-09
2.53814e-09
2.53466e-09
2.53118e-09
2.52769e-09
2.5242e-09
2.52071e-09
2.51723e-09
2.51373e-09
2.51024e-09
2.50675e-09
2.50326e-09
2.49977e-09
2.49627e-09
2.49278e-09
2.48928e-09
2.48579e-09
2.4823e-09
2.4788e-09
2.47531e-09
2.47182e-09
2.46832e-09
2.46483e-09
2.46134e-09
2.45785e-09
2.45436e-09
2.45087e-09
2.44738e-09
2.4439e-09
2.44041e-09
2.43693e-09
2.43345e-09
2.42997e-09
2.42649e-09
2.42302e-09
2.41954e-09
2.41607e-09
2.4126e-09
2.40914e-09
2.40567e-09
2.40221e-09
2.39875e-09
2.3953e-09
2.39184e-09
2.38839e-09
2.38495e-09
2.3815e-09
2.37806e-09
2.37463e-09
2.37119e-09
2.36777e-09
2.36434e-09
2.36092e-09
2.3575e-09
2.35409e-09
2.35068e-09
2.34728e-09
2.34388e-09
2.34048e-09
2.33709e-09
2.3337e-09
2.33032e-09
2.32695e-09
2.32357e-09
2.32021e-09
2.31685e-09
2.31349e-09
2.31014e-09
2.3068e-09
2.30346e-09
2.30013e-09
2.2968e-09
2.29348e-09
2.29016e-09
2.28686e-09
2.28355e-09
2.28026e-09
2.27697e-09
2.27368e-09
2.27041e-09
2.26714e-09
2.26387e-09
2.26062e-09
2.25737e-09
2.25413e-09
2.25089e-09
2.24766e-09
2.24444e-09
2.24123e-09
2.23803e-09
2.23483e-09
2.23164e-09
2.22846e-09
2.22528e-09
2.22212e-09
2.21896e-09
2.21581e-09
2.21267e-09
2.20953e-09
2.20641e-09
2.20329e-09
2.20018e-09
2.19709e-09
2.19399e-09
2.19091e-09
2.18784e-09
2.18478e-09
2.18172e-09
2.17868e-09
2.17564e-09
2.17261e-09
2.16959e-09
2.16659e-09
2.16359e-09
2.1606e-09
2.15762e-09
2.15465e-09
2.15169e-09
2.14874e-09
2.1458e-09
2.14287e-09
2.13995e-09
2.13704e-09
2.13414e-09
2.13125e-09
2.12837e-09
2.1255e-09
2.12264e-09
2.1198e-09
2.11696e-09
2.11413e-09
2.11132e-09
2.10851e-09
2.10572e-09
2.10294e-09
2.10017e-09
2.09741e-09
2.09466e-09
2.09192e-09
2.08919e-09
2.08648e-09
2.08377e-09
2.08108e-09
2.0784e-09
2.07573e-09
2.07307e-09
2.07042e-09
2.06779e-09
2.06517e-09
2.06256e-09
2.05996e-09
2.05737e-09
2.05479e-09
2.05223e-09
2.04968e-09
2.04714e-09
2.04461e-09
2.0421e-09
2.0396e-09
2.03711e-09
2.03463e-09
2.03217e-09
2.02971e-09
2.02727e-09
2.02485e-09
2.02243e-09
2.02003e-09
2.01764e-09
2.01526e-09
2.0129e-09
2.01055e-09
2.00821e-09
2.00588e-09
2.00357e-09
2.00127e-09
1.99899e-09
1.99671e-09
1.99445e-09
1.9922e-09
1.98997e-09
1.98775e-09
1.98554e-09
1.98335e-09
1.98116e-09
1.979e-09
1.97684e-09
1.9747e-09
1.97257e-09
1.97046e-09
1.96836e-09
1.96627e-09
1.9642e-09
1.96214e-09
1.96009e-09
1.95805e-09
1.95604e-09
1.95403e-09
1.95204e-09
1.95006e-09
1.94809e-09
1.94614e-09
1.9442e-09
1.94228e-09
1.94037e-09
1.93847e-09
1.93659e-09
1.93472e-09
1.93287e-09
1.93103e-09
1.9292e-09
1.92739e-09
1.92559e-09
1.9238e-09
1.92203e-09
1.92027e-09
1.91853e-09
1.9168e-09
1.91508e-09
1.91338e-09
1.91169e-09
1.91002e-09
1.90836e-09
1.90672e-09
1.90508e-09
1.90347e-09
1.90186e-09
1.90027e-09
1.8987e-09
1.89714e-09
1.89559e-09
1.89406e-09
1.89254e-09
1.89103e-09
1.88954e-09
1.88807e-09
1.8866e-09
1.88516e-09
1.88372e-09
1.8823e-09
1.8809e-09
1.8795e-09
1.87812e-09
1.87676e-09
1.87541e-09
1.87407e-09
1.87275e-09
1.87145e-09
1.87015e-09
1.86887e-09
1.86761e-09
1.86635e-09
1.86512e-09
1.86389e-09
1.86268e-09
1.86149e-09
1.86031e-09
1.85914e-09
1.85799e-09
1.85685e-09
1.85572e-09
1.85461e-09
1.85351e-09
1.85243e-09
1.85136e-09
1.8503e-09
1.84926e-09
1.84823e-09
1.84721e-09
1.84621e-09
1.84523e-09
1.84425e-09
1.84329e-09
1.84235e-09
1.84141e-09
1.8405e-09
1.83959e-09
1.8387e-09
1.83782e-09
1.83696e-09
1.83611e-09
1.83527e-09
1.83445e-09
1.83364e-09
1.83284e-09
1.83206e-09
1.83129e-09
1.83053e-09
1.82979e-09
1.82906e-09
1.82835e-09
1.82764e-09
1.82696e-09
1.82628e-09
1.82562e-09
1.82497e-09
1.82433e-09
1.82371e-09
1.8231e-09
1.8225e-09
1.82192e-09
1.82135e-09
1.82079e-09
1.82024e-09
1.81971e-09
1.81919e-09
1.81869e-09
1.81819e-09
1.81771e-09
1.81724e-09
1.81679e-09
1.81635e-09
1.81592e-09
1.8155e-09
1.8151e-09
1.8147e-09
1.81432e-09
1.81396e-09
1.8136e-09
1.81326e-09
1.81293e-09
1.81261e-09
1.81231e-09
1.81202e-09
1.81173e-09
1.81147e-09
1.81121e-09
1.81096e-09
1.81073e-09
1.81051e-09
1.8103e-09
1.81011e-09
1.80992e-09
1.80975e-09
1.80959e-09
1.80944e-09
1.8093e-09
1.80918e-09
1.80906e-09
1.80896e-09
1.80887e-09
1.80879e-09
1.80872e-09
1.80866e-09
1.80862e-09
1.80858e-09
1.80856e-09
1.80855e-09
1.80854e-09
1.80855e-09
1.80858e-09
1.80861e-09
1.80865e-09
1.8087e-09
1.80877e-09
1.80884e-09
1.80893e-09
1.80903e-09
1.80914e-09
1.80925e-09
1.80938e-09
1.80952e-09
1.80967e-09
1.80983e-09
1.81e-09
1.81018e-09
1.81037e-09
1.81057e-09
1.81078e-09
1.811e-09
1.81123e-09
1.81147e-09
1.81173e-09
1.81199e-09
1.81226e-09
1.81254e-09
1.81282e-09
1.81312e-09
1.81343e-09
1.81375e-09
1.81408e-09
1.81441e-09
1.81476e-09
1.81511e-09
1.81548e-09
1.81585e-09
1.81623e-09
1.81662e-09
1.81702e-09
1.81743e-09
1.81785e-09
1.81827e-09
1.81871e-09
1.81915e-09
1.8196e-09
1.82006e-09
1.82053e-09
1.82101e-09
1.82149e-09
1.82198e-09
1.82248e-09
1.82299e-09
1.82351e-09
1.82403e-09
1.82456e-09
1.8251e-09
1.82565e-09
1.8262e-09
1.82676e-09
1.82733e-09
1.82791e-09
1.82849e-09
1.82908e-09
1.82967e-09
1.83028e-09
1.83089e-09
1.8315e-09
1.83212e-09
1.83275e-09
1.83339e-09
1.83403e-09
1.83467e-09
1.83532e-09
1.83598e-09
1.83664e-09
1.83731e-09
1.83798e-09
1.83866e-09
1.83934e-09
1.84002e-09
1.84071e-09
1.84141e-09
1.8421e-09
1.8428e-09
1.84351e-09
1.84422e-09
1.84493e-09
1.84564e-09
1.84635e-09
1.84707e-09
1.84778e-09
1.8485e-09
1.84922e-09
1.84994e-09
1.85065e-09
1.85137e-09
1.85209e-09
1.8528e-09
1.85351e-09
1.85421e-09
1.85492e-09
1.85561e-09
1.8563e-09
1.85699e-09
1.85766e-09
1.85833e-09
1.85898e-09
1.85962e-09
1.86025e-09
1.86087e-09
1.86146e-09
1.86204e-09
1.86259e-09
1.86312e-09
1.86363e-09
1.8641e-09
1.86454e-09
1.86494e-09
1.8653e-09
1.86561e-09
1.86587e-09
1.86607e-09
1.8662e-09
1.86626e-09
1.86624e-09
1.86612e-09
1.86589e-09
1.86554e-09
1.86506e-09
1.86442e-09
1.86359e-09
1.86256e-09
1.86127e-09
1.85966e-09
1.85764e-09
1.85515e-09
1.85192e-09
1.84642e-09
1.83791e-09
2.48691e-06
4.44702e-07
1.66343e-07
1.12187e-07
9.94995e-08
9.61127e-08
9.50969e-08
9.47387e-08
9.45786e-08
9.44867e-08
9.44239e-08
9.43767e-08
9.43397e-08
9.43098e-08
9.42853e-08
9.4265e-08
9.42482e-08
9.42342e-08
9.42225e-08
9.42127e-08
9.42046e-08
9.41979e-08
9.41924e-08
9.4188e-08
9.41846e-08
9.4182e-08
9.41801e-08
9.41789e-08
9.41784e-08
9.41783e-08
9.41788e-08
9.41797e-08
9.4181e-08
9.41827e-08
9.41847e-08
9.41871e-08
9.41898e-08
9.41928e-08
9.4196e-08
9.41995e-08
9.42032e-08
9.42071e-08
9.42112e-08
9.42156e-08
9.422e-08
9.42247e-08
9.42295e-08
9.42345e-08
9.42396e-08
9.42448e-08
9.42502e-08
9.42557e-08
9.42613e-08
9.4267e-08
9.42728e-08
9.42787e-08
9.42848e-08
9.42909e-08
9.42971e-08
9.43034e-08
9.43098e-08
9.43163e-08
9.43229e-08
9.43295e-08
9.43362e-08
9.4343e-08
9.43498e-08
9.43567e-08
9.43636e-08
9.43705e-08
9.43774e-08
9.43843e-08
9.43911e-08
9.43977e-08
9.44043e-08
9.44107e-08
9.4417e-08
9.44232e-08
9.44294e-08
9.44355e-08
9.44415e-08
9.44476e-08
9.44536e-08
9.44596e-08
9.44655e-08
9.44715e-08
9.44774e-08
9.44833e-08
9.44893e-08
9.44952e-08
9.45011e-08
9.4507e-08
9.45129e-08
9.45188e-08
9.45248e-08
9.45307e-08
9.45367e-08
9.45426e-08
9.45486e-08
9.45545e-08
9.45605e-08
9.45666e-08
9.45726e-08
9.45786e-08
9.45847e-08
9.45908e-08
9.45969e-08
9.4603e-08
9.46092e-08
9.46153e-08
9.46215e-08
9.46277e-08
9.46338e-08
9.46399e-08
9.4646e-08
9.46521e-08
9.46581e-08
9.46641e-08
9.46701e-08
9.46761e-08
9.4682e-08
9.4688e-08
9.46939e-08
9.46998e-08
9.47058e-08
9.47117e-08
9.47176e-08
9.47235e-08
9.47294e-08
9.47354e-08
9.47413e-08
9.47472e-08
9.47531e-08
9.47591e-08
9.4765e-08
9.4771e-08
9.47769e-08
9.47829e-08
9.47889e-08
9.47948e-08
9.48008e-08
9.48069e-08
9.48129e-08
9.48189e-08
9.4825e-08
9.4831e-08
9.48371e-08
9.48432e-08
9.48492e-08
9.48553e-08
9.48613e-08
9.48674e-08
9.48734e-08
9.48795e-08
9.48855e-08
9.48915e-08
9.48976e-08
9.49036e-08
9.49097e-08
9.49157e-08
9.49217e-08
9.49278e-08
9.49338e-08
9.49398e-08
9.49459e-08
9.49519e-08
9.49579e-08
9.4964e-08
9.497e-08
9.4976e-08
9.49821e-08
9.49881e-08
9.49941e-08
9.50002e-08
9.50062e-08
9.50123e-08
9.50184e-08
9.50244e-08
9.50304e-08
9.50365e-08
9.50425e-08
9.50485e-08
9.50546e-08
9.50606e-08
9.50666e-08
9.50726e-08
9.50785e-08
9.50845e-08
9.50905e-08
9.50965e-08
9.51024e-08
9.51084e-08
9.51144e-08
9.51203e-08
9.51263e-08
9.51322e-08
9.51382e-08
9.51441e-08
9.51501e-08
9.5156e-08
9.5162e-08
9.51679e-08
9.51739e-08
9.51798e-08
9.51857e-08
9.51917e-08
9.51976e-08
9.52035e-08
9.52094e-08
9.52153e-08
9.52212e-08
9.52271e-08
9.5233e-08
9.52388e-08
9.52447e-08
9.52505e-08
9.52564e-08
9.52622e-08
9.5268e-08
9.52738e-08
9.52796e-08
9.52854e-08
9.52912e-08
9.5297e-08
9.53027e-08
9.53085e-08
9.53142e-08
9.532e-08
9.53257e-08
9.53314e-08
9.53371e-08
9.53428e-08
9.53485e-08
9.53541e-08
9.53598e-08
9.53654e-08
9.53711e-08
9.53767e-08
9.53823e-08
9.5388e-08
9.53936e-08
9.53992e-08
9.54048e-08
9.54104e-08
9.54159e-08
9.54215e-08
9.54271e-08
9.54326e-08
9.54381e-08
9.54436e-08
9.54492e-08
9.54546e-08
9.54601e-08
9.54656e-08
9.5471e-08
9.54765e-08
9.54819e-08
9.54873e-08
9.54927e-08
9.54981e-08
9.55035e-08
9.55089e-08
9.55142e-08
9.55195e-08
9.55248e-08
9.55301e-08
9.55354e-08
9.55407e-08
9.5546e-08
9.55512e-08
9.55564e-08
9.55616e-08
9.55668e-08
9.5572e-08
9.55772e-08
9.55823e-08
9.55874e-08
9.55926e-08
9.55977e-08
9.56028e-08
9.56078e-08
9.56129e-08
9.56179e-08
9.5623e-08
9.5628e-08
9.5633e-08
9.56379e-08
9.56429e-08
9.56478e-08
9.56527e-08
9.56576e-08
9.56625e-08
9.56674e-08
9.56722e-08
9.56771e-08
9.56819e-08
9.56867e-08
9.56914e-08
9.56962e-08
9.57009e-08
9.57056e-08
9.57103e-08
9.5715e-08
9.57197e-08
9.57243e-08
9.57289e-08
9.57335e-08
9.57381e-08
9.57427e-08
9.57472e-08
9.57518e-08
9.57563e-08
9.57608e-08
9.57652e-08
9.57697e-08
9.57741e-08
9.57785e-08
9.57829e-08
9.57873e-08
9.57916e-08
9.5796e-08
9.58003e-08
9.58046e-08
9.58088e-08
9.58131e-08
9.58173e-08
9.58215e-08
9.58257e-08
9.58298e-08
9.58339e-08
9.5838e-08
9.58421e-08
9.58462e-08
9.58502e-08
9.58542e-08
9.58582e-08
9.58622e-08
9.58661e-08
9.58701e-08
9.58739e-08
9.58778e-08
9.58817e-08
9.58855e-08
9.58893e-08
9.58931e-08
9.58968e-08
9.59005e-08
9.59042e-08
9.59079e-08
9.59116e-08
9.59152e-08
9.59188e-08
9.59224e-08
9.59259e-08
9.59294e-08
9.59329e-08
9.59364e-08
9.59398e-08
9.59433e-08
9.59467e-08
9.595e-08
9.59534e-08
9.59567e-08
9.596e-08
9.59633e-08
9.59665e-08
9.59697e-08
9.59729e-08
9.59761e-08
9.59792e-08
9.59823e-08
9.59854e-08
9.59885e-08
9.59915e-08
9.59945e-08
9.59975e-08
9.60004e-08
9.60033e-08
9.60062e-08
9.60091e-08
9.60119e-08
9.60147e-08
9.60175e-08
9.60202e-08
9.60229e-08
9.60256e-08
9.60283e-08
9.60309e-08
9.60335e-08
9.60361e-08
9.60386e-08
9.60412e-08
9.60436e-08
9.60461e-08
9.60485e-08
9.60509e-08
9.60533e-08
9.60556e-08
9.60579e-08
9.60602e-08
9.60625e-08
9.60647e-08
9.60669e-08
9.6069e-08
9.60712e-08
9.60733e-08
9.60754e-08
9.60774e-08
9.60794e-08
9.60814e-08
9.60834e-08
9.60853e-08
9.60872e-08
9.60891e-08
9.60909e-08
9.60927e-08
9.60945e-08
9.60963e-08
9.6098e-08
9.60996e-08
9.61013e-08
9.61029e-08
9.61045e-08
9.6106e-08
9.61076e-08
9.6109e-08
9.61105e-08
9.61119e-08
9.61133e-08
9.61147e-08
9.6116e-08
9.61173e-08
9.61185e-08
9.61198e-08
9.6121e-08
9.61221e-08
9.61232e-08
9.61243e-08
9.61254e-08
9.61264e-08
9.61274e-08
9.61284e-08
9.61293e-08
9.61302e-08
9.61311e-08
9.61319e-08
9.61327e-08
9.61335e-08
9.61342e-08
9.61349e-08
9.61355e-08
9.61362e-08
9.61368e-08
9.61373e-08
9.61379e-08
9.61383e-08
9.61388e-08
9.61392e-08
9.61396e-08
9.614e-08
9.61403e-08
9.61406e-08
9.61409e-08
9.61411e-08
9.61413e-08
9.61414e-08
9.61415e-08
9.61416e-08
9.61416e-08
9.61417e-08
9.61416e-08
9.61416e-08
9.61415e-08
9.61413e-08
9.61412e-08
9.6141e-08
9.61407e-08
9.61405e-08
9.61402e-08
9.61398e-08
9.61395e-08
9.6139e-08
9.61386e-08
9.61381e-08
9.61376e-08
9.6137e-08
9.61365e-08
9.61358e-08
9.61352e-08
9.61345e-08
9.61337e-08
9.6133e-08
9.61322e-08
9.61313e-08
9.61305e-08
9.61295e-08
9.61286e-08
9.61276e-08
9.61266e-08
9.61256e-08
9.61245e-08
9.61234e-08
9.61222e-08
9.6121e-08
9.61198e-08
9.61185e-08
9.61172e-08
9.61159e-08
9.61145e-08
9.61131e-08
9.61117e-08
9.61102e-08
9.61087e-08
9.61071e-08
9.61055e-08
9.61039e-08
9.61022e-08
9.61005e-08
9.60988e-08
9.6097e-08
9.60952e-08
9.60934e-08
9.60915e-08
9.60896e-08
9.60876e-08
9.60856e-08
9.60836e-08
9.60816e-08
9.60795e-08
9.60773e-08
9.60752e-08
9.6073e-08
9.60707e-08
9.60684e-08
9.60661e-08
9.60638e-08
9.60614e-08
9.6059e-08
9.60565e-08
9.6054e-08
9.60515e-08
9.60489e-08
9.60463e-08
9.60437e-08
9.6041e-08
9.60383e-08
9.60355e-08
9.60328e-08
9.603e-08
9.60271e-08
9.60242e-08
9.60213e-08
9.60183e-08
9.60153e-08
9.60123e-08
9.60092e-08
9.60061e-08
9.6003e-08
9.59998e-08
9.59966e-08
9.59934e-08
9.59901e-08
9.59868e-08
9.59834e-08
9.59801e-08
9.59766e-08
9.59732e-08
9.59697e-08
9.59662e-08
9.59626e-08
9.5959e-08
9.59554e-08
9.59517e-08
9.5948e-08
9.59442e-08
9.59405e-08
9.59367e-08
9.59328e-08
9.59289e-08
9.5925e-08
9.59211e-08
9.59171e-08
9.59131e-08
9.5909e-08
9.59049e-08
9.59008e-08
9.58967e-08
9.58925e-08
9.58882e-08
9.5884e-08
9.58797e-08
9.58754e-08
9.5871e-08
9.58666e-08
9.58622e-08
9.58577e-08
9.58532e-08
9.58487e-08
9.58441e-08
9.58395e-08
9.58349e-08
9.58302e-08
9.58255e-08
9.58208e-08
9.5816e-08
9.58112e-08
9.58064e-08
9.58016e-08
9.57967e-08
9.57917e-08
9.57868e-08
9.57818e-08
9.57768e-08
9.57717e-08
9.57666e-08
9.57615e-08
9.57563e-08
9.57512e-08
9.57459e-08
9.57407e-08
9.57354e-08
9.57301e-08
9.57247e-08
9.57194e-08
9.57139e-08
9.57085e-08
9.5703e-08
9.56975e-08
9.5692e-08
9.56864e-08
9.56808e-08
9.56752e-08
9.56695e-08
9.56639e-08
9.56581e-08
9.56524e-08
9.56466e-08
9.56408e-08
9.5635e-08
9.56291e-08
9.56232e-08
9.56173e-08
9.56113e-08
9.56053e-08
9.55993e-08
9.55933e-08
9.55872e-08
9.55811e-08
9.55749e-08
9.55688e-08
9.55626e-08
9.55564e-08
9.55501e-08
9.55439e-08
9.55376e-08
9.55312e-08
9.55249e-08
9.55185e-08
9.55121e-08
9.55056e-08
9.54992e-08
9.54927e-08
9.54862e-08
9.54796e-08
9.5473e-08
9.54664e-08
9.54598e-08
9.54532e-08
9.54465e-08
9.54398e-08
9.5433e-08
9.54263e-08
9.54195e-08
9.54127e-08
9.54059e-08
9.5399e-08
9.53921e-08
9.53852e-08
9.53783e-08
9.53713e-08
9.53644e-08
9.53573e-08
9.53503e-08
9.53433e-08
9.53362e-08
9.53291e-08
9.5322e-08
9.53148e-08
9.53076e-08
9.53004e-08
9.52932e-08
9.5286e-08
9.52787e-08
9.52714e-08
9.52641e-08
9.52568e-08
9.52495e-08
9.52421e-08
9.52347e-08
9.52273e-08
9.52198e-08
9.52124e-08
9.52049e-08
9.51974e-08
9.51899e-08
9.51824e-08
9.51748e-08
9.51672e-08
9.51596e-08
9.5152e-08
9.51444e-08
9.51367e-08
9.5129e-08
9.51213e-08
9.51136e-08
9.51059e-08
9.50981e-08
9.50904e-08
9.50826e-08
9.50748e-08
9.5067e-08
9.50591e-08
9.50513e-08
9.50434e-08
9.50355e-08
9.50276e-08
9.50197e-08
9.50118e-08
9.50038e-08
9.49958e-08
9.49879e-08
9.49799e-08
9.49719e-08
9.49638e-08
9.49558e-08
9.49477e-08
9.49397e-08
9.49316e-08
9.49235e-08
9.49154e-08
9.49073e-08
9.48991e-08
9.4891e-08
9.48828e-08
9.48746e-08
9.48664e-08
9.48582e-08
9.485e-08
9.48418e-08
9.48336e-08
9.48253e-08
9.4817e-08
9.48088e-08
9.48005e-08
9.47922e-08
9.47839e-08
9.47756e-08
9.47672e-08
9.47589e-08
9.47506e-08
9.47422e-08
9.47338e-08
9.47255e-08
9.47171e-08
9.47087e-08
9.47003e-08
9.46919e-08
9.46835e-08
9.46751e-08
9.46667e-08
9.46582e-08
9.46498e-08
9.46413e-08
9.46329e-08
9.46244e-08
9.46159e-08
9.46075e-08
9.4599e-08
9.45905e-08
9.4582e-08
9.45735e-08
9.4565e-08
9.45565e-08
9.4548e-08
9.45395e-08
9.4531e-08
9.45225e-08
9.45139e-08
9.45054e-08
9.44969e-08
9.44883e-08
9.44798e-08
9.44713e-08
9.44627e-08
9.44542e-08
9.44456e-08
9.44371e-08
9.44286e-08
9.442e-08
9.44115e-08
9.44029e-08
9.43944e-08
9.43858e-08
9.43773e-08
9.43687e-08
9.43602e-08
9.43516e-08
9.43431e-08
9.43345e-08
9.4326e-08
9.43174e-08
9.43089e-08
9.43004e-08
9.42918e-08
9.42833e-08
9.42748e-08
9.42662e-08
9.42577e-08
9.42492e-08
9.42407e-08
9.42322e-08
9.42237e-08
9.42151e-08
9.42066e-08
9.41981e-08
9.41897e-08
9.41812e-08
9.41727e-08
9.41642e-08
9.41557e-08
9.41473e-08
9.41388e-08
9.41304e-08
9.41219e-08
9.41135e-08
9.41051e-08
9.40966e-08
9.40882e-08
9.40798e-08
9.40714e-08
9.4063e-08
9.40547e-08
9.40463e-08
9.40379e-08
9.40296e-08
9.40212e-08
9.40129e-08
9.40046e-08
9.39962e-08
9.39879e-08
9.39796e-08
9.39714e-08
9.39631e-08
9.39548e-08
9.39466e-08
9.39383e-08
9.39301e-08
9.39219e-08
9.39137e-08
9.39055e-08
9.38973e-08
9.38891e-08
9.3881e-08
9.38728e-08
9.38647e-08
9.38566e-08
9.38485e-08
9.38404e-08
9.38323e-08
9.38242e-08
9.38162e-08
9.38082e-08
9.38001e-08
9.37921e-08
9.37842e-08
9.37762e-08
9.37682e-08
9.37603e-08
9.37524e-08
9.37444e-08
9.37366e-08
9.37287e-08
9.37208e-08
9.3713e-08
9.37052e-08
9.36973e-08
9.36896e-08
9.36818e-08
9.3674e-08
9.36663e-08
9.36586e-08
9.36509e-08
9.36432e-08
9.36355e-08
9.36279e-08
9.36202e-08
9.36126e-08
9.3605e-08
9.35975e-08
9.35899e-08
9.35824e-08
9.35749e-08
9.35674e-08
9.35599e-08
9.35525e-08
9.35451e-08
9.35376e-08
9.35303e-08
9.35229e-08
9.35156e-08
9.35082e-08
9.35009e-08
9.34937e-08
9.34864e-08
9.34792e-08
9.3472e-08
9.34648e-08
9.34576e-08
9.34505e-08
9.34433e-08
9.34362e-08
9.34292e-08
9.34221e-08
9.34151e-08
9.34081e-08
9.34011e-08
9.33942e-08
9.33872e-08
9.33803e-08
9.33735e-08
9.33666e-08
9.33598e-08
9.3353e-08
9.33462e-08
9.33394e-08
9.33327e-08
9.3326e-08
9.33193e-08
9.33126e-08
9.3306e-08
9.32993e-08
9.32928e-08
9.32862e-08
9.32796e-08
9.32731e-08
9.32666e-08
9.32601e-08
9.32537e-08
9.32473e-08
9.32409e-08
9.32345e-08
9.32281e-08
9.32218e-08
9.32155e-08
9.32092e-08
9.32029e-08
9.31967e-08
9.31905e-08
9.31843e-08
9.31781e-08
9.31719e-08
9.31658e-08
9.31597e-08
9.31536e-08
9.31475e-08
9.31415e-08
9.31354e-08
9.31294e-08
9.31234e-08
9.31174e-08
9.31115e-08
9.31055e-08
9.30996e-08
9.30936e-08
9.30877e-08
9.30818e-08
9.30759e-08
9.307e-08
9.30641e-08
9.30582e-08
9.30523e-08
9.30463e-08
9.30404e-08
9.30344e-08
9.30285e-08
9.30224e-08
9.30164e-08
9.30103e-08
9.30041e-08
9.29978e-08
9.29915e-08
9.2985e-08
9.29784e-08
9.29714e-08
9.29638e-08
9.29548e-08
9.29434e-08
9.29279e-08
9.29073e-08
9.28857e-08
1.81054e-05
4.68368e-06
2.4659e-06
1.91155e-06
1.76265e-06
1.72311e-06
1.71336e-06
1.71143e-06
1.71136e-06
1.71162e-06
1.71189e-06
1.7121e-06
1.71226e-06
1.71238e-06
1.71247e-06
1.71255e-06
1.71261e-06
1.71265e-06
1.71269e-06
1.71272e-06
1.71275e-06
1.71277e-06
1.71279e-06
1.71281e-06
1.71282e-06
1.71283e-06
1.71284e-06
1.71285e-06
1.71286e-06
1.71287e-06
1.71288e-06
1.71288e-06
1.71289e-06
1.71289e-06
1.7129e-06
1.7129e-06
1.71291e-06
1.71291e-06
1.71292e-06
1.71292e-06
1.71293e-06
1.71293e-06
1.71294e-06
1.71294e-06
1.71294e-06
1.71295e-06
1.71295e-06
1.71296e-06
1.71296e-06
1.71296e-06
1.71297e-06
1.71297e-06
1.71298e-06
1.71298e-06
1.71299e-06
1.71299e-06
1.71299e-06
1.713e-06
1.713e-06
1.71301e-06
1.71301e-06
1.71302e-06
1.71302e-06
1.71303e-06
1.71303e-06
1.71303e-06
1.71304e-06
1.71304e-06
1.71305e-06
1.71305e-06
1.71305e-06
1.71306e-06
1.71306e-06
1.71306e-06
1.71306e-06
1.71306e-06
1.71306e-06
1.71306e-06
1.71306e-06
1.71306e-06
1.71306e-06
1.71306e-06
1.71306e-06
1.71306e-06
1.71306e-06
1.71306e-06
1.71307e-06
1.71307e-06
1.71307e-06
1.71307e-06
1.71307e-06
1.71308e-06
1.71308e-06
1.71308e-06
1.71308e-06
1.71309e-06
1.71309e-06
1.71309e-06
1.7131e-06
1.7131e-06
1.7131e-06
1.71311e-06
1.71311e-06
1.71311e-06
1.71312e-06
1.71312e-06
1.71313e-06
1.71313e-06
1.71313e-06
1.71314e-06
1.71314e-06
1.71314e-06
1.71315e-06
1.71315e-06
1.71315e-06
1.71316e-06
1.71316e-06
1.71316e-06
1.71317e-06
1.71317e-06
1.71317e-06
1.71317e-06
1.71318e-06
1.71318e-06
1.71318e-06
1.71319e-06
1.71319e-06
1.7132e-06
1.7132e-06
1.7132e-06
1.71321e-06
1.71321e-06
1.71321e-06
1.71322e-06
1.71322e-06
1.71323e-06
1.71323e-06
1.71323e-06
1.71324e-06
1.71324e-06
1.71325e-06
1.71325e-06
1.71326e-06
1.71326e-06
1.71327e-06
1.71327e-06
1.71328e-06
1.71328e-06
1.71329e-06
1.71329e-06
1.71329e-06
1.7133e-06
1.7133e-06
1.71331e-06
1.71331e-06
1.71332e-06
1.71332e-06
1.71333e-06
1.71333e-06
1.71334e-06
1.71334e-06
1.71335e-06
1.71335e-06
1.71336e-06
1.71336e-06
1.71337e-06
1.71338e-06
1.71338e-06
1.71339e-06
1.71339e-06
1.7134e-06
1.7134e-06
1.71341e-06
1.71341e-06
1.71342e-06
1.71342e-06
1.71343e-06
1.71344e-06
1.71344e-06
1.71345e-06
1.71345e-06
1.71346e-06
1.71346e-06
1.71347e-06
1.71347e-06
1.71348e-06
1.71349e-06
1.71349e-06
1.7135e-06
1.7135e-06
1.71351e-06
1.71351e-06
1.71352e-06
1.71352e-06
1.71353e-06
1.71354e-06
1.71354e-06
1.71355e-06
1.71355e-06
1.71356e-06
1.71356e-06
1.71357e-06
1.71358e-06
1.71358e-06
1.71359e-06
1.71359e-06
1.7136e-06
1.71361e-06
1.71361e-06
1.71362e-06
1.71362e-06
1.71363e-06
1.71363e-06
1.71364e-06
1.71365e-06
1.71365e-06
1.71366e-06
1.71366e-06
1.71367e-06
1.71368e-06
1.71368e-06
1.71369e-06
1.71369e-06
1.7137e-06
1.7137e-06
1.71371e-06
1.71372e-06
1.71372e-06
1.71373e-06
1.71373e-06
1.71374e-06
1.71374e-06
1.71375e-06
1.71376e-06
1.71376e-06
1.71377e-06
1.71377e-06
1.71378e-06
1.71378e-06
1.71379e-06
1.7138e-06
1.7138e-06
1.71381e-06
1.71381e-06
1.71382e-06
1.71382e-06
1.71383e-06
1.71384e-06
1.71384e-06
1.71385e-06
1.71385e-06
1.71386e-06
1.71386e-06
1.71387e-06
1.71388e-06
1.71388e-06
1.71389e-06
1.71389e-06
1.7139e-06
1.7139e-06
1.71391e-06
1.71392e-06
1.71392e-06
1.71393e-06
1.71393e-06
1.71394e-06
1.71394e-06
1.71395e-06
1.71395e-06
1.71396e-06
1.71396e-06
1.71397e-06
1.71398e-06
1.71398e-06
1.71399e-06
1.71399e-06
1.714e-06
1.714e-06
1.71401e-06
1.71401e-06
1.71402e-06
1.71402e-06
1.71403e-06
1.71403e-06
1.71404e-06
1.71404e-06
1.71405e-06
1.71405e-06
1.71406e-06
1.71406e-06
1.71407e-06
1.71408e-06
1.71408e-06
1.71409e-06
1.71409e-06
1.7141e-06
1.7141e-06
1.71411e-06
1.71411e-06
1.71412e-06
1.71412e-06
1.71412e-06
1.71413e-06
1.71413e-06
1.71414e-06
1.71414e-06
1.71415e-06
1.71415e-06
1.71416e-06
1.71416e-06
1.71417e-06
1.71417e-06
1.71418e-06
1.71418e-06
1.71419e-06
1.71419e-06
1.7142e-06
1.7142e-06
1.71421e-06
1.71421e-06
1.71421e-06
1.71422e-06
1.71422e-06
1.71423e-06
1.71423e-06
1.71424e-06
1.71424e-06
1.71425e-06
1.71425e-06
1.71425e-06
1.71426e-06
1.71426e-06
1.71427e-06
1.71427e-06
1.71428e-06
1.71428e-06
1.71428e-06
1.71429e-06
1.71429e-06
1.7143e-06
1.7143e-06
1.7143e-06
1.71431e-06
1.71431e-06
1.71432e-06
1.71432e-06
1.71432e-06
1.71433e-06
1.71433e-06
1.71434e-06
1.71434e-06
1.71434e-06
1.71435e-06
1.71435e-06
1.71435e-06
1.71436e-06
1.71436e-06
1.71436e-06
1.71437e-06
1.71437e-06
1.71438e-06
1.71438e-06
1.71438e-06
1.71439e-06
1.71439e-06
1.71439e-06
1.7144e-06
1.7144e-06
1.7144e-06
1.71441e-06
1.71441e-06
1.71441e-06
1.71441e-06
1.71442e-06
1.71442e-06
1.71442e-06
1.71443e-06
1.71443e-06
1.71443e-06
1.71444e-06
1.71444e-06
1.71444e-06
1.71444e-06
1.71445e-06
1.71445e-06
1.71445e-06
1.71445e-06
1.71446e-06
1.71446e-06
1.71446e-06
1.71446e-06
1.71447e-06
1.71447e-06
1.71447e-06
1.71447e-06
1.71448e-06
1.71448e-06
1.71448e-06
1.71448e-06
1.71449e-06
1.71449e-06
1.71449e-06
1.71449e-06
1.71449e-06
1.7145e-06
1.7145e-06
1.7145e-06
1.7145e-06
1.7145e-06
1.71451e-06
1.71451e-06
1.71451e-06
1.71451e-06
1.71451e-06
1.71451e-06
1.71452e-06
1.71452e-06
1.71452e-06
1.71452e-06
1.71452e-06
1.71452e-06
1.71453e-06
1.71453e-06
1.71453e-06
1.71453e-06
1.71453e-06
1.71453e-06
1.71453e-06
1.71453e-06
1.71454e-06
1.71454e-06
1.71454e-06
1.71454e-06
1.71454e-06
1.71454e-06
1.71454e-06
1.71454e-06
1.71454e-06
1.71454e-06
1.71455e-06
1.71455e-06
1.71455e-06
1.71455e-06
1.71455e-06
1.71455e-06
1.71455e-06
1.71455e-06
1.71455e-06