/*--------------------------------*- C++ -*----------------------------------*\
| =========                 |                                                 |
| \\      /  F ield         | OpenFOAM: The Open Source CFD Toolbox           |
|  \\    /   O peration     | Version:  2512                                  |
|   \\  /    A nd           | Website:  www.openfoam.com                      |
|    \\/     M anipulation  |                                                 |
\*---------------------------------------------------------------------------*/
FoamFile
{
    version     2.0;
    format      ascii;
    arch        "LSB;label=32;scalar=64";
    class       volVectorField;
    location    "0.001";
    object      B;
}
// * * * * * * * * * * * * * * * * * * * * * * * * * * * * * * * * * * * * * //

dimensions      [1 0 -2 0 0 -1 0];

internalField   nonuniform List<vector> 
100000
(
(0.156189 20.0489 0)
(0.152069 20.0229 0)
(0.142076 20.024 0)
(0.132996 20.0184 0)
(0.126248 20.0126 0)
(0.121355 20.0087 0)
(0.117751 20.0061 0)
(0.115041 20.0045 0)
(0.112954 20.0034 0)
(0.111309 20.0027 0)
(0.109985 20.0022 0)
(0.108899 20.0019 0)
(0.107994 20.0016 0)
(0.107229 20.0014 0)
(0.106574 20.0012 0)
(0.106009 20.0011 0)
(0.105517 20.001 0)
(0.105084 20.0009 0)
(0.104702 20.0008 0)
(0.104363 20.0008 0)
(0.10406 20.0007 0)
(0.103788 20.0007 0)
(0.103542 20.0006 0)
(0.103321 20.0006 0)
(0.10312 20.0006 0)
(0.102937 20.0005 0)
(0.10277 20.0005 0)
(0.102618 20.0005 0)
(0.102479 20.0005 0)
(0.102352 20.0005 0)
(0.102235 20.0004 0)
(0.102128 20.0004 0)
(0.10203 20.0004 0)
(0.101939 20.0004 0)
(0.101857 20.0004 0)
(0.101781 20.0004 0)
(0.101711 20.0004 0)
(0.101648 20.0004 0)
(0.10159 20.0003 0)
(0.101537 20.0003 0)
(0.10149 20.0003 0)
(0.101446 20.0003 0)
(0.101407 20.0003 0)
(0.101372 20.0003 0)
(0.101341 20.0003 0)
(0.101313 20.0003 0)
(0.101288 20.0003 0)
(0.101266 20.0003 0)
(0.101248 20.0003 0)
(0.101232 20.0003 0)
(0.101218 20.0003 0)
(0.101207 20.0003 0)
(0.101199 20.0003 0)
(0.101192 20.0003 0)
(0.101188 20.0003 0)
(0.101186 20.0003 0)
(0.101186 20.0003 0)
(0.101187 20.0002 0)
(0.101191 20.0002 0)
(0.101196 20.0002 0)
(0.101203 20.0002 0)
(0.101211 20.0002 0)
(0.101221 20.0002 0)
(0.101233 20.0002 0)
(0.101245 20.0002 0)
(0.101259 20.0002 0)
(0.101273 20.0002 0)
(0.101289 20.0002 0)
(0.101305 20.0002 0)
(0.101322 20.0002 0)
(0.101338 20.0002 0)
(0.101355 20.0002 0)
(0.10137 20.0002 0)
(0.101384 20.0002 0)
(0.101396 20.0002 0)
(0.101405 20.0002 0)
(0.101412 20.0003 0)
(0.101417 20.0003 0)
(0.101419 20.0003 0)
(0.101419 20.0003 0)
(0.101418 20.0003 0)
(0.101415 20.0003 0)
(0.101411 20.0003 0)
(0.101407 20.0003 0)
(0.101401 20.0003 0)
(0.101394 20.0003 0)
(0.101387 20.0003 0)
(0.101379 20.0003 0)
(0.101371 20.0003 0)
(0.101362 20.0003 0)
(0.101352 20.0003 0)
(0.101343 20.0003 0)
(0.101333 20.0003 0)
(0.101322 20.0003 0)
(0.101312 20.0003 0)
(0.101301 20.0003 0)
(0.101291 20.0003 0)
(0.10128 20.0003 0)
(0.101269 20.0003 0)
(0.101258 20.0003 0)
(0.101247 20.0003 0)
(0.101236 20.0003 0)
(0.101226 20.0003 0)
(0.101215 20.0003 0)
(0.101205 20.0003 0)
(0.101194 20.0003 0)
(0.101184 20.0003 0)
(0.101175 20.0003 0)
(0.101165 20.0003 0)
(0.101156 20.0003 0)
(0.101146 20.0003 0)
(0.101137 20.0003 0)
(0.101127 20.0003 0)
(0.101118 20.0003 0)
(0.101107 20.0003 0)
(0.101097 20.0003 0)
(0.101085 20.0003 0)
(0.101073 20.0003 0)
(0.101059 20.0003 0)
(0.101046 20.0003 0)
(0.101031 20.0003 0)
(0.101017 20.0003 0)
(0.101001 20.0003 0)
(0.100986 20.0003 0)
(0.10097 20.0003 0)
(0.100954 20.0003 0)
(0.100937 20.0003 0)
(0.100921 20.0003 0)
(0.100904 20.0003 0)
(0.100887 20.0003 0)
(0.10087 20.0003 0)
(0.100853 20.0003 0)
(0.100835 20.0003 0)
(0.100818 20.0003 0)
(0.1008 20.0003 0)
(0.100783 20.0003 0)
(0.100765 20.0003 0)
(0.100748 20.0003 0)
(0.10073 20.0003 0)
(0.100713 20.0003 0)
(0.100695 20.0003 0)
(0.100678 20.0003 0)
(0.100661 20.0003 0)
(0.100643 20.0003 0)
(0.100626 20.0003 0)
(0.100609 20.0003 0)
(0.100592 20.0003 0)
(0.100574 20.0003 0)
(0.100557 20.0003 0)
(0.100539 20.0003 0)
(0.100522 20.0003 0)
(0.100504 20.0003 0)
(0.100486 20.0003 0)
(0.100467 20.0003 0)
(0.100449 20.0003 0)
(0.10043 20.0003 0)
(0.100411 20.0003 0)
(0.100392 20.0003 0)
(0.100373 20.0003 0)
(0.100354 20.0003 0)
(0.100334 20.0003 0)
(0.100315 20.0003 0)
(0.100295 20.0003 0)
(0.100276 20.0003 0)
(0.100256 20.0003 0)
(0.100236 20.0003 0)
(0.100216 20.0003 0)
(0.100196 20.0003 0)
(0.100176 20.0003 0)
(0.100156 20.0003 0)
(0.100136 20.0003 0)
(0.100115 20.0003 0)
(0.100095 20.0003 0)
(0.100075 20.0003 0)
(0.100054 20.0003 0)
(0.100034 20.0003 0)
(0.100014 20.0003 0)
(0.099993 20.0003 0)
(0.0999725 20.0003 0)
(0.0999518 20.0003 0)
(0.0999311 20.0003 0)
(0.0999101 20.0003 0)
(0.0998891 20.0003 0)
(0.0998678 20.0003 0)
(0.0998463 20.0003 0)
(0.0998247 20.0003 0)
(0.0998029 20.0003 0)
(0.0997809 20.0003 0)
(0.0997588 20.0003 0)
(0.0997366 20.0003 0)
(0.0997142 20.0003 0)
(0.0996918 20.0003 0)
(0.0996692 20.0003 0)
(0.0996466 20.0003 0)
(0.099624 20.0003 0)
(0.0996012 20.0003 0)
(0.0995785 20.0003 0)
(0.0995557 20.0003 0)
(0.0995329 20.0003 0)
(0.09951 20.0003 0)
(0.0994871 20.0003 0)
(0.0994641 20.0003 0)
(0.0994411 20.0003 0)
(0.099418 20.0003 0)
(0.0993949 20.0003 0)
(0.0993716 20.0003 0)
(0.0993483 20.0003 0)
(0.0993249 20.0003 0)
(0.0993014 20.0003 0)
(0.0992778 20.0003 0)
(0.099254 20.0003 0)
(0.0992301 20.0003 0)
(0.0992061 20.0003 0)
(0.0991819 20.0003 0)
(0.0991576 20.0003 0)
(0.099133 20.0003 0)
(0.0991084 20.0003 0)
(0.0990836 20.0003 0)
(0.0990586 20.0003 0)
(0.0990335 20.0003 0)
(0.0990083 20.0003 0)
(0.0989829 20.0003 0)
(0.0989574 20.0003 0)
(0.0989318 20.0003 0)
(0.0989061 20.0003 0)
(0.0988802 20.0003 0)
(0.0988542 20.0003 0)
(0.0988281 20.0003 0)
(0.0988019 20.0003 0)
(0.0987755 20.0003 0)
(0.0987491 20.0003 0)
(0.0987226 20.0003 0)
(0.0986959 20.0003 0)
(0.0986691 20.0003 0)
(0.0986423 20.0003 0)
(0.0986153 20.0003 0)
(0.0985882 20.0003 0)
(0.098561 20.0003 0)
(0.0985336 20.0003 0)
(0.0985062 20.0003 0)
(0.0984786 20.0003 0)
(0.0984509 20.0003 0)
(0.0984231 20.0003 0)
(0.0983951 20.0003 0)
(0.0983671 20.0003 0)
(0.0983389 20.0003 0)
(0.0983105 20.0003 0)
(0.0982821 20.0003 0)
(0.0982535 20.0003 0)
(0.0982248 20.0003 0)
(0.098196 20.0003 0)
(0.098167 20.0003 0)
(0.098138 20.0003 0)
(0.0981088 20.0003 0)
(0.0980795 20.0003 0)
(0.0980501 20.0003 0)
(0.0980205 20.0003 0)
(0.0979908 20.0003 0)
(0.097961 20.0003 0)
(0.0979311 20.0003 0)
(0.097901 20.0003 0)
(0.0978708 20.0003 0)
(0.0978404 20.0003 0)
(0.09781 20.0003 0)
(0.0977794 20.0003 0)
(0.0977486 20.0003 0)
(0.0977177 20.0003 0)
(0.0976867 20.0003 0)
(0.0976556 20.0003 0)
(0.0976243 20.0003 0)
(0.0975928 20.0003 0)
(0.0975612 20.0003 0)
(0.0975295 20.0003 0)
(0.0974976 20.0003 0)
(0.0974656 20.0003 0)
(0.0974334 20.0003 0)
(0.0974011 20.0003 0)
(0.0973687 20.0003 0)
(0.0973361 20.0003 0)
(0.0973034 20.0003 0)
(0.0972705 20.0003 0)
(0.0972375 20.0003 0)
(0.0972043 20.0003 0)
(0.097171 20.0003 0)
(0.0971376 20.0003 0)
(0.097104 20.0003 0)
(0.0970703 20.0003 0)
(0.0970364 20.0003 0)
(0.0970023 20.0003 0)
(0.0969681 20.0003 0)
(0.0969338 20.0003 0)
(0.0968993 20.0003 0)
(0.0968646 20.0003 0)
(0.0968298 20.0003 0)
(0.0967949 20.0003 0)
(0.0967598 20.0003 0)
(0.0967245 20.0003 0)
(0.0966891 20.0003 0)
(0.0966535 20.0003 0)
(0.0966178 20.0003 0)
(0.0965819 20.0003 0)
(0.0965459 20.0003 0)
(0.0965097 20.0003 0)
(0.0964733 20.0003 0)
(0.0964368 20.0003 0)
(0.0964002 20.0003 0)
(0.0963633 20.0003 0)
(0.0963264 20.0003 0)
(0.0962892 20.0003 0)
(0.0962519 20.0003 0)
(0.0962145 20.0003 0)
(0.0961768 20.0003 0)
(0.0961391 20.0003 0)
(0.0961011 20.0003 0)
(0.096063 20.0003 0)
(0.0960248 20.0003 0)
(0.0959863 20.0003 0)
(0.0959478 20.0003 0)
(0.095909 20.0003 0)
(0.0958701 20.0004 0)
(0.095831 20.0004 0)
(0.0957918 20.0004 0)
(0.0957524 20.0004 0)
(0.0957128 20.0004 0)
(0.0956731 20.0004 0)
(0.0956332 20.0004 0)
(0.0955931 20.0004 0)
(0.0955529 20.0004 0)
(0.0955125 20.0004 0)
(0.095472 20.0004 0)
(0.0954312 20.0004 0)
(0.0953904 20.0004 0)
(0.0953493 20.0004 0)
(0.0953081 20.0004 0)
(0.0952667 20.0004 0)
(0.0952251 20.0004 0)
(0.0951834 20.0004 0)
(0.0951415 20.0004 0)
(0.0950994 20.0004 0)
(0.0950572 20.0004 0)
(0.0950148 20.0004 0)
(0.0949722 20.0004 0)
(0.0949295 20.0004 0)
(0.0948866 20.0004 0)
(0.0948435 20.0004 0)
(0.0948002 20.0004 0)
(0.0947568 20.0004 0)
(0.0947132 20.0004 0)
(0.0946694 20.0004 0)
(0.0946255 20.0004 0)
(0.0945813 20.0004 0)
(0.0945371 20.0004 0)
(0.0944926 20.0004 0)
(0.094448 20.0004 0)
(0.0944031 20.0004 0)
(0.0943582 20.0004 0)
(0.094313 20.0004 0)
(0.0942677 20.0004 0)
(0.0942222 20.0004 0)
(0.0941765 20.0004 0)
(0.0941306 20.0004 0)
(0.0940846 20.0004 0)
(0.0940384 20.0004 0)
(0.093992 20.0004 0)
(0.0939454 20.0004 0)
(0.0938987 20.0004 0)
(0.0938518 20.0004 0)
(0.0938047 20.0004 0)
(0.0937574 20.0004 0)
(0.09371 20.0004 0)
(0.0936623 20.0004 0)
(0.0936145 20.0004 0)
(0.0935666 20.0004 0)
(0.0935184 20.0004 0)
(0.0934701 20.0004 0)
(0.0934215 20.0004 0)
(0.0933728 20.0004 0)
(0.093324 20.0004 0)
(0.0932749 20.0004 0)
(0.0932257 20.0004 0)
(0.0931762 20.0004 0)
(0.0931266 20.0004 0)
(0.0930769 20.0004 0)
(0.0930269 20.0004 0)
(0.0929768 20.0004 0)
(0.0929264 20.0004 0)
(0.0928759 20.0004 0)
(0.0928252 20.0004 0)
(0.0927744 20.0004 0)
(0.0927233 20.0004 0)
(0.0926721 20.0004 0)
(0.0926207 20.0004 0)
(0.0925691 20.0004 0)
(0.0925173 20.0004 0)
(0.0924653 20.0004 0)
(0.0924132 20.0004 0)
(0.0923608 20.0004 0)
(0.0923083 20.0004 0)
(0.0922556 20.0004 0)
(0.0922027 20.0004 0)
(0.0921496 20.0004 0)
(0.0920964 20.0004 0)
(0.0920429 20.0004 0)
(0.0919893 20.0004 0)
(0.0919355 20.0004 0)
(0.0918815 20.0004 0)
(0.0918273 20.0004 0)
(0.091773 20.0004 0)
(0.0917184 20.0004 0)
(0.0916637 20.0004 0)
(0.0916087 20.0004 0)
(0.0915536 20.0004 0)
(0.0914983 20.0004 0)
(0.0914428 20.0004 0)
(0.0913871 20.0004 0)
(0.0913313 20.0004 0)
(0.0912752 20.0004 0)
(0.091219 20.0004 0)
(0.0911626 20.0004 0)
(0.091106 20.0004 0)
(0.0910491 20.0004 0)
(0.0909922 20.0004 0)
(0.090935 20.0004 0)
(0.0908776 20.0004 0)
(0.0908201 20.0004 0)
(0.0907623 20.0004 0)
(0.0907044 20.0004 0)
(0.0906463 20.0004 0)
(0.0905879 20.0004 0)
(0.0905294 20.0004 0)
(0.0904707 20.0004 0)
(0.0904119 20.0004 0)
(0.0903528 20.0004 0)
(0.0902935 20.0004 0)
(0.0902341 20.0004 0)
(0.0901744 20.0004 0)
(0.0901146 20.0004 0)
(0.0900546 20.0004 0)
(0.0899944 20.0004 0)
(0.089934 20.0004 0)
(0.0898734 20.0004 0)
(0.0898126 20.0004 0)
(0.0897516 20.0004 0)
(0.0896905 20.0004 0)
(0.0896291 20.0004 0)
(0.0895676 20.0004 0)
(0.0895058 20.0004 0)
(0.0894439 20.0004 0)
(0.0893818 20.0004 0)
(0.0893194 20.0004 0)
(0.0892569 20.0004 0)
(0.0891942 20.0004 0)
(0.0891314 20.0004 0)
(0.0890683 20.0004 0)
(0.089005 20.0004 0)
(0.0889415 20.0004 0)
(0.0888779 20.0004 0)
(0.088814 20.0004 0)
(0.08875 20.0004 0)
(0.0886857 20.0004 0)
(0.0886213 20.0004 0)
(0.0885567 20.0004 0)
(0.0884919 20.0004 0)
(0.0884269 20.0004 0)
(0.0883617 20.0004 0)
(0.0882963 20.0004 0)
(0.0882307 20.0004 0)
(0.0881649 20.0004 0)
(0.088099 20.0004 0)
(0.0880328 20.0004 0)
(0.0879665 20.0004 0)
(0.0878999 20.0004 0)
(0.0878332 20.0004 0)
(0.0877662 20.0004 0)
(0.0876991 20.0004 0)
(0.0876318 20.0004 0)
(0.0875643 20.0004 0)
(0.0874966 20.0004 0)
(0.0874287 20.0004 0)
(0.0873606 20.0004 0)
(0.0872923 20.0004 0)
(0.0872238 20.0004 0)
(0.0871551 20.0004 0)
(0.0870863 20.0004 0)
(0.0870172 20.0004 0)
(0.086948 20.0004 0)
(0.0868785 20.0004 0)
(0.0868089 20.0004 0)
(0.086739 20.0004 0)
(0.086669 20.0004 0)
(0.0865988 20.0004 0)
(0.0865284 20.0004 0)
(0.0864578 20.0004 0)
(0.086387 20.0004 0)
(0.086316 20.0004 0)
(0.0862448 20.0004 0)
(0.0861734 20.0004 0)
(0.0861018 20.0004 0)
(0.0860301 20.0004 0)
(0.0859581 20.0004 0)
(0.085886 20.0004 0)
(0.0858136 20.0004 0)
(0.0857411 20.0004 0)
(0.0856684 20.0004 0)
(0.0855954 20.0004 0)
(0.0855223 20.0004 0)
(0.085449 20.0004 0)
(0.0853755 20.0004 0)
(0.0853018 20.0004 0)
(0.0852279 20.0004 0)
(0.0851538 20.0004 0)
(0.0850796 20.0004 0)
(0.0850051 20.0004 0)
(0.0849304 20.0004 0)
(0.0848556 20.0004 0)
(0.0847805 20.0004 0)
(0.0847053 20.0004 0)
(0.0846299 20.0004 0)
(0.0845542 20.0004 0)
(0.0844784 20.0004 0)
(0.0844024 20.0004 0)
(0.0843262 20.0004 0)
(0.0842498 20.0004 0)
(0.0841732 20.0004 0)
(0.0840965 20.0004 0)
(0.0840195 20.0004 0)
(0.0839423 20.0004 0)
(0.083865 20.0004 0)
(0.0837874 20.0004 0)
(0.0837097 20.0004 0)
(0.0836318 20.0004 0)
(0.0835537 20.0004 0)
(0.0834754 20.0004 0)
(0.0833969 20.0004 0)
(0.0833182 20.0004 0)
(0.0832393 20.0004 0)
(0.0831602 20.0004 0)
(0.083081 20.0004 0)
(0.0830015 20.0004 0)
(0.0829219 20.0004 0)
(0.082842 20.0004 0)
(0.082762 20.0004 0)
(0.0826818 20.0004 0)
(0.0826014 20.0004 0)
(0.0825208 20.0004 0)
(0.08244 20.0004 0)
(0.082359 20.0004 0)
(0.0822779 20.0004 0)
(0.0821965 20.0004 0)
(0.082115 20.0004 0)
(0.0820333 20.0004 0)
(0.0819513 20.0004 0)
(0.0818692 20.0004 0)
(0.0817869 20.0004 0)
(0.0817044 20.0004 0)
(0.0816218 20.0004 0)
(0.0815389 20.0004 0)
(0.0814559 20.0004 0)
(0.0813726 20.0004 0)
(0.0812892 20.0004 0)
(0.0812056 20.0004 0)
(0.0811218 20.0004 0)
(0.0810378 20.0004 0)
(0.0809536 20.0004 0)
(0.0808693 20.0004 0)
(0.0807847 20.0004 0)
(0.0807 20.0004 0)
(0.0806151 20.0004 0)
(0.0805299 20.0004 0)
(0.0804447 20.0004 0)
(0.0803592 20.0004 0)
(0.0802735 20.0004 0)
(0.0801877 20.0004 0)
(0.0801016 20.0004 0)
(0.0800154 20.0004 0)
(0.079929 20.0004 0)
(0.0798424 20.0004 0)
(0.0797556 20.0004 0)
(0.0796687 20.0004 0)
(0.0795815 20.0004 0)
(0.0794942 20.0004 0)
(0.0794067 20.0005 0)
(0.079319 20.0005 0)
(0.0792311 20.0005 0)
(0.079143 20.0005 0)
(0.0790548 20.0005 0)
(0.0789664 20.0005 0)
(0.0788778 20.0005 0)
(0.078789 20.0005 0)
(0.0787 20.0005 0)
(0.0786108 20.0005 0)
(0.0785215 20.0005 0)
(0.078432 20.0005 0)
(0.0783423 20.0005 0)
(0.0782524 20.0005 0)
(0.0781623 20.0005 0)
(0.0780721 20.0005 0)
(0.0779817 20.0005 0)
(0.0778911 20.0005 0)
(0.0778003 20.0005 0)
(0.0777093 20.0005 0)
(0.0776182 20.0005 0)
(0.0775269 20.0005 0)
(0.0774354 20.0005 0)
(0.0773437 20.0005 0)
(0.0772518 20.0005 0)
(0.0771598 20.0005 0)
(0.0770676 20.0005 0)
(0.0769752 20.0005 0)
(0.0768826 20.0005 0)
(0.0767899 20.0005 0)
(0.076697 20.0005 0)
(0.0766039 20.0005 0)
(0.0765106 20.0005 0)
(0.0764172 20.0005 0)
(0.0763235 20.0005 0)
(0.0762297 20.0005 0)
(0.0761358 20.0005 0)
(0.0760416 20.0005 0)
(0.0759473 20.0005 0)
(0.0758528 20.0005 0)
(0.0757581 20.0005 0)
(0.0756633 20.0005 0)
(0.0755683 20.0005 0)
(0.0754731 20.0005 0)
(0.0753777 20.0005 0)
(0.0752822 20.0005 0)
(0.0751865 20.0005 0)
(0.0750906 20.0005 0)
(0.0749945 20.0005 0)
(0.0748983 20.0005 0)
(0.0748019 20.0005 0)
(0.0747053 20.0005 0)
(0.0746086 20.0005 0)
(0.0745117 20.0005 0)
(0.0744146 20.0005 0)
(0.0743174 20.0005 0)
(0.0742199 20.0005 0)
(0.0741224 20.0005 0)
(0.0740246 20.0005 0)
(0.0739267 20.0005 0)
(0.0738286 20.0005 0)
(0.0737303 20.0005 0)
(0.0736319 20.0005 0)
(0.0735333 20.0005 0)
(0.0734346 20.0005 0)
(0.0733356 20.0005 0)
(0.0732365 20.0005 0)
(0.0731373 20.0005 0)
(0.0730379 20.0005 0)
(0.0729383 20.0005 0)
(0.0728385 20.0005 0)
(0.0727386 20.0005 0)
(0.0726385 20.0005 0)
(0.0725383 20.0005 0)
(0.0724379 20.0005 0)
(0.0723373 20.0005 0)
(0.0722366 20.0005 0)
(0.0721357 20.0005 0)
(0.0720346 20.0005 0)
(0.0719334 20.0005 0)
(0.071832 20.0005 0)
(0.0717305 20.0005 0)
(0.0716288 20.0005 0)
(0.0715269 20.0005 0)
(0.0714249 20.0005 0)
(0.0713227 20.0005 0)
(0.0712203 20.0005 0)
(0.0711178 20.0005 0)
(0.0710152 20.0005 0)
(0.0709124 20.0005 0)
(0.0708094 20.0005 0)
(0.0707062 20.0005 0)
(0.070603 20.0005 0)
(0.0704995 20.0005 0)
(0.0703959 20.0005 0)
(0.0702921 20.0005 0)
(0.0701882 20.0005 0)
(0.0700842 20.0005 0)
(0.0699799 20.0005 0)
(0.0698756 20.0005 0)
(0.069771 20.0005 0)
(0.0696663 20.0005 0)
(0.0695615 20.0005 0)
(0.0694565 20.0005 0)
(0.0693514 20.0005 0)
(0.0692461 20.0005 0)
(0.0691406 20.0005 0)
(0.069035 20.0005 0)
(0.0689293 20.0005 0)
(0.0688234 20.0005 0)
(0.0687173 20.0005 0)
(0.0686111 20.0005 0)
(0.0685047 20.0005 0)
(0.0683982 20.0005 0)
(0.0682916 20.0005 0)
(0.0681848 20.0005 0)
(0.0680778 20.0005 0)
(0.0679708 20.0005 0)
(0.0678635 20.0005 0)
(0.0677561 20.0005 0)
(0.0676486 20.0005 0)
(0.0675409 20.0005 0)
(0.0674331 20.0005 0)
(0.0673251 20.0005 0)
(0.067217 20.0005 0)
(0.0671087 20.0005 0)
(0.0670003 20.0005 0)
(0.0668918 20.0005 0)
(0.0667831 20.0005 0)
(0.0666743 20.0005 0)
(0.0665653 20.0005 0)
(0.0664562 20.0005 0)
(0.0663469 20.0005 0)
(0.0662375 20.0005 0)
(0.066128 20.0005 0)
(0.0660183 20.0005 0)
(0.0659085 20.0005 0)
(0.0657985 20.0005 0)
(0.0656884 20.0005 0)
(0.0655782 20.0005 0)
(0.0654678 20.0005 0)
(0.0653573 20.0005 0)
(0.0652467 20.0005 0)
(0.0651359 20.0005 0)
(0.065025 20.0005 0)
(0.0649139 20.0005 0)
(0.0648027 20.0005 0)
(0.0646914 20.0005 0)
(0.06458 20.0005 0)
(0.0644684 20.0005 0)
(0.0643566 20.0005 0)
(0.0642448 20.0005 0)
(0.0641328 20.0005 0)
(0.0640207 20.0005 0)
(0.0639084 20.0005 0)
(0.063796 20.0005 0)
(0.0636835 20.0005 0)
(0.0635708 20.0005 0)
(0.0634581 20.0005 0)
(0.0633451 20.0005 0)
(0.0632321 20.0005 0)
(0.0631189 20.0005 0)
(0.0630056 20.0005 0)
(0.0628922 20.0005 0)
(0.0627787 20.0005 0)
(0.062665 20.0005 0)
(0.0625512 20.0005 0)
(0.0624373 20.0005 0)
(0.0623232 20.0005 0)
(0.062209 20.0005 0)
(0.0620947 20.0005 0)
(0.0619803 20.0005 0)
(0.0618657 20.0005 0)
(0.0617511 20.0005 0)
(0.0616363 20.0005 0)
(0.0615213 20.0005 0)
(0.0614063 20.0005 0)
(0.0612911 20.0005 0)
(0.0611758 20.0005 0)
(0.0610604 20.0005 0)
(0.0609449 20.0005 0)
(0.0608293 20.0005 0)
(0.0607135 20.0005 0)
(0.0605976 20.0005 0)
(0.0604816 20.0005 0)
(0.0603655 20.0005 0)
(0.0602492 20.0005 0)
(0.0601329 20.0005 0)
(0.0600164 20.0005 0)
(0.0598998 20.0005 0)
(0.0597831 20.0005 0)
(0.0596663 20.0005 0)
(0.0595494 20.0005 0)
(0.0594323 20.0005 0)
(0.0593152 20.0005 0)
(0.0591979 20.0005 0)
(0.0590805 20.0005 0)
(0.058963 20.0005 0)
(0.0588454 20.0005 0)
(0.0587277 20.0005 0)
(0.0586099 20.0005 0)
(0.0584919 20.0005 0)
(0.0583739 20.0005 0)
(0.0582557 20.0005 0)
(0.0581375 20.0005 0)
(0.0580191 20.0005 0)
(0.0579006 20.0005 0)
(0.057782 20.0005 0)
(0.0576633 20.0005 0)
(0.0575445 20.0005 0)
(0.0574256 20.0005 0)
(0.0573066 20.0005 0)
(0.0571875 20.0005 0)
(0.0570682 20.0005 0)
(0.0569489 20.0005 0)
(0.0568295 20.0005 0)
(0.05671 20.0005 0)
(0.0565903 20.0005 0)
(0.0564706 20.0005 0)
(0.0563507 20.0005 0)
(0.0562308 20.0005 0)
(0.0561108 20.0005 0)
(0.0559906 20.0005 0)
(0.0558704 20.0005 0)
(0.05575 20.0005 0)
(0.0556296 20.0005 0)
(0.0555091 20.0005 0)
(0.0553884 20.0005 0)
(0.0552677 20.0005 0)
(0.0551469 20.0005 0)
(0.055026 20.0005 0)
(0.054905 20.0005 0)
(0.0547838 20.0005 0)
(0.0546626 20.0005 0)
(0.0545413 20.0005 0)
(0.0544199 20.0005 0)
(0.0542985 20.0005 0)
(0.0541769 20.0005 0)
(0.0540552 20.0005 0)
(0.0539334 20.0005 0)
(0.0538116 20.0005 0)
(0.0536896 20.0005 0)
(0.0535676 20.0005 0)
(0.0534455 20.0005 0)
(0.0533233 20.0005 0)
(0.053201 20.0005 0)
(0.0530786 20.0005 0)
(0.0529561 20.0005 0)
(0.0528335 20.0005 0)
(0.0527109 20.0005 0)
(0.0525881 20.0005 0)
(0.0524653 20.0005 0)
(0.0523424 20.0005 0)
(0.0522194 20.0005 0)
(0.0520964 20.0005 0)
(0.0519732 20.0005 0)
(0.05185 20.0005 0)
(0.0517266 20.0005 0)
(0.0516032 20.0005 0)
(0.0514797 20.0005 0)
(0.0513562 20.0005 0)
(0.0512325 20.0005 0)
(0.0511088 20.0005 0)
(0.050985 20.0005 0)
(0.0508611 20.0005 0)
(0.0507371 20.0005 0)
(0.0506131 20.0005 0)
(0.050489 20.0005 0)
(0.0503648 20.0005 0)
(0.0502405 20.0005 0)
(0.0501161 20.0005 0)
(0.0499917 20.0005 0)
(0.0498672 20.0005 0)
(0.0497426 20.0005 0)
(0.049618 20.0005 0)
(0.0494933 20.0005 0)
(0.0493685 20.0005 0)
(0.0492436 20.0005 0)
(0.0491187 20.0005 0)
(0.0489937 20.0005 0)
(0.0488686 20.0005 0)
(0.0487434 20.0005 0)
(0.0486182 20.0005 0)
(0.0484929 20.0005 0)
(0.0483676 20.0005 0)
(0.0482421 20.0005 0)
(0.0481166 20.0005 0)
(0.0479911 20.0005 0)
(0.0478655 20.0005 0)
(0.0477398 20.0005 0)
(0.047614 20.0005 0)
(0.0474882 20.0005 0)
(0.0473623 20.0005 0)
(0.0472363 20.0005 0)
(0.0471103 20.0005 0)
(0.0469842 20.0005 0)
(0.0468581 20.0005 0)
(0.0467319 20.0005 0)
(0.0466056 20.0005 0)
(0.0464793 20.0005 0)
(0.0463529 20.0005 0)
(0.0462264 20.0005 0)
(0.0460999 20.0005 0)
(0.0459733 20.0005 0)
(0.0458467 20.0005 0)
(0.04572 20.0005 0)
(0.0455933 20.0005 0)
(0.0454665 20.0005 0)
(0.0453396 20.0005 0)
(0.0452127 20.0005 0)
(0.0450857 20.0005 0)
(0.0449587 20.0005 0)
(0.0448316 20.0005 0)
(0.0447045 20.0005 0)
(0.0445773 20.0005 0)
(0.04445 20.0005 0)
(0.0443227 20.0005 0)
(0.0441954 20.0005 0)
(0.044068 20.0005 0)
(0.0439405 20.0005 0)
(0.043813 20.0005 0)
(0.0436854 20.0005 0)
(0.0435578 20.0005 0)
(0.0434301 20.0005 0)
(0.0433024 20.0005 0)
(0.0431746 20.0005 0)
(0.0430468 20.0005 0)
(0.042919 20.0005 0)
(0.042791 20.0005 0)
(0.0426631 20.0005 0)
(0.0425351 20.0005 0)
(0.042407 20.0005 0)
(0.0422789 20.0005 0)
(0.0421507 20.0005 0)
(0.0420225 20.0005 0)
(0.0418942 20.0005 0)
(0.0417659 20.0005 0)
(0.0416376 20.0005 0)
(0.0415092 20.0005 0)
(0.0413807 20.0005 0)
(0.0412522 20.0005 0)
(0.0411237 20.0005 0)
(0.0409951 20.0005 0)
(0.0408664 20.0005 0)
(0.0407377 20.0005 0)
(0.040609 20.0005 0)
(0.0404802 20.0005 0)
(0.0403514 20.0005 0)
(0.0402225 20.0005 0)
(0.0400935 20.0005 0)
(0.0399645 20.0005 0)
(0.0398355 20.0005 0)
(0.0397064 20.0005 0)
(0.0395773 20.0005 0)
(0.039448 20.0005 0)
(0.0393188 20.0005 0)
(0.0391895 20.0005 0)
(0.0390601 20.0005 0)
(0.0389307 20.0005 0)
(0.0388012 20.0005 0)
(0.0386716 20.0005 0)
(0.038542 20.0005 0)
(0.0384123 20.0005 0)
(0.0382825 20.0005 0)
(0.0381527 20.0005 0)
(0.0380228 20.0005 0)
(0.0378928 20.0005 0)
(0.0377628 20.0005 0)
(0.0376326 20.0005 0)
(0.0375024 20.0005 0)
(0.0373721 20.0005 0)
(0.0372416 20.0005 0)
(0.0371111 20.0005 0)
(0.0369805 20.0005 0)
(0.0368497 20.0005 0)
(0.0367189 20.0005 0)
(0.0365879 20.0005 0)
(0.0364568 20.0005 0)
(0.0363255 20.0005 0)
(0.0361941 20.0005 0)
(0.0360625 20.0005 0)
(0.0359308 20.0005 0)
(0.0357989 20.0005 0)
(0.0356667 20.0005 0)
(0.0355344 20.0005 0)
(0.0354018 20.0005 0)
(0.035269 20.0005 0)
(0.0351359 20.0005 0)
(0.0350025 20.0005 0)
(0.0348688 20.0005 0)
(0.0347348 20.0005 0)
(0.0346004 20.0005 0)
(0.0344656 20.0005 0)
(0.0343303 20.0005 0)
(0.0341946 20.0005 0)
(0.0340583 20.0005 0)
(0.0339215 20.0005 0)
(0.033784 20.0005 0)
(0.0336458 20.0006 0)
(0.0335069 20.0006 0)
(0.033367 20.0006 0)
(0.0332262 20.0006 0)
(0.0330844 20.0006 0)
(0.0329413 20.0006 0)
(0.0327969 20.0006 0)
(0.032651 20.0006 0)
(0.0325034 20.0006 0)
(0.0323538 20.0006 0)
(0.032202 20.0006 0)
(0.0320476 20.0006 0)
(0.0318903 20.0006 0)
(0.0317296 20.0006 0)
(0.0315649 20.0006 0)
(0.0313954 20.0006 0)
(0.0312203 20.0006 0)
(0.0310391 20.0006 0)
(0.03085 20.0007 0)
(0.0306474 20.0007 0)
(0.0304589 20.0006 0)
(0.134332 20.016 0)
(0.146784 20.0148 0)
(0.160919 20.0247 0)
(0.169663 20.0256 0)
(0.173378 20.0217 0)
(0.174102 20.0171 0)
(0.173382 20.0133 0)
(0.172091 20.0104 0)
(0.17066 20.0083 0)
(0.169278 20.0068 0)
(0.168013 20.0056 0)
(0.16688 20.0048 0)
(0.165873 20.0041 0)
(0.164979 20.0036 0)
(0.164181 20.0032 0)
(0.163466 20.0029 0)
(0.162823 20.0026 0)
(0.16224 20.0024 0)
(0.161709 20.0022 0)
(0.161224 20.0021 0)
(0.160777 20.0019 0)
(0.160365 20.0018 0)
(0.159982 20.0017 0)
(0.159625 20.0016 0)
(0.159292 20.0016 0)
(0.158979 20.0015 0)
(0.158685 20.0014 0)
(0.158407 20.0014 0)
(0.158144 20.0013 0)
(0.157894 20.0013 0)
(0.157657 20.0012 0)
(0.15743 20.0012 0)
(0.157214 20.0012 0)
(0.157007 20.0011 0)
(0.156808 20.0011 0)
(0.156618 20.0011 0)
(0.156435 20.001 0)
(0.15626 20.001 0)
(0.156091 20.001 0)
(0.155928 20.001 0)
(0.155771 20.001 0)
(0.155619 20.0009 0)
(0.155472 20.0009 0)
(0.155329 20.0009 0)
(0.155191 20.0009 0)
(0.155057 20.0009 0)
(0.154927 20.0009 0)
(0.1548 20.0008 0)
(0.154677 20.0008 0)
(0.154557 20.0008 0)
(0.154441 20.0008 0)
(0.154327 20.0008 0)
(0.154217 20.0008 0)
(0.15411 20.0008 0)
(0.154005 20.0008 0)
(0.153902 20.0008 0)
(0.153803 20.0007 0)
(0.153705 20.0007 0)
(0.15361 20.0007 0)
(0.153516 20.0007 0)
(0.153425 20.0007 0)
(0.153336 20.0007 0)
(0.153248 20.0007 0)
(0.153162 20.0007 0)
(0.153078 20.0007 0)
(0.152994 20.0007 0)
(0.152912 20.0007 0)
(0.152832 20.0007 0)
(0.152751 20.0007 0)
(0.152672 20.0007 0)
(0.152593 20.0007 0)
(0.152514 20.0007 0)
(0.152434 20.0007 0)
(0.152353 20.0007 0)
(0.152271 20.0007 0)
(0.152186 20.0007 0)
(0.152099 20.0007 0)
(0.152009 20.0008 0)
(0.151917 20.0008 0)
(0.151823 20.0008 0)
(0.151728 20.0008 0)
(0.15163 20.0008 0)
(0.151532 20.0008 0)
(0.151432 20.0008 0)
(0.151331 20.0008 0)
(0.15123 20.0008 0)
(0.151127 20.0008 0)
(0.151024 20.0008 0)
(0.150921 20.0008 0)
(0.150816 20.0008 0)
(0.150712 20.0008 0)
(0.150607 20.0008 0)
(0.150501 20.0008 0)
(0.150396 20.0008 0)
(0.15029 20.0008 0)
(0.150184 20.0008 0)
(0.150077 20.0008 0)
(0.149971 20.0008 0)
(0.149865 20.0008 0)
(0.149759 20.0008 0)
(0.149653 20.0008 0)
(0.149547 20.0008 0)
(0.149441 20.0008 0)
(0.149335 20.0008 0)
(0.14923 20.0008 0)
(0.149125 20.0008 0)
(0.14902 20.0008 0)
(0.148915 20.0008 0)
(0.148811 20.0008 0)
(0.148706 20.0008 0)
(0.148603 20.0008 0)
(0.148499 20.0008 0)
(0.148395 20.0008 0)
(0.148291 20.0008 0)
(0.148187 20.0008 0)
(0.148082 20.0008 0)
(0.147977 20.0009 0)
(0.147871 20.0009 0)
(0.147763 20.0009 0)
(0.147656 20.0009 0)
(0.147547 20.0009 0)
(0.147438 20.0009 0)
(0.147329 20.0009 0)
(0.147219 20.0009 0)
(0.147108 20.0009 0)
(0.146998 20.0009 0)
(0.146887 20.0009 0)
(0.146775 20.0009 0)
(0.146664 20.0009 0)
(0.146553 20.0009 0)
(0.146441 20.0009 0)
(0.146329 20.0009 0)
(0.146217 20.0009 0)
(0.146105 20.0009 0)
(0.145993 20.0009 0)
(0.145881 20.0009 0)
(0.145769 20.0009 0)
(0.145658 20.0009 0)
(0.145546 20.0009 0)
(0.145434 20.0009 0)
(0.145323 20.0009 0)
(0.145211 20.0009 0)
(0.1451 20.0009 0)
(0.144989 20.0009 0)
(0.144878 20.0009 0)
(0.144767 20.0009 0)
(0.144657 20.0009 0)
(0.144546 20.0009 0)
(0.144435 20.0009 0)
(0.144325 20.0009 0)
(0.144214 20.0009 0)
(0.144103 20.0009 0)
(0.143991 20.0009 0)
(0.14388 20.0009 0)
(0.143768 20.0009 0)
(0.143657 20.0009 0)
(0.143545 20.0009 0)
(0.143433 20.0009 0)
(0.143321 20.0009 0)
(0.143209 20.0009 0)
(0.143097 20.0009 0)
(0.142984 20.0009 0)
(0.142872 20.0009 0)
(0.14276 20.0009 0)
(0.142647 20.0009 0)
(0.142535 20.0009 0)
(0.142422 20.0009 0)
(0.14231 20.0009 0)
(0.142198 20.0009 0)
(0.142085 20.0009 0)
(0.141973 20.0009 0)
(0.14186 20.0009 0)
(0.141748 20.0009 0)
(0.141635 20.0009 0)
(0.141523 20.0009 0)
(0.141411 20.0009 0)
(0.141298 20.0009 0)
(0.141186 20.0009 0)
(0.141074 20.0009 0)
(0.140962 20.0009 0)
(0.140849 20.0009 0)
(0.140737 20.0009 0)
(0.140624 20.0009 0)
(0.140511 20.0009 0)
(0.140399 20.0009 0)
(0.140286 20.0009 0)
(0.140172 20.0009 0)
(0.140059 20.0009 0)
(0.139946 20.0009 0)
(0.139833 20.0009 0)
(0.139719 20.0009 0)
(0.139606 20.0009 0)
(0.139492 20.0009 0)
(0.139379 20.0009 0)
(0.139265 20.0009 0)
(0.139152 20.0009 0)
(0.139038 20.0009 0)
(0.138925 20.0009 0)
(0.138812 20.0009 0)
(0.138699 20.0009 0)
(0.138586 20.0009 0)
(0.138473 20.0009 0)
(0.13836 20.0009 0)
(0.138247 20.0009 0)
(0.138133 20.0009 0)
(0.13802 20.0009 0)
(0.137907 20.0009 0)
(0.137794 20.0009 0)
(0.137681 20.0009 0)
(0.137568 20.0009 0)
(0.137455 20.0009 0)
(0.137342 20.0009 0)
(0.137229 20.0009 0)
(0.137115 20.0009 0)
(0.137002 20.0009 0)
(0.136888 20.0009 0)
(0.136774 20.0009 0)
(0.136661 20.0009 0)
(0.136547 20.0009 0)
(0.136433 20.0009 0)
(0.136319 20.0009 0)
(0.136205 20.0009 0)
(0.136091 20.0009 0)
(0.135976 20.0009 0)
(0.135862 20.0009 0)
(0.135748 20.0009 0)
(0.135633 20.0009 0)
(0.135519 20.0009 0)
(0.135405 20.0009 0)
(0.13529 20.0009 0)
(0.135176 20.0009 0)
(0.135061 20.0009 0)
(0.134947 20.0009 0)
(0.134832 20.0009 0)
(0.134718 20.0009 0)
(0.134603 20.0009 0)
(0.134489 20.0009 0)
(0.134374 20.0009 0)
(0.134259 20.0009 0)
(0.134145 20.0009 0)
(0.13403 20.0009 0)
(0.133915 20.0009 0)
(0.1338 20.0009 0)
(0.133686 20.0009 0)
(0.133571 20.0009 0)
(0.133456 20.0009 0)
(0.133341 20.0009 0)
(0.133226 20.0009 0)
(0.133111 20.0009 0)
(0.132996 20.0009 0)
(0.132881 20.0009 0)
(0.132766 20.0009 0)
(0.13265 20.0009 0)
(0.132535 20.0009 0)
(0.13242 20.0009 0)
(0.132305 20.0009 0)
(0.132189 20.0009 0)
(0.132074 20.0009 0)
(0.131959 20.0009 0)
(0.131843 20.0009 0)
(0.131728 20.0009 0)
(0.131612 20.0009 0)
(0.131497 20.0009 0)
(0.131381 20.0009 0)
(0.131266 20.0009 0)
(0.13115 20.0009 0)
(0.131034 20.0009 0)
(0.130919 20.0009 0)
(0.130803 20.0009 0)
(0.130687 20.0009 0)
(0.130571 20.0009 0)
(0.130455 20.0009 0)
(0.130339 20.0009 0)
(0.130223 20.0009 0)
(0.130107 20.0009 0)
(0.129991 20.0009 0)
(0.129874 20.0009 0)
(0.129758 20.0009 0)
(0.129642 20.0009 0)
(0.129526 20.0009 0)
(0.129409 20.0009 0)
(0.129293 20.0009 0)
(0.129176 20.0009 0)
(0.12906 20.0009 0)
(0.128943 20.0009 0)
(0.128826 20.0009 0)
(0.12871 20.0009 0)
(0.128593 20.0009 0)
(0.128476 20.0009 0)
(0.128359 20.0009 0)
(0.128242 20.0009 0)
(0.128125 20.0009 0)
(0.128008 20.0009 0)
(0.127891 20.0009 0)
(0.127774 20.0009 0)
(0.127657 20.0009 0)
(0.127539 20.0009 0)
(0.127422 20.0009 0)
(0.127305 20.0009 0)
(0.127187 20.0009 0)
(0.12707 20.0009 0)
(0.126952 20.0009 0)
(0.126835 20.0009 0)
(0.126717 20.0009 0)
(0.126599 20.0009 0)
(0.126481 20.0009 0)
(0.126363 20.0009 0)
(0.126245 20.0009 0)
(0.126127 20.0009 0)
(0.126009 20.0009 0)
(0.125891 20.0009 0)
(0.125773 20.0009 0)
(0.125655 20.0009 0)
(0.125537 20.0009 0)
(0.125418 20.0009 0)
(0.1253 20.0009 0)
(0.125181 20.0009 0)
(0.125063 20.0009 0)
(0.124944 20.0009 0)
(0.124826 20.0009 0)
(0.124707 20.001 0)
(0.124588 20.001 0)
(0.124469 20.001 0)
(0.12435 20.001 0)
(0.124231 20.001 0)
(0.124112 20.001 0)
(0.123993 20.001 0)
(0.123874 20.001 0)
(0.123755 20.001 0)
(0.123636 20.001 0)
(0.123516 20.001 0)
(0.123397 20.001 0)
(0.123277 20.001 0)
(0.123158 20.001 0)
(0.123038 20.001 0)
(0.122919 20.001 0)
(0.122799 20.001 0)
(0.122679 20.001 0)
(0.122559 20.001 0)
(0.122439 20.001 0)
(0.122319 20.001 0)
(0.122199 20.001 0)
(0.122079 20.001 0)
(0.121959 20.001 0)
(0.121839 20.001 0)
(0.121718 20.001 0)
(0.121598 20.001 0)
(0.121478 20.001 0)
(0.121357 20.001 0)
(0.121237 20.001 0)
(0.121116 20.001 0)
(0.120995 20.001 0)
(0.120874 20.001 0)
(0.120754 20.001 0)
(0.120633 20.001 0)
(0.120512 20.001 0)