/*--------------------------------*- C++ -*----------------------------------*\
| =========                 |                                                 |
| \\      /  F ield         | OpenFOAM: The Open Source CFD Toolbox           |
|  \\    /   O peration     | Version:  2512                                  |
|   \\  /    A nd           | Website:  www.openfoam.com                      |
|    \\/     M anipulation  |                                                 |
\*---------------------------------------------------------------------------*/
FoamFile
{
    version     2.0;
    format      ascii;
    arch        "LSB;label=32;scalar=64";
    class       volScalarField;
    location    "0.001";
    object      k;
}
// * * * * * * * * * * * * * * * * * * * * * * * * * * * * * * * * * * * * * //

dimensions      [0 2 -2 0 0 0 0];

internalField   nonuniform List<scalar> 
100000
(
0.113588
0.0225042
0.00976841
0.00594318
0.00442146
0.00369832
0.00330554
0.00306996
0.00291641
0.00280909
0.00272987
0.00266896
0.00262069
0.00258154
0.00254923
0.00252219
0.00249932
0.00247981
0.00246305
0.00244857
0.00243601
0.00242507
0.00241553
0.00240719
0.0023999
0.00239352
0.00238796
0.00238311
0.00237889
0.00237524
0.0023721
0.00236942
0.00236717
0.0023653
0.00236379
0.0023626
0.00236172
0.00236111
0.00236077
0.00236066
0.00236077
0.00236109
0.00236159
0.00236226
0.0023631
0.00236408
0.00236521
0.00236647
0.00236786
0.00236936
0.00237097
0.00237269
0.00237451
0.00237642
0.00237843
0.00238051
0.00238268
0.00238493
0.00238726
0.00238966
0.00239212
0.00239466
0.00239725
0.0023999
0.00240261
0.00240537
0.00240817
0.00241102
0.00241389
0.00241679
0.00241969
0.00242259
0.00242544
0.00242823
0.00243093
0.00243353
0.00243602
0.00243841
0.00244071
0.00244294
0.0024451
0.00244722
0.00244929
0.00245132
0.00245333
0.0024553
0.00245725
0.00245917
0.00246107
0.00246296
0.00246482
0.00246668
0.00246852
0.00247035
0.00247217
0.00247398
0.00247579
0.00247759
0.00247938
0.00248118
0.00248298
0.00248477
0.00248657
0.00248837
0.00249018
0.00249199
0.00249381
0.00249563
0.00249746
0.0024993
0.00250113
0.00250296
0.00250478
0.00250658
0.00250836
0.0025101
0.00251181
0.00251348
0.00251512
0.00251673
0.00251832
0.00251988
0.00252142
0.00252295
0.00252446
0.00252595
0.00252743
0.0025289
0.00253036
0.0025318
0.00253324
0.00253466
0.00253608
0.00253749
0.00253889
0.00254029
0.00254168
0.00254307
0.00254445
0.00254583
0.0025472
0.00254857
0.00254994
0.0025513
0.00255265
0.002554
0.00255534
0.00255668
0.002558
0.00255932
0.00256062
0.0025619
0.00256317
0.00256442
0.00256566
0.00256689
0.0025681
0.0025693
0.00257049
0.00257167
0.00257284
0.00257399
0.00257513
0.00257627
0.00257739
0.0025785
0.0025796
0.0025807
0.00258178
0.00258285
0.00258392
0.00258497
0.00258602
0.00258705
0.00258808
0.0025891
0.00259011
0.00259111
0.0025921
0.00259308
0.00259405
0.002595
0.00259594
0.00259686
0.00259777
0.00259866
0.00259954
0.0026004
0.00260125
0.00260208
0.00260291
0.00260372
0.00260451
0.0026053
0.00260608
0.00260684
0.0026076
0.00260835
0.00260908
0.00260981
0.00261052
0.00261123
0.00261192
0.00261261
0.00261328
0.00261394
0.00261458
0.00261522
0.00261584
0.00261645
0.00261704
0.00261762
0.00261819
0.00261874
0.00261927
0.00261979
0.0026203
0.00262078
0.00262126
0.00262172
0.00262216
0.00262259
0.00262301
0.00262341
0.0026238
0.00262417
0.00262453
0.00262487
0.00262521
0.00262552
0.00262583
0.00262612
0.00262639
0.00262665
0.0026269
0.00262714
0.00262736
0.00262756
0.00262775
0.00262793
0.00262809
0.00262824
0.00262838
0.00262849
0.0026286
0.00262869
0.00262876
0.00262882
0.00262887
0.0026289
0.00262891
0.00262891
0.0026289
0.00262887
0.00262883
0.00262877
0.0026287
0.00262861
0.00262851
0.00262839
0.00262826
0.00262812
0.00262795
0.00262777
0.00262758
0.00262737
0.00262715
0.00262691
0.00262666
0.00262639
0.0026261
0.0026258
0.00262548
0.00262515
0.0026248
0.00262444
0.00262406
0.00262367
0.00262326
0.00262283
0.00262239
0.00262194
0.00262147
0.00262098
0.00262048
0.00261996
0.00261943
0.00261888
0.00261831
0.00261773
0.00261713
0.00261652
0.00261589
0.00261525
0.00261459
0.00261392
0.00261322
0.00261252
0.0026118
0.00261106
0.0026103
0.00260954
0.00260875
0.00260795
0.00260713
0.0026063
0.00260545
0.00260459
0.00260371
0.00260282
0.00260191
0.00260098
0.00260004
0.00259908
0.00259811
0.00259712
0.00259612
0.0025951
0.00259406
0.00259301
0.00259195
0.00259087
0.00258977
0.00258866
0.00258753
0.00258639
0.00258523
0.00258406
0.00258287
0.00258167
0.00258045
0.00257921
0.00257796
0.0025767
0.00257542
0.00257412
0.00257281
0.00257149
0.00257015
0.00256879
0.00256742
0.00256604
0.00256464
0.00256322
0.00256179
0.00256035
0.00255889
0.00255742
0.00255593
0.00255443
0.00255291
0.00255138
0.00254983
0.00254827
0.00254669
0.0025451
0.0025435
0.00254188
0.00254025
0.0025386
0.00253694
0.00253526
0.00253357
0.00253187
0.00253015
0.00252842
0.00252668
0.00252492
0.00252315
0.00252136
0.00251956
0.00251775
0.00251592
0.00251408
0.00251223
0.00251036
0.00250848
0.00250658
0.00250468
0.00250276
0.00250082
0.00249888
0.00249692
0.00249495
0.00249296
0.00249096
0.00248895
0.00248693
0.00248489
0.00248285
0.00248079
0.00247871
0.00247663
0.00247453
0.00247242
0.0024703
0.00246816
0.00246602
0.00246386
0.00246169
0.00245951
0.00245731
0.00245511
0.00245289
0.00245066
0.00244843
0.00244618
0.00244391
0.00244164
0.00243936
0.00243706
0.00243475
0.00243244
0.00243011
0.00242777
0.00242542
0.00242306
0.00242069
0.00241831
0.00241592
0.00241352
0.00241111
0.00240868
0.00240625
0.00240381
0.00240136
0.0023989
0.00239643
0.00239395
0.00239146
0.00238896
0.00238645
0.00238393
0.0023814
0.00237887
0.00237632
0.00237377
0.0023712
0.00236863
0.00236605
0.00236346
0.00236086
0.00235826
0.00235564
0.00235302
0.00235039
0.00234775
0.0023451
0.00234245
0.00233979
0.00233712
0.00233444
0.00233175
0.00232906
0.00232636
0.00232365
0.00232094
0.00231822
0.00231549
0.00231276
0.00231001
0.00230727
0.00230451
0.00230175
0.00229898
0.00229621
0.00229343
0.00229064
0.00228785
0.00228505
0.00228225
0.00227944
0.00227662
0.0022738
0.00227098
0.00226815
0.00226531
0.00226247
0.00225962
0.00225677
0.00225392
0.00225105
0.00224819
0.00224532
0.00224244
0.00223957
0.00223668
0.0022338
0.0022309
0.00222801
0.00222511
0.00222221
0.0022193
0.00221639
0.00221348
0.00221056
0.00220764
0.00220472
0.00220179
0.00219887
0.00219593
0.002193
0.00219006
0.00218712
0.00218418
0.00218124
0.00217829
0.00217534
0.00217239
0.00216944
0.00216649
0.00216353
0.00216057
0.00215761
0.00215465
0.00215169
0.00214873
0.00214576
0.0021428
0.00213983
0.00213686
0.0021339
0.00213093
0.00212796
0.00212499
0.00212202
0.00211905
0.00211608
0.00211311
0.00211014
0.00210717
0.0021042
0.00210123
0.00209826
0.00209529
0.00209232
0.00208936
0.00208639
0.00208343
0.00208046
0.0020775
0.00207454
0.00207157
0.00206862
0.00206566
0.0020627
0.00205975
0.00205679
0.00205384
0.00205089
0.00204795
0.002045
0.00204206
0.00203912
0.00203618
0.00203325
0.00203031
0.00202738
0.00202446
0.00202153
0.00201861
0.00201569
0.00201278
0.00200987
0.00200696
0.00200405
0.00200115
0.00199825
0.00199536
0.00199247
0.00198958
0.0019867
0.00198382
0.00198095
0.00197808
0.00197521
0.00197235
0.0019695
0.00196664
0.0019638
0.00196095
0.00195811
0.00195528
0.00195245
0.00194963
0.00194681
0.001944
0.00194119
0.00193839
0.00193559
0.0019328
0.00193002
0.00192724
0.00192446
0.0019217
0.00191893
0.00191618
0.00191343
0.00191068
0.00190795
0.00190522
0.00190249
0.00189977
0.00189706
0.00189436
0.00189166
0.00188897
0.00188628
0.0018836
0.00188093
0.00187827
0.00187561
0.00187296
0.00187032
0.00186769
0.00186506
0.00186244
0.00185983
0.00185722
0.00185463
0.00185204
0.00184946
0.00184688
0.00184432
0.00184176
0.00183921
0.00183667
0.00183414
0.00183161
0.0018291
0.00182659
0.00182409
0.0018216
0.00181912
0.00181664
0.00181418
0.00181172
0.00180927
0.00180684
0.00180441
0.00180199
0.00179957
0.00179717
0.00179478
0.00179239
0.00179002
0.00178765
0.0017853
0.00178295
0.00178062
0.00177829
0.00177597
0.00177366
0.00177136
0.00176907
0.00176679
0.00176452
0.00176227
0.00176002
0.00175778
0.00175555
0.00175333
0.00175112
0.00174892
0.00174673
0.00174455
0.00174238
0.00174022
0.00173808
0.00173594
0.00173381
0.0017317
0.00172959
0.00172749
0.00172541
0.00172333
0.00172127
0.00171922
0.00171718
0.00171515
0.00171312
0.00171112
0.00170912
0.00170713
0.00170515
0.00170319
0.00170123
0.00169929
0.00169735
0.00169543
0.00169352
0.00169162
0.00168974
0.00168786
0.00168599
0.00168414
0.0016823
0.00168046
0.00167864
0.00167683
0.00167504
0.00167325
0.00167148
0.00166971
0.00166796
0.00166622
0.00166449
0.00166278
0.00166107
0.00165938
0.0016577
0.00165602
0.00165437
0.00165272
0.00165108
0.00164946
0.00164785
0.00164625
0.00164466
0.00164308
0.00164152
0.00163996
0.00163842
0.00163689
0.00163537
0.00163387
0.00163237
0.00163089
0.00162942
0.00162796
0.00162652
0.00162508
0.00162366
0.00162225
0.00162085
0.00161946
0.00161809
0.00161673
0.00161538
0.00161404
0.00161271
0.00161139
0.00161009
0.0016088
0.00160752
0.00160625
0.001605
0.00160376
0.00160252
0.0016013
0.0016001
0.0015989
0.00159772
0.00159655
0.00159539
0.00159424
0.0015931
0.00159198
0.00159087
0.00158977
0.00158868
0.0015876
0.00158654
0.00158549
0.00158445
0.00158342
0.0015824
0.0015814
0.00158041
0.00157943
0.00157846
0.0015775
0.00157656
0.00157562
0.0015747
0.00157379
0.00157289
0.00157201
0.00157113
0.00157027
0.00156942
0.00156858
0.00156775
0.00156694
0.00156613
0.00156534
0.00156456
0.00156379
0.00156303
0.00156229
0.00156155
0.00156083
0.00156012
0.00155942
0.00155873
0.00155805
0.00155739
0.00155673
0.00155609
0.00155546
0.00155484
0.00155423
0.00155363
0.00155305
0.00155247
0.00155191
0.00155136
0.00155082
0.00155029
0.00154977
0.00154926
0.00154877
0.00154828
0.00154781
0.00154734
0.00154689
0.00154645
0.00154602
0.0015456
0.00154519
0.00154479
0.00154441
0.00154403
0.00154367
0.00154331
0.00154297
0.00154263
0.00154231
0.001542
0.0015417
0.00154141
0.00154113
0.00154086
0.0015406
0.00154035
0.00154011
0.00153988
0.00153966
0.00153946
0.00153926
0.00153907
0.00153889
0.00153873
0.00153857
0.00153842
0.00153829
0.00153816
0.00153804
0.00153793
0.00153784
0.00153775
0.00153767
0.0015376
0.00153755
0.0015375
0.00153746
0.00153743
0.00153741
0.0015374
0.0015374
0.00153741
0.00153742
0.00153745
0.00153749
0.00153753
0.00153759
0.00153765
0.00153773
0.00153781
0.0015379
0.001538
0.00153811
0.00153823
0.00153835
0.00153849
0.00153864
0.00153879
0.00153895
0.00153912
0.0015393
0.00153949
0.00153968
0.00153989
0.0015401
0.00154032
0.00154055
0.00154079
0.00154104
0.00154129
0.00154155
0.00154182
0.0015421
0.00154239
0.00154268
0.00154298
0.00154329
0.00154361
0.00154393
0.00154427
0.00154461
0.00154495
0.00154531
0.00154567
0.00154604
0.00154642
0.0015468
0.00154719
0.00154759
0.00154799
0.0015484
0.00154882
0.00154925
0.00154968
0.00155012
0.00155056
0.00155102
0.00155147
0.00155194
0.00155241
0.00155289
0.00155337
0.00155386
0.00155435
0.00155485
0.00155536
0.00155587
0.00155639
0.00155691
0.00155744
0.00155798
0.00155851
0.00155906
0.00155961
0.00156016
0.00156072
0.00156128
0.00156185
0.00156242
0.001563
0.00156357
0.00156416
0.00156474
0.00156533
0.00156593
0.00156652
0.00156712
0.00156772
0.00156832
0.00156893
0.00156954
0.00157014
0.00157075
0.00157136
0.00157197
0.00157258
0.00157319
0.0015738
0.00157441
0.00157502
0.00157562
0.00157622
0.00157682
0.00157741
0.001578
0.00157858
0.00157915
0.00157972
0.00158027
0.00158082
0.00158135
0.00158187
0.00158238
0.00158287
0.00158334
0.00158379
0.00158422
0.00158462
0.001585
0.00158534
0.00158564
0.00158591
0.00158613
0.0015863
0.00158641
0.00158646
0.00158644
0.00158634
0.00158615
0.00158585
0.00158544
0.00158489
0.00158419
0.00158331
0.00158221
0.00158085
0.00157913
0.00157702
0.00157427
0.0015696
0.00156236
0.301821
0.0641678
0.0243552
0.0164473
0.0145875
0.0140899
0.0139402
0.0138872
0.0138634
0.0138497
0.0138404
0.0138334
0.0138279
0.0138234
0.0138198
0.0138168
0.0138143
0.0138123
0.0138105
0.0138091
0.0138079
0.0138069
0.0138061
0.0138054
0.0138049
0.0138045
0.0138042
0.0138041
0.013804
0.013804
0.013804
0.0138042
0.0138044
0.0138046
0.0138049
0.0138052
0.0138056
0.0138061
0.0138065
0.013807
0.0138076
0.0138082
0.0138088
0.0138094
0.0138101
0.0138107
0.0138114
0.0138122
0.0138129
0.0138137
0.0138145
0.0138153
0.0138161
0.0138169
0.0138178
0.0138186
0.0138195
0.0138204
0.0138213
0.0138223
0.0138232
0.0138242
0.0138251
0.0138261
0.0138271
0.0138281
0.0138291
0.0138301
0.0138311
0.0138321
0.0138331
0.0138341
0.0138351
0.0138361
0.013837
0.013838
0.0138389
0.0138398
0.0138407
0.0138416
0.0138425
0.0138434
0.0138443
0.0138452
0.013846
0.0138469
0.0138478
0.0138486
0.0138495
0.0138504
0.0138512
0.0138521
0.013853
0.0138538
0.0138547
0.0138556
0.0138565
0.0138573
0.0138582
0.0138591
0.01386
0.0138608
0.0138617
0.0138626
0.0138635
0.0138644
0.0138653
0.0138662
0.0138671
0.013868
0.0138689
0.0138698
0.0138707
0.0138716
0.0138725
0.0138734
0.0138743
0.0138751
0.013876
0.0138769
0.0138778
0.0138786
0.0138795
0.0138804
0.0138812
0.0138821
0.013883
0.0138838
0.0138847
0.0138856
0.0138864
0.0138873
0.0138882
0.0138891
0.0138899
0.0138908
0.0138917
0.0138925
0.0138934
0.0138943
0.0138952
0.0138961
0.0138969
0.0138978
0.0138987
0.0138996
0.0139005
0.0139014
0.0139023
0.0139032
0.013904
0.0139049
0.0139058
0.0139067
0.0139076
0.0139085
0.0139094
0.0139102
0.0139111
0.013912
0.0139129
0.0139138
0.0139147
0.0139155
0.0139164
0.0139173
0.0139182
0.0139191
0.01392
0.0139209
0.0139217
0.0139226
0.0139235
0.0139244
0.0139253
0.0139262
0.0139271
0.0139279
0.0139288
0.0139297
0.0139306
0.0139315
0.0139324
0.0139332
0.0139341
0.013935
0.0139359
0.0139368
0.0139376
0.0139385
0.0139394
0.0139403
0.0139411
0.013942
0.0139429
0.0139437
0.0139446
0.0139455
0.0139464
0.0139472
0.0139481
0.013949
0.0139498
0.0139507
0.0139516
0.0139525
0.0139533
0.0139542
0.0139551
0.0139559
0.0139568
0.0139577
0.0139585
0.0139594
0.0139602
0.0139611
0.0139619
0.0139628
0.0139637
0.0139645
0.0139654
0.0139662
0.013967
0.0139679
0.0139687
0.0139696
0.0139704
0.0139713
0.0139721
0.0139729
0.0139738
0.0139746
0.0139754
0.0139763
0.0139771
0.0139779
0.0139788
0.0139796
0.0139804
0.0139812
0.0139821
0.0139829
0.0139837
0.0139845
0.0139853
0.0139861
0.013987
0.0139878
0.0139886
0.0139894
0.0139902
0.013991
0.0139918
0.0139926
0.0139934
0.0139942
0.013995
0.0139958
0.0139966
0.0139974
0.0139982
0.013999
0.0139997
0.0140005
0.0140013
0.0140021
0.0140028
0.0140036
0.0140044
0.0140052
0.0140059
0.0140067
0.0140074
0.0140082
0.014009
0.0140097
0.0140105
0.0140112
0.014012
0.0140127
0.0140135
0.0140142
0.0140149
0.0140157
0.0140164
0.0140171
0.0140179
0.0140186
0.0140193
0.01402
0.0140208
0.0140215
0.0140222
0.0140229
0.0140236
0.0140243
0.014025
0.0140257
0.0140264
0.0140271
0.0140278
0.0140285
0.0140292
0.0140298
0.0140305
0.0140312
0.0140319
0.0140326
0.0140332
0.0140339
0.0140346
0.0140352
0.0140359
0.0140365
0.0140372
0.0140378
0.0140385
0.0140391
0.0140398
0.0140404
0.014041
0.0140417
0.0140423
0.0140429
0.0140435
0.0140442
0.0140448
0.0140454
0.014046
0.0140466
0.0140472
0.0140478
0.0140484
0.014049
0.0140496
0.0140502
0.0140507
0.0140513
0.0140519
0.0140525
0.014053
0.0140536
0.0140542
0.0140547
0.0140553
0.0140558
0.0140564
0.0140569
0.0140574
0.014058
0.0140585
0.014059
0.0140596
0.0140601
0.0140606
0.0140611
0.0140616
0.0140621
0.0140626
0.0140631
0.0140636
0.0140641
0.0140646
0.0140651
0.0140656
0.014066
0.0140665
0.014067
0.0140674
0.0140679
0.0140684
0.0140688
0.0140693
0.0140697
0.0140701
0.0140706
0.014071
0.0140714
0.0140719
0.0140723
0.0140727
0.0140731
0.0140735
0.0140739
0.0140743
0.0140747
0.0140751
0.0140755
0.0140759
0.0140762
0.0140766
0.014077
0.0140773
0.0140777
0.0140781
0.0140784
0.0140788
0.0140791
0.0140794
0.0140798
0.0140801
0.0140804
0.0140807
0.0140811
0.0140814
0.0140817
0.014082
0.0140823
0.0140826
0.0140829
0.0140832
0.0140834
0.0140837
0.014084
0.0140843
0.0140845
0.0140848
0.0140851
0.0140853
0.0140855
0.0140858
0.014086
0.0140863
0.0140865
0.0140867
0.0140869
0.0140871
0.0140873
0.0140876
0.0140877
0.0140879
0.0140881
0.0140883
0.0140885
0.0140887
0.0140888
0.014089
0.0140892
0.0140893
0.0140895
0.0140896
0.0140898
0.0140899
0.01409
0.0140902
0.0140903
0.0140904
0.0140905
0.0140906
0.0140907
0.0140908
0.0140909
0.014091
0.0140911
0.0140911
0.0140912
0.0140913
0.0140914
0.0140914
0.0140915
0.0140915
0.0140916
0.0140916
0.0140916
0.0140916
0.0140917
0.0140917
0.0140917
0.0140917
0.0140917
0.0140917
0.0140917
0.0140917
0.0140917
0.0140916
0.0140916
0.0140916
0.0140915
0.0140915
0.0140914
0.0140914
0.0140913
0.0140913
0.0140912
0.0140911
0.014091
0.0140909
0.0140909
0.0140908
0.0140907
0.0140905
0.0140904
0.0140903
0.0140902
0.0140901
0.0140899
0.0140898
0.0140896
0.0140895
0.0140893
0.0140892
0.014089
0.0140889
0.0140887
0.0140885
0.0140883
0.0140881
0.0140879
0.0140877
0.0140875
0.0140873
0.0140871
0.0140869
0.0140866
0.0140864
0.0140862
0.0140859
0.0140857
0.0140854
0.0140852
0.0140849
0.0140846
0.0140844
0.0140841
0.0140838
0.0140835
0.0140832
0.0140829
0.0140826
0.0140823
0.014082
0.0140816
0.0140813
0.014081
0.0140806
0.0140803
0.0140799
0.0140796
0.0140792
0.0140789
0.0140785
0.0140781
0.0140777
0.0140773
0.014077
0.0140766
0.0140762
0.0140757
0.0140753
0.0140749
0.0140745
0.0140741
0.0140736
0.0140732
0.0140727
0.0140723
0.0140718
0.0140714
0.0140709
0.0140704
0.01407
0.0140695
0.014069
0.0140685
0.014068
0.0140675
0.014067
0.0140665
0.014066
0.0140655
0.0140649
0.0140644
0.0140639
0.0140633
0.0140628
0.0140622
0.0140617
0.0140611
0.0140605
0.01406
0.0140594
0.0140588
0.0140582
0.0140576
0.014057
0.0140564
0.0140558
0.0140552
0.0140546
0.0140539
0.0140533
0.0140527
0.014052
0.0140514
0.0140507
0.0140501
0.0140494
0.0140488
0.0140481
0.0140474
0.0140467
0.0140461
0.0140454
0.0140447
0.014044
0.0140433
0.0140426
0.0140419
0.0140411
0.0140404
0.0140397
0.014039
0.0140382
0.0140375
0.0140367
0.014036
0.0140352
0.0140345
0.0140337
0.0140329
0.0140322
0.0140314
0.0140306
0.0140298
0.014029
0.0140282
0.0140274
0.0140266
0.0140258
0.014025
0.0140242
0.0140233
0.0140225
0.0140217
0.0140208
0.01402
0.0140191
0.0140183
0.0140174
0.0140166
0.0140157
0.0140148
0.014014
0.0140131
0.0140122
0.0140113
0.0140104
0.0140095
0.0140086
0.0140077
0.0140068
0.0140059
0.014005
0.0140041
0.0140032
0.0140022
0.0140013
0.0140004
0.0139994
0.0139985
0.0139975
0.0139966
0.0139956
0.0139947
0.0139937
0.0139927
0.0139918
0.0139908
0.0139898
0.0139888
0.0139878
0.0139868
0.0139859
0.0139849
0.0139839
0.0139828
0.0139818
0.0139808
0.0139798
0.0139788
0.0139778
0.0139767
0.0139757
0.0139747
0.0139736
0.0139726
0.0139716
0.0139705
0.0139695
0.0139684
0.0139673
0.0139663
0.0139652
0.0139641
0.0139631
0.013962
0.0139609
0.0139598
0.0139588
0.0139577
0.0139566
0.0139555
0.0139544
0.0139533
0.0139522
0.0139511
0.01395
0.0139489
0.0139478
0.0139466
0.0139455
0.0139444
0.0139433
0.0139421
0.013941
0.0139399
0.0139387
0.0139376
0.0139365
0.0139353
0.0139342
0.013933
0.0139319
0.0139307
0.0139296
0.0139284
0.0139272
0.0139261
0.0139249
0.0139238
0.0139226
0.0139214
0.0139202
0.0139191
0.0139179
0.0139167
0.0139155
0.0139143
0.0139131
0.013912
0.0139108
0.0139096
0.0139084
0.0139072
0.013906
0.0139048
0.0139036
0.0139024
0.0139012
0.0139
0.0138988
0.0138975
0.0138963
0.0138951
0.0138939
0.0138927
0.0138915
0.0138902
0.013889
0.0138878
0.0138866
0.0138853
0.0138841
0.0138829
0.0138817
0.0138804
0.0138792
0.013878
0.0138767
0.0138755
0.0138743
0.013873
0.0138718
0.0138705
0.0138693
0.0138681
0.0138668
0.0138656
0.0138643
0.0138631
0.0138618
0.0138606
0.0138594
0.0138581
0.0138569
0.0138556
0.0138544
0.0138531
0.0138519
0.0138506
0.0138494
0.0138481
0.0138469
0.0138456
0.0138444
0.0138431
0.0138419
0.0138406
0.0138393
0.0138381
0.0138368
0.0138356
0.0138343
0.0138331
0.0138318
0.0138306
0.0138293
0.0138281
0.0138268
0.0138256
0.0138243
0.0138231
0.0138218
0.0138206
0.0138193
0.0138181
0.0138168
0.0138156
0.0138143
0.0138131
0.0138118
0.0138106
0.0138093
0.0138081
0.0138068
0.0138056
0.0138043
0.0138031
0.0138019
0.0138006
0.0137994
0.0137981
0.0137969
0.0137957
0.0137944
0.0137932
0.0137919
0.0137907
0.0137895
0.0137883
0.013787
0.0137858
0.0137846
0.0137833
0.0137821
0.0137809
0.0137797
0.0137784
0.0137772
0.013776
0.0137748
0.0137736
0.0137724
0.0137712
0.0137699
0.0137687
0.0137675
0.0137663
0.0137651
0.0137639
0.0137627
0.0137615
0.0137603
0.0137591
0.0137579
0.0137568
0.0137556
0.0137544
0.0137532
0.013752
0.0137508
0.0137497
0.0137485
0.0137473
0.0137461
0.013745
0.0137438
0.0137426
0.0137415
0.0137403
0.0137392
0.013738
0.0137369
0.0137357
0.0137346
0.0137334
0.0137323
0.0137311
0.01373
0.0137289
0.0137277
0.0137266
0.0137255
0.0137244
0.0137232
0.0137221
0.013721
0.0137199
0.0137188
0.0137177
0.0137166
0.0137155
0.0137144
0.0137133
0.0137122
0.0137111
0.01371
0.0137089
0.0137078
0.0137068
0.0137057
0.0137046
0.0137036
0.0137025
0.0137014
0.0137004
0.0136993
0.0136983
0.0136972
0.0136962
0.0136951
0.0136941
0.0136931
0.013692
0.013691
0.01369
0.013689
0.013688
0.013687
0.0136859
0.0136849
0.0136839
0.0136829
0.0136819
0.013681
0.01368
0.013679
0.013678
0.013677
0.0136761
0.0136751
0.0136741
0.0136732
0.0136722
0.0136712
0.0136703
0.0136693
0.0136684
0.0136674
0.0136665
0.0136656
0.0136646
0.0136637
0.0136628
0.0136619
0.0136609
0.01366
0.0136591
0.0136582
0.0136573
0.0136564
0.0136555
0.0136546
0.0136537
0.0136528
0.0136519
0.0136511
0.0136502
0.0136493
0.0136484
0.0136475
0.0136467
0.0136458
0.0136449
0.0136441
0.0136432
0.0136423
0.0136415
0.0136406
0.0136397
0.0136389
0.013638
0.0136371
0.0136363
0.0136354
0.0136345
0.0136336
0.0136327
0.0136318
0.0136309
0.01363
0.013629
0.0136281
0.013627
0.0136259
0.0136246
0.0136229
0.0136207
0.0136177
0.0136145
0.544384
0.214122
0.120597
0.0946801
0.0875103
0.0855747
0.0850866
0.0849833
0.0849738
0.084983
0.0849933
0.0850017
0.0850081
0.0850129
0.0850167
0.0850196
0.0850219
0.0850237
0.0850252
0.0850265
0.0850275
0.0850283
0.0850291
0.0850297
0.0850302
0.0850307
0.0850311
0.0850314
0.0850317
0.085032
0.0850323
0.0850325
0.0850328
0.085033
0.0850332
0.0850334
0.0850336
0.0850338
0.0850339
0.0850341
0.0850343
0.0850345
0.0850347
0.0850348
0.085035
0.0850352
0.0850354
0.0850355
0.0850357
0.0850359
0.0850361
0.0850362
0.0850364
0.0850366
0.0850368
0.085037
0.0850372
0.0850374
0.0850376
0.0850378
0.085038
0.0850383
0.0850385
0.0850387
0.0850389
0.0850391
0.0850393
0.0850395
0.0850397
0.0850399
0.0850401
0.0850402
0.0850403
0.0850403
0.0850403
0.0850403
0.0850403
0.0850403
0.0850403
0.0850403
0.0850404
0.0850404
0.0850405
0.0850406
0.0850406
0.0850407
0.0850408
0.0850409
0.085041
0.0850411
0.0850413
0.0850414
0.0850415
0.0850416
0.0850418
0.0850419
0.0850421
0.0850422
0.0850424
0.0850425
0.0850427
0.0850429
0.0850431
0.0850432
0.0850434
0.0850436
0.0850438
0.085044
0.0850442
0.0850444
0.0850446
0.0850447
0.0850449
0.0850451
0.0850452
0.0850454
0.0850455
0.0850457
0.0850458
0.085046
0.0850461
0.0850463
0.0850464
0.0850466
0.0850468
0.085047
0.0850471
0.0850473
0.0850475
0.0850477
0.0850479
0.0850481
0.0850483
0.0850485
0.0850487
0.0850489
0.0850491
0.0850493
0.0850495
0.0850497
0.0850499
0.0850501
0.0850504
0.0850506
0.0850508
0.0850511
0.0850513
0.0850515
0.0850518
0.085052
0.0850523
0.0850525
0.0850527
0.085053
0.0850532
0.0850535
0.0850537
0.085054
0.0850542
0.0850545
0.0850547
0.085055
0.0850552
0.0850555
0.0850557
0.085056
0.0850563
0.0850565
0.0850568
0.0850571
0.0850573
0.0850576
0.0850579
0.0850582
0.0850584
0.0850587
0.085059
0.0850593
0.0850595
0.0850598
0.0850601
0.0850604
0.0850606
0.0850609
0.0850612
0.0850614
0.0850617
0.085062
0.0850623
0.0850626
0.0850628
0.0850631
0.0850634
0.0850637
0.085064
0.0850642
0.0850645
0.0850648
0.0850651
0.0850654
0.0850657
0.085066
0.0850663
0.0850666
0.0850668
0.0850671
0.0850674
0.0850677
0.085068
0.0850683
0.0850686
0.0850689
0.0850692
0.0850694
0.0850697
0.08507
0.0850703
0.0850706
0.0850709
0.0850712
0.0850715
0.0850717
0.085072
0.0850723
0.0850726
0.0850729
0.0850732
0.0850735
0.0850737
0.085074
0.0850743
0.0850746
0.0850749
0.0850752
0.0850755
0.0850757
0.085076
0.0850763
0.0850766
0.0850769
0.0850771
0.0850774
0.0850777
0.085078
0.0850783
0.0850786
0.0850789
0.0850792
0.0850794
0.0850797
0.08508
0.0850803
0.0850806
0.0850809
0.0850811
0.0850814
0.0850817
0.085082
0.0850823
0.0850825
0.0850828
0.0850831
0.0850834
0.0850837
0.0850839
0.0850842
0.0850845
0.0850847
0.085085
0.0850853
0.0850856
0.0850858
0.0850861
0.0850864
0.0850866
0.0850869
0.0850872
0.0850874
0.0850877
0.085088
0.0850882
0.0850885
0.0850887
0.085089
0.0850893
0.0850895
0.0850898
0.08509
0.0850903
0.0850906
0.0850908
0.0850911
0.0850913
0.0850916
0.0850918
0.0850921
0.0850923
0.0850926
0.0850928
0.0850931
0.0850933
0.0850935
0.0850938
0.085094
0.0850943
0.0850945
0.0850948
0.085095
0.0850952
0.0850955
0.0850957
0.0850959
0.0850962
0.0850964
0.0850966
0.0850969
0.0850971
0.0850973
0.0850976
0.0850978
0.085098
0.0850983
0.0850985
0.0850987
0.0850989
0.0850992
0.0850994
0.0850996
0.0850998
0.0851
0.0851002
0.0851005
0.0851007
0.0851009
0.0851011
0.0851013
0.0851015
0.0851017
0.0851019
0.0851021
0.0851023
0.0851025
0.0851027
0.0851029
0.0851031
0.0851033
0.0851035
0.0851037
0.0851039
0.0851041
0.0851042
0.0851044
0.0851046
0.0851048
0.085105
0.0851052
0.0851053
0.0851055
0.0851057
0.0851059
0.085106
0.0851062
0.0851064
0.0851065
0.0851067
0.0851069
0.085107
0.0851072
0.0851074
0.0851075
0.0851077
0.0851078
0.085108
0.0851081
0.0851083
0.0851084
0.0851086
0.0851087
0.0851089
0.085109
0.0851092
0.0851093
0.0851095
0.0851096
0.0851097
0.0851099
0.08511
0.0851101
0.0851102
0.0851104
0.0851105
0.0851106
0.0851107
0.0851109
0.085111
0.0851111
0.0851112
0.0851113
0.0851114
0.0851115
0.0851116
0.0851117
0.0851118
0.0851119
0.085112
0.0851121
0.0851122
0.0851124
0.0851124
0.0851125
0.0851126
0.0851127
0.0851128
0.0851129
0.085113
0.0851131
0.0851132
0.0851133
0.0851133
0.0851134
0.0851135
0.0851136
0.0851136
0.0851137
0.0851138
0.0851138
0.0851139
0.085114
0.085114
0.0851141
0.0851141
0.0851142
0.0851142
0.0851143
0.0851143
0.0851144
0.0851144
0.0851145
0.0851145
0.0851145
0.0851146
0.0851146
0.0851146
0.0851147
0.0851147
0.0851147
0.0851147
0.0851148
0.0851148
0.0851148
0.0851148
0.0851148
0.0851149
0.0851149
0.0851149
0.0851149
0.0851149
0.0851149
0.0851149
0.0851149
0.0851149
0.0851149
0.0851149
0.0851149
0.0851149
0.0851149
0.0851149
0.0851148
0.0851148
0.0851148
0.0851148
0.0851147
0.0851147
0.0851147
0.0851147
0.0851146
0.0851146
0.0851146
0.0851145
0.0851145
0.0851144
0.0851144
0.0851143
0.0851143
0.0851142
0.0851142
0.0851141
0.0851141
0.085114
0.0851139
0.0851139
0.0851138
0.0851137
0.0851137
0.0851136
0.0851135
0.0851134
0.0851134
0.0851133
0.0851132
0.0851131
0.085113
0.0851129
0.0851128
0.0851128
0.0851127
0.0851126
0.0851125
0.0851124
0.0851123
0.0851122
0.085112
0.0851119
0.0851118
0.0851117
0.0851116
0.0851115
0.0851114
0.0851112
0.0851111
0.085111
0.0851109
0.0851107
0.0851106
0.0851105
0.0851103
0.0851102
0.08511
0.0851099
0.0851097
0.0851096
0.0851094
0.0851093
0.0851091
0.085109
0.0851088
0.0851087
0.0851085
0.0851083
0.0851082
0.085108
0.0851078
0.0851076
0.0851075
0.0851073
0.0851071
0.0851069
0.0851067
0.0851066
0.0851064
0.0851062
0.085106
0.0851058
0.0851056
0.0851054
0.0851052
0.085105
0.0851048
0.0851046
0.0851044
0.0851042
0.085104
0.0851037
0.0851035
0.0851033
0.0851031
0.0851029
0.0851026
0.0851024
0.0851022
0.0851019
0.0851017
0.0851015
0.0851012
0.085101
0.0851008
0.0851005
0.0851003
0.0851
0.0850998
0.0850995
0.0850993
0.085099
0.0850987
0.0850985
0.0850982
0.0850979
0.0850977
0.0850974
0.0850971
0.0850969
0.0850966
0.0850963
0.085096
0.0850957
0.0850955
0.0850952
0.0850949
0.0850946
0.0850943
0.085094
0.0850937
0.0850934
0.0850931
0.0850928
0.0850925
0.0850922
0.0850919
0.0850916
0.0850913
0.085091
0.0850907
0.0850904
0.08509
0.0850897
0.0850894
0.0850891
0.0850888
0.0850884
0.0850881
0.0850878
0.0850874
0.0850871
0.0850868
0.0850864
0.0850861
0.0850857
0.0850854
0.085085
0.0850847
0.0850843
0.085084
0.0850836
0.0850833
0.0850829
0.0850826
0.0850822
0.0850818
0.0850815
0.0850811
0.0850807
0.0850804
0.08508
0.0850796
0.0850792
0.0850789
0.0850785
0.0850781
0.0850777
0.0850773
0.0850769
0.0850766
0.0850762
0.0850758
0.0850754
0.085075
0.0850746
0.0850742
0.0850738
0.0850734
0.085073
0.0850726
0.0850722
0.0850718
0.0850714
0.085071
0.0850705
0.0850701
0.0850697
0.0850693
0.0850689
0.0850685
0.085068
0.0850676
0.0850672
0.0850668
0.0850663
0.0850659
0.0850655
0.085065
0.0850646
0.0850642
0.0850637
0.0850633
0.0850629
0.0850624
0.085062
0.0850615
0.0850611
0.0850606
0.0850602
0.0850597
0.0850593
0.0850588
0.0850584
0.0850579
0.0850575
0.085057
0.0850566
0.0850561
0.0850556
0.0850552
0.0850547
0.0850542
0.0850538
0.0850533
0.0850528
0.0850524
0.0850519
0.0850514
0.0850509
0.0850505
0.08505
0.0850495
0.085049
0.0850485
0.0850481
0.0850476
0.0850471
0.0850466
0.0850461
0.0850456
0.0850451
0.0850447
0.0850442
0.0850437
0.0850432
0.0850427
0.0850422
0.0850417
0.0850412
0.0850407
0.0850402
0.0850397
0.0850392
0.0850387
0.0850382
0.0850377
0.0850372
0.0850367
0.0850362
0.0850357
0.0850352
0.0850347
0.0850342
0.0850337
0.0850332
0.0850327
0.0850321
0.0850316
0.0850311
0.0850306
0.0850301
0.0850296
0.0850291
0.0850286
0.085028
0.0850275
0.085027
0.0850265
0.085026
0.0850254
0.0850249
0.0850244
0.0850239
0.0850234
0.0850228
0.0850223
0.0850218
0.0850213
0.0850208
0.0850202
0.0850197
0.0850192
0.0850187
0.0850181
0.0850176
0.0850171
0.0850166
0.085016
0.0850155
0.085015
0.0850145
0.0850139
0.0850134
0.0850129
0.0850123
0.0850118
0.0850113
0.0850108
0.0850102
0.0850097
0.0850092
0.0850086
0.0850081
0.0850076
0.0850071
0.0850065
0.085006
0.0850055
0.0850049
0.0850044
0.0850039
0.0850033
0.0850028
0.0850023
0.0850018
0.0850012
0.0850007
0.0850002
0.0849997
0.0849991
0.0849986
0.0849981
0.0849975
0.084997
0.0849965
0.084996
0.0849954
0.0849949
0.0849944
0.0849939
0.0849933
0.0849928
0.0849923
0.0849918
0.0849912
0.0849907
0.0849902
0.0849897
0.0849892
0.0849886
0.0849881
0.0849876
0.0849871
0.0849866
0.084986
0.0849855
0.084985
0.0849845
0.084984
0.0849835
0.0849829