/*--------------------------------*- C++ -*----------------------------------*\
| =========                 |                                                 |
| \\      /  F ield         | OpenFOAM: The Open Source CFD Toolbox           |
|  \\    /   O peration     | Version:  2512                                  |
|   \\  /    A nd           | Website:  www.openfoam.com                      |
|    \\/     M anipulation  |                                                 |
\*---------------------------------------------------------------------------*/
FoamFile
{
    version     2.0;
    format      ascii;
    arch        "LSB;label=32;scalar=64";
    class       volScalarField;
    location    "0.001";
    object      nut;
}
// * * * * * * * * * * * * * * * * * * * * * * * * * * * * * * * * * * * * * //

dimensions      [0 2 -1 0 0 0 0];

internalField   nonuniform List<scalar> 
100000
(
1.37739e-07
2.72891e-08
1.18454e-08
7.20684e-09
5.36156e-09
4.48466e-09
4.00838e-09
3.72271e-09
3.53651e-09
3.40637e-09
3.3103e-09
3.23644e-09
3.1779e-09
3.13043e-09
3.09125e-09
3.05846e-09
3.03073e-09
3.00707e-09
2.98675e-09
2.96919e-09
2.95396e-09
2.9407e-09
2.92913e-09
2.91902e-09
2.91017e-09
2.90244e-09
2.89569e-09
2.88981e-09
2.88469e-09
2.88027e-09
2.87646e-09
2.87322e-09
2.87048e-09
2.86821e-09
2.86638e-09
2.86494e-09
2.86387e-09
2.86314e-09
2.86272e-09
2.86259e-09
2.86273e-09
2.86311e-09
2.86372e-09
2.86453e-09
2.86555e-09
2.86674e-09
2.86811e-09
2.86964e-09
2.87132e-09
2.87314e-09
2.8751e-09
2.87718e-09
2.87939e-09
2.88171e-09
2.88413e-09
2.88667e-09
2.8893e-09
2.89203e-09
2.89485e-09
2.89775e-09
2.90075e-09
2.90382e-09
2.90696e-09
2.91018e-09
2.91346e-09
2.91681e-09
2.92021e-09
2.92366e-09
2.92714e-09
2.93066e-09
2.93418e-09
2.93768e-09
2.94114e-09
2.94453e-09
2.9478e-09
2.95095e-09
2.95397e-09
2.95687e-09
2.95966e-09
2.96236e-09
2.96499e-09
2.96755e-09
2.97007e-09
2.97253e-09
2.97496e-09
2.97735e-09
2.97971e-09
2.98205e-09
2.98435e-09
2.98664e-09
2.9889e-09
2.99115e-09
2.99338e-09
2.9956e-09
2.99781e-09
3e-09
3.00219e-09
3.00438e-09
3.00656e-09
3.00874e-09
3.01092e-09
3.01309e-09
3.01528e-09
3.01746e-09
3.01965e-09
3.02185e-09
3.02405e-09
3.02626e-09
3.02848e-09
3.0307e-09
3.03293e-09
3.03515e-09
3.03736e-09
3.03954e-09
3.0417e-09
3.04381e-09
3.04588e-09
3.04791e-09
3.0499e-09
3.05185e-09
3.05377e-09
3.05567e-09
3.05754e-09
3.05939e-09
3.06122e-09
3.06303e-09
3.06483e-09
3.06661e-09
3.06837e-09
3.07012e-09
3.07186e-09
3.07359e-09
3.07531e-09
3.07702e-09
3.07872e-09
3.08042e-09
3.0821e-09
3.08379e-09
3.08546e-09
3.08713e-09
3.0888e-09
3.09046e-09
3.09211e-09
3.09376e-09
3.0954e-09
3.09704e-09
3.09867e-09
3.10029e-09
3.1019e-09
3.10349e-09
3.10506e-09
3.10662e-09
3.10816e-09
3.10968e-09
3.11118e-09
3.11267e-09
3.11414e-09
3.11559e-09
3.11704e-09
3.11847e-09
3.11988e-09
3.12128e-09
3.12267e-09
3.12404e-09
3.1254e-09
3.12675e-09
3.12809e-09
3.12941e-09
3.13073e-09
3.13203e-09
3.13332e-09
3.1346e-09
3.13586e-09
3.13712e-09
3.13837e-09
3.13961e-09
3.14083e-09
3.14205e-09
3.14325e-09
3.14443e-09
3.14561e-09
3.14676e-09
3.1479e-09
3.14902e-09
3.15012e-09
3.1512e-09
3.15226e-09
3.15331e-09
3.15434e-09
3.15535e-09
3.15635e-09
3.15733e-09
3.1583e-09
3.15925e-09
3.16019e-09
3.16112e-09
3.16204e-09
3.16294e-09
3.16383e-09
3.16471e-09
3.16558e-09
3.16644e-09
3.16728e-09
3.16811e-09
3.16892e-09
3.16972e-09
3.17051e-09
3.17128e-09
3.17203e-09
3.17277e-09
3.17349e-09
3.17419e-09
3.17488e-09
3.17554e-09
3.17619e-09
3.17682e-09
3.17743e-09
3.17803e-09
3.1786e-09
3.17916e-09
3.1797e-09
3.18022e-09
3.18072e-09
3.18121e-09
3.18168e-09
3.18213e-09
3.18257e-09
3.18299e-09
3.18339e-09
3.18377e-09
3.18414e-09
3.18449e-09
3.18483e-09
3.18514e-09
3.18544e-09
3.18573e-09
3.18599e-09
3.18624e-09
3.18648e-09
3.18669e-09
3.18689e-09
3.18707e-09
3.18723e-09
3.18737e-09
3.1875e-09
3.18761e-09
3.1877e-09
3.18777e-09
3.18783e-09
3.18786e-09
3.18788e-09
3.18788e-09
3.18787e-09
3.18783e-09
3.18778e-09
3.18771e-09
3.18763e-09
3.18752e-09
3.1874e-09
3.18725e-09
3.18709e-09
3.18691e-09
3.18672e-09
3.1865e-09
3.18627e-09
3.18602e-09
3.18574e-09
3.18545e-09
3.18515e-09
3.18482e-09
3.18447e-09
3.18411e-09
3.18372e-09
3.18332e-09
3.1829e-09
3.18246e-09
3.182e-09
3.18152e-09
3.18103e-09
3.18051e-09
3.17998e-09
3.17942e-09
3.17885e-09
3.17826e-09
3.17765e-09
3.17703e-09
3.17638e-09
3.17571e-09
3.17503e-09
3.17432e-09
3.1736e-09
3.17286e-09
3.17209e-09
3.17131e-09
3.17051e-09
3.1697e-09
3.16886e-09
3.168e-09
3.16713e-09
3.16623e-09
3.16532e-09
3.16438e-09
3.16343e-09
3.16246e-09
3.16147e-09
3.16046e-09
3.15943e-09
3.15839e-09
3.15732e-09
3.15624e-09
3.15513e-09
3.15401e-09
3.15287e-09
3.15171e-09
3.15053e-09
3.14933e-09
3.14812e-09
3.14688e-09
3.14562e-09
3.14435e-09
3.14306e-09
3.14175e-09
3.14042e-09
3.13907e-09
3.1377e-09
3.13632e-09
3.13491e-09
3.13349e-09
3.13205e-09
3.13059e-09
3.12911e-09
3.12761e-09
3.1261e-09
3.12457e-09
3.12301e-09
3.12144e-09
3.11985e-09
3.11825e-09
3.11662e-09
3.11498e-09
3.11332e-09
3.11164e-09
3.10994e-09
3.10823e-09
3.10649e-09
3.10474e-09
3.10297e-09
3.10118e-09
3.09938e-09
3.09756e-09
3.09572e-09
3.09386e-09
3.09198e-09
3.09009e-09
3.08818e-09
3.08625e-09
3.08431e-09
3.08234e-09
3.08036e-09
3.07837e-09
3.07635e-09
3.07432e-09
3.07227e-09
3.07021e-09
3.06813e-09
3.06603e-09
3.06391e-09
3.06178e-09
3.05963e-09
3.05746e-09
3.05528e-09
3.05308e-09
3.05087e-09
3.04863e-09
3.04639e-09
3.04412e-09
3.04184e-09
3.03955e-09
3.03723e-09
3.0349e-09
3.03256e-09
3.0302e-09
3.02782e-09
3.02543e-09
3.02303e-09
3.0206e-09
3.01816e-09
3.01571e-09
3.01324e-09
3.01076e-09
3.00826e-09
3.00575e-09
3.00322e-09
3.00067e-09
2.99812e-09
2.99554e-09
2.99295e-09
2.99035e-09
2.98773e-09
2.9851e-09
2.98246e-09
2.9798e-09
2.97712e-09
2.97444e-09
2.97174e-09
2.96902e-09
2.96629e-09
2.96355e-09
2.96079e-09
2.95802e-09
2.95524e-09
2.95244e-09
2.94963e-09
2.94681e-09
2.94397e-09
2.94112e-09
2.93826e-09
2.93539e-09
2.9325e-09
2.9296e-09
2.92669e-09
2.92377e-09
2.92083e-09
2.91788e-09
2.91492e-09
2.91195e-09
2.90896e-09
2.90597e-09
2.90296e-09
2.89994e-09
2.89691e-09
2.89386e-09
2.89081e-09
2.88775e-09
2.88467e-09
2.88158e-09
2.87849e-09
2.87538e-09
2.87226e-09
2.86913e-09
2.86599e-09
2.86284e-09
2.85968e-09
2.85651e-09
2.85333e-09
2.85014e-09
2.84694e-09
2.84373e-09
2.84051e-09
2.83728e-09
2.83404e-09
2.8308e-09
2.82754e-09
2.82428e-09
2.821e-09
2.81772e-09
2.81443e-09
2.81113e-09
2.80782e-09
2.8045e-09
2.80118e-09
2.79785e-09
2.79451e-09
2.79116e-09
2.7878e-09
2.78444e-09
2.78107e-09
2.77769e-09
2.7743e-09
2.77091e-09
2.76751e-09
2.7641e-09
2.76069e-09
2.75727e-09
2.75384e-09
2.75041e-09
2.74697e-09
2.74353e-09
2.74007e-09
2.73662e-09
2.73315e-09
2.72968e-09
2.72621e-09
2.72273e-09
2.71924e-09
2.71575e-09
2.71226e-09
2.70875e-09
2.70525e-09
2.70174e-09
2.69822e-09
2.6947e-09
2.69118e-09
2.68765e-09
2.68412e-09
2.68058e-09
2.67704e-09
2.6735e-09
2.66995e-09
2.6664e-09
2.66284e-09
2.65929e-09
2.65572e-09
2.65216e-09
2.64859e-09
2.64502e-09
2.64145e-09
2.63787e-09
2.6343e-09
2.63072e-09
2.62713e-09
2.62355e-09
2.61996e-09
2.61637e-09
2.61278e-09
2.60919e-09
2.6056e-09
2.602e-09
2.59841e-09
2.59481e-09
2.59121e-09
2.58761e-09
2.58401e-09
2.58041e-09
2.57681e-09
2.57321e-09
2.56961e-09
2.56601e-09
2.56241e-09
2.55881e-09
2.5552e-09
2.5516e-09
2.548e-09
2.5444e-09
2.5408e-09
2.5372e-09
2.5336e-09
2.53001e-09
2.52641e-09
2.52282e-09
2.51922e-09
2.51563e-09
2.51204e-09
2.50845e-09
2.50487e-09
2.50128e-09
2.4977e-09
2.49412e-09
2.49054e-09
2.48696e-09
2.48339e-09
2.47982e-09
2.47625e-09
2.47269e-09
2.46912e-09
2.46556e-09
2.46201e-09
2.45846e-09
2.45491e-09
2.45136e-09
2.44782e-09
2.44428e-09
2.44074e-09
2.43721e-09
2.43369e-09
2.43016e-09
2.42665e-09
2.42313e-09
2.41962e-09
2.41612e-09
2.41262e-09
2.40912e-09
2.40563e-09
2.40215e-09
2.39867e-09
2.39519e-09
2.39172e-09
2.38826e-09
2.3848e-09
2.38135e-09
2.3779e-09
2.37446e-09
2.37102e-09
2.36759e-09
2.36417e-09
2.36075e-09
2.35734e-09
2.35394e-09
2.35054e-09
2.34715e-09
2.34376e-09
2.34039e-09
2.33702e-09
2.33365e-09
2.3303e-09
2.32695e-09
2.3236e-09
2.32027e-09
2.31694e-09
2.31362e-09
2.31031e-09
2.30701e-09
2.30371e-09
2.30042e-09
2.29714e-09
2.29387e-09
2.29061e-09
2.28735e-09
2.2841e-09
2.28087e-09
2.27764e-09
2.27441e-09
2.2712e-09
2.268e-09
2.2648e-09
2.26162e-09
2.25844e-09
2.25527e-09
2.25212e-09
2.24897e-09
2.24583e-09
2.2427e-09
2.23958e-09
2.23647e-09
2.23336e-09
2.23027e-09
2.22719e-09
2.22412e-09
2.22106e-09
2.21801e-09
2.21497e-09
2.21194e-09
2.20892e-09
2.20591e-09
2.20291e-09
2.19992e-09
2.19694e-09
2.19397e-09
2.19101e-09
2.18807e-09
2.18513e-09
2.18221e-09
2.1793e-09
2.17639e-09
2.1735e-09
2.17062e-09
2.16775e-09
2.1649e-09
2.16205e-09
2.15922e-09
2.1564e-09
2.15358e-09
2.15078e-09
2.148e-09
2.14522e-09
2.14246e-09
2.13971e-09
2.13697e-09
2.13424e-09
2.13152e-09
2.12882e-09
2.12613e-09
2.12345e-09
2.12078e-09
2.11813e-09
2.11549e-09
2.11286e-09
2.11024e-09
2.10763e-09
2.10504e-09
2.10246e-09
2.0999e-09
2.09734e-09
2.0948e-09
2.09227e-09
2.08976e-09
2.08726e-09
2.08477e-09
2.08229e-09
2.07983e-09
2.07738e-09
2.07494e-09
2.07252e-09
2.07011e-09
2.06771e-09
2.06533e-09
2.06295e-09
2.0606e-09
2.05825e-09
2.05592e-09
2.05361e-09
2.0513e-09
2.04901e-09
2.04674e-09
2.04448e-09
2.04223e-09
2.03999e-09
2.03777e-09
2.03556e-09
2.03337e-09
2.03119e-09
2.02903e-09
2.02687e-09
2.02474e-09
2.02261e-09
2.0205e-09
2.01841e-09
2.01632e-09
2.01426e-09
2.0122e-09
2.01016e-09
2.00814e-09
2.00612e-09
2.00413e-09
2.00214e-09
2.00018e-09
1.99822e-09
1.99628e-09
1.99435e-09
1.99244e-09
1.99054e-09
1.98866e-09
1.98679e-09
1.98494e-09
1.9831e-09
1.98127e-09
1.97946e-09
1.97766e-09
1.97588e-09
1.97411e-09
1.97236e-09
1.97062e-09
1.96889e-09
1.96718e-09
1.96548e-09
1.9638e-09
1.96214e-09
1.96048e-09
1.95884e-09
1.95722e-09
1.95561e-09
1.95402e-09
1.95244e-09
1.95087e-09
1.94932e-09
1.94778e-09
1.94626e-09
1.94475e-09
1.94326e-09
1.94178e-09
1.94032e-09
1.93887e-09
1.93743e-09
1.93601e-09
1.93461e-09
1.93321e-09
1.93184e-09
1.93047e-09
1.92913e-09
1.92779e-09
1.92647e-09
1.92517e-09
1.92388e-09
1.9226e-09
1.92134e-09
1.9201e-09
1.91886e-09
1.91764e-09
1.91644e-09
1.91525e-09
1.91408e-09
1.91292e-09
1.91177e-09
1.91064e-09
1.90952e-09
1.90842e-09
1.90733e-09
1.90625e-09
1.90519e-09
1.90415e-09
1.90312e-09
1.9021e-09
1.9011e-09
1.90011e-09
1.89913e-09
1.89817e-09
1.89722e-09
1.89629e-09
1.89537e-09
1.89447e-09
1.89358e-09
1.8927e-09
1.89184e-09
1.89099e-09
1.89015e-09
1.88933e-09
1.88853e-09
1.88773e-09
1.88695e-09
1.88619e-09
1.88544e-09
1.8847e-09
1.88398e-09
1.88327e-09
1.88257e-09
1.88189e-09
1.88122e-09
1.88056e-09
1.87992e-09
1.87929e-09
1.87867e-09
1.87807e-09
1.87748e-09
1.87691e-09
1.87635e-09
1.8758e-09
1.87526e-09
1.87474e-09
1.87423e-09
1.87374e-09
1.87326e-09
1.87279e-09
1.87233e-09
1.87189e-09
1.87146e-09
1.87104e-09
1.87064e-09
1.87025e-09
1.86987e-09
1.8695e-09
1.86915e-09
1.86881e-09
1.86848e-09
1.86817e-09
1.86786e-09
1.86758e-09
1.8673e-09
1.86703e-09
1.86678e-09
1.86654e-09
1.86632e-09
1.8661e-09
1.8659e-09
1.86571e-09
1.86553e-09
1.86536e-09
1.86521e-09
1.86507e-09
1.86494e-09
1.86482e-09
1.86471e-09
1.86462e-09
1.86454e-09
1.86447e-09
1.86441e-09
1.86436e-09
1.86432e-09
1.8643e-09
1.86429e-09
1.86429e-09
1.8643e-09
1.86432e-09
1.86435e-09
1.8644e-09
1.86445e-09
1.86452e-09
1.8646e-09
1.86468e-09
1.86478e-09
1.8649e-09
1.86502e-09
1.86515e-09
1.86529e-09
1.86545e-09
1.86561e-09
1.86579e-09
1.86597e-09
1.86617e-09
1.86638e-09
1.86659e-09
1.86682e-09
1.86706e-09
1.86731e-09
1.86757e-09
1.86783e-09
1.86811e-09
1.8684e-09
1.8687e-09
1.86901e-09
1.86932e-09
1.86965e-09
1.86999e-09
1.87034e-09
1.87069e-09
1.87106e-09
1.87143e-09
1.87182e-09
1.87221e-09
1.87261e-09
1.87303e-09
1.87345e-09
1.87388e-09
1.87432e-09
1.87476e-09
1.87522e-09
1.87569e-09
1.87616e-09
1.87664e-09
1.87713e-09
1.87763e-09
1.87814e-09
1.87866e-09
1.87918e-09
1.87971e-09
1.88025e-09
1.8808e-09
1.88136e-09
1.88192e-09
1.88249e-09
1.88307e-09
1.88365e-09
1.88425e-09
1.88485e-09
1.88545e-09
1.88607e-09
1.88669e-09
1.88732e-09
1.88795e-09
1.88859e-09
1.88924e-09
1.88989e-09
1.89055e-09
1.89122e-09
1.89189e-09
1.89257e-09
1.89325e-09
1.89394e-09
1.89463e-09
1.89533e-09
1.89603e-09
1.89674e-09
1.89745e-09
1.89816e-09
1.89888e-09
1.8996e-09
1.90033e-09
1.90106e-09
1.90179e-09
1.90252e-09
1.90326e-09
1.904e-09
1.90474e-09
1.90547e-09
1.90621e-09
1.90696e-09
1.90769e-09
1.90843e-09
1.90917e-09
1.9099e-09
1.91064e-09
1.91136e-09
1.91209e-09
1.91281e-09
1.91352e-09
1.91422e-09
1.91492e-09
1.9156e-09
1.91628e-09
1.91694e-09
1.91759e-09
1.91822e-09
1.91883e-09
1.91943e-09
1.92e-09
1.92055e-09
1.92107e-09
1.92155e-09
1.92201e-09
1.92242e-09
1.92279e-09
1.92311e-09
1.92338e-09
1.92359e-09
1.92372e-09
1.92378e-09
1.92376e-09
1.92363e-09
1.9234e-09
1.92304e-09
1.92254e-09
1.92188e-09
1.92103e-09
1.91996e-09
1.91863e-09
1.91697e-09
1.9149e-09
1.91233e-09
1.909e-09
1.90333e-09
1.89455e-09
2.56356e-06
4.58409e-07
1.7147e-07
1.15645e-07
1.02566e-07
9.90751e-08
9.8028e-08
9.76588e-08
9.74937e-08
9.7399e-08
9.73343e-08
9.72857e-08
9.72474e-08
9.72166e-08
9.71914e-08
9.71705e-08
9.71532e-08
9.71387e-08
9.71266e-08
9.71165e-08
9.71082e-08
9.71013e-08
9.70956e-08
9.70911e-08
9.70876e-08
9.70849e-08
9.7083e-08
9.70818e-08
9.70812e-08
9.70811e-08
9.70816e-08
9.70825e-08
9.70839e-08
9.70856e-08
9.70877e-08
9.70902e-08
9.70929e-08
9.7096e-08
9.70993e-08
9.71029e-08
9.71068e-08
9.71108e-08
9.71151e-08
9.71195e-08
9.71241e-08
9.71289e-08
9.71339e-08
9.7139e-08
9.71443e-08
9.71497e-08
9.71552e-08
9.71608e-08
9.71666e-08
9.71725e-08
9.71785e-08
9.71846e-08
9.71908e-08
9.71972e-08
9.72036e-08
9.72101e-08
9.72167e-08
9.72234e-08
9.72301e-08
9.7237e-08
9.72439e-08
9.72509e-08
9.72579e-08
9.7265e-08
9.72721e-08
9.72792e-08
9.72863e-08
9.72934e-08
9.73004e-08
9.73073e-08
9.7314e-08
9.73207e-08
9.73272e-08
9.73336e-08
9.73399e-08
9.73462e-08
9.73525e-08
9.73587e-08
9.73649e-08
9.7371e-08
9.73772e-08
9.73833e-08
9.73894e-08
9.73955e-08
9.74016e-08
9.74077e-08
9.74138e-08
9.74199e-08
9.7426e-08
9.74321e-08
9.74382e-08
9.74444e-08
9.74505e-08
9.74566e-08
9.74628e-08
9.74689e-08
9.74751e-08
9.74813e-08
9.74875e-08
9.74938e-08
9.75e-08
9.75063e-08
9.75126e-08
9.75189e-08
9.75252e-08
9.75316e-08
9.75379e-08
9.75443e-08
9.75506e-08
9.7557e-08
9.75632e-08
9.75695e-08
9.75757e-08
9.75819e-08
9.75881e-08
9.75942e-08
9.76003e-08
9.76065e-08
9.76126e-08
9.76187e-08
9.76248e-08
9.76309e-08
9.7637e-08
9.76431e-08
9.76492e-08
9.76553e-08
9.76614e-08
9.76675e-08
9.76736e-08
9.76798e-08
9.76859e-08
9.7692e-08
9.76982e-08
9.77043e-08
9.77105e-08
9.77166e-08
9.77228e-08
9.7729e-08
9.77352e-08
9.77414e-08
9.77477e-08
9.77539e-08
9.77602e-08
9.77664e-08
9.77727e-08
9.77789e-08
9.77852e-08
9.77914e-08
9.77976e-08
9.78039e-08
9.78101e-08
9.78163e-08
9.78225e-08
9.78288e-08
9.7835e-08
9.78412e-08
9.78474e-08
9.78537e-08
9.78599e-08
9.78661e-08
9.78723e-08
9.78785e-08
9.78847e-08
9.7891e-08
9.78972e-08
9.79034e-08
9.79096e-08
9.79158e-08
9.79221e-08
9.79283e-08
9.79345e-08
9.79408e-08
9.7947e-08
9.79533e-08
9.79595e-08
9.79657e-08
9.79719e-08
9.79781e-08
9.79843e-08
9.79905e-08
9.79967e-08
9.80029e-08
9.80091e-08
9.80152e-08
9.80214e-08
9.80276e-08
9.80337e-08
9.80398e-08
9.8046e-08
9.80521e-08
9.80583e-08
9.80644e-08
9.80705e-08
9.80767e-08
9.80828e-08
9.80889e-08
9.80951e-08
9.81012e-08
9.81073e-08
9.81134e-08
9.81196e-08
9.81257e-08
9.81318e-08
9.81379e-08
9.8144e-08
9.81501e-08
9.81561e-08
9.81622e-08
9.81683e-08
9.81743e-08
9.81803e-08
9.81864e-08
9.81924e-08
9.81984e-08
9.82044e-08
9.82104e-08
9.82164e-08
9.82223e-08
9.82283e-08
9.82342e-08
9.82402e-08
9.82461e-08
9.8252e-08
9.82579e-08
9.82638e-08
9.82697e-08
9.82756e-08
9.82814e-08
9.82873e-08
9.82931e-08
9.8299e-08
9.83048e-08
9.83106e-08
9.83164e-08
9.83222e-08
9.8328e-08
9.83338e-08
9.83396e-08
9.83453e-08
9.83511e-08
9.83569e-08
9.83626e-08
9.83683e-08
9.8374e-08
9.83797e-08
9.83854e-08
9.83911e-08
9.83968e-08
9.84024e-08
9.8408e-08
9.84137e-08
9.84193e-08
9.84249e-08
9.84304e-08
9.8436e-08
9.84416e-08
9.84471e-08
9.84526e-08
9.84581e-08
9.84636e-08
9.84691e-08
9.84746e-08
9.848e-08
9.84855e-08
9.84909e-08
9.84963e-08
9.85017e-08
9.8507e-08
9.85124e-08
9.85177e-08
9.85231e-08
9.85284e-08
9.85337e-08
9.85389e-08
9.85442e-08
9.85494e-08
9.85547e-08
9.85599e-08
9.85651e-08
9.85703e-08
9.85754e-08
9.85806e-08
9.85857e-08
9.85908e-08
9.85959e-08
9.86009e-08
9.8606e-08
9.8611e-08
9.8616e-08
9.8621e-08
9.8626e-08
9.8631e-08
9.86359e-08
9.86408e-08
9.86457e-08
9.86506e-08
9.86555e-08
9.86603e-08
9.86651e-08
9.86699e-08
9.86747e-08
9.86795e-08
9.86842e-08
9.8689e-08
9.86937e-08
9.86984e-08
9.8703e-08
9.87077e-08
9.87123e-08
9.87169e-08
9.87215e-08
9.87261e-08
9.87306e-08
9.87351e-08
9.87396e-08
9.87441e-08
9.87486e-08
9.8753e-08
9.87575e-08
9.87618e-08
9.87662e-08
9.87706e-08
9.87749e-08
9.87792e-08
9.87835e-08
9.87877e-08
9.8792e-08
9.87962e-08
9.88004e-08
9.88045e-08
9.88087e-08
9.88128e-08
9.88169e-08
9.88209e-08
9.8825e-08
9.8829e-08
9.8833e-08
9.88369e-08
9.88409e-08
9.88448e-08
9.88487e-08
9.88525e-08
9.88564e-08
9.88602e-08
9.8864e-08
9.88677e-08
9.88715e-08
9.88752e-08
9.88789e-08
9.88825e-08
9.88862e-08
9.88898e-08
9.88933e-08
9.88969e-08
9.89004e-08
9.89039e-08
9.89074e-08
9.89109e-08
9.89143e-08
9.89177e-08
9.89211e-08
9.89244e-08
9.89277e-08
9.8931e-08
9.89343e-08
9.89375e-08
9.89407e-08
9.89439e-08
9.8947e-08
9.89501e-08
9.89532e-08
9.89563e-08
9.89593e-08
9.89623e-08
9.89653e-08
9.89683e-08
9.89712e-08
9.89741e-08
9.89769e-08
9.89798e-08
9.89826e-08
9.89853e-08
9.89881e-08
9.89908e-08
9.89935e-08
9.89961e-08
9.89987e-08
9.90013e-08
9.90039e-08
9.90064e-08
9.90089e-08
9.90114e-08
9.90138e-08
9.90163e-08
9.90186e-08
9.9021e-08
9.90233e-08
9.90256e-08
9.90278e-08
9.90301e-08
9.90323e-08
9.90345e-08
9.90366e-08
9.90387e-08
9.90408e-08
9.90429e-08
9.90449e-08
9.90469e-08
9.90488e-08
9.90507e-08
9.90526e-08
9.90545e-08
9.90563e-08
9.90581e-08
9.90599e-08
9.90616e-08
9.90633e-08
9.9065e-08
9.90666e-08
9.90682e-08
9.90698e-08
9.90713e-08
9.90728e-08
9.90743e-08
9.90757e-08
9.90771e-08
9.90785e-08
9.90798e-08
9.90811e-08
9.90824e-08
9.90836e-08
9.90848e-08
9.90859e-08
9.90871e-08
9.90882e-08
9.90892e-08
9.90903e-08
9.90912e-08
9.90922e-08
9.90931e-08
9.9094e-08
9.90949e-08
9.90957e-08
9.90965e-08
9.90972e-08
9.90979e-08
9.90986e-08
9.90993e-08
9.90999e-08
9.91005e-08
9.9101e-08
9.91015e-08
9.9102e-08
9.91024e-08
9.91028e-08
9.91032e-08
9.91035e-08
9.91038e-08
9.91041e-08
9.91043e-08
9.91045e-08
9.91047e-08
9.91048e-08
9.91049e-08
9.91049e-08
9.91049e-08
9.91049e-08
9.91048e-08
9.91047e-08
9.91046e-08
9.91044e-08
9.91042e-08
9.9104e-08
9.91037e-08
9.91034e-08
9.9103e-08
9.91027e-08
9.91022e-08
9.91018e-08
9.91013e-08
9.91007e-08
9.91002e-08
9.90996e-08
9.90989e-08
9.90982e-08
9.90975e-08
9.90968e-08
9.9096e-08
9.90951e-08
9.90943e-08
9.90934e-08
9.90924e-08
9.90915e-08
9.90905e-08
9.90894e-08
9.90883e-08
9.90872e-08
9.90861e-08
9.90849e-08
9.90836e-08
9.90824e-08
9.90811e-08
9.90797e-08
9.90784e-08
9.90769e-08
9.90755e-08
9.9074e-08
9.90725e-08
9.90709e-08
9.90693e-08
9.90677e-08
9.9066e-08
9.90643e-08
9.90625e-08
9.90607e-08
9.90589e-08
9.90571e-08
9.90552e-08
9.90532e-08
9.90512e-08
9.90492e-08
9.90472e-08
9.90451e-08
9.9043e-08
9.90408e-08
9.90386e-08
9.90364e-08
9.90341e-08
9.90318e-08
9.90294e-08
9.90271e-08
9.90246e-08
9.90222e-08
9.90197e-08
9.90171e-08
9.90146e-08
9.9012e-08
9.90093e-08
9.90066e-08
9.90039e-08
9.90012e-08
9.89984e-08
9.89955e-08
9.89927e-08
9.89898e-08
9.89868e-08
9.89839e-08
9.89808e-08
9.89778e-08
9.89747e-08
9.89716e-08
9.89684e-08
9.89652e-08
9.8962e-08
9.89587e-08
9.89554e-08
9.89521e-08
9.89487e-08
9.89453e-08
9.89418e-08
9.89383e-08
9.89348e-08
9.89312e-08
9.89276e-08
9.8924e-08
9.89203e-08
9.89166e-08
9.89129e-08
9.89091e-08
9.89053e-08
9.89014e-08
9.88975e-08
9.88936e-08
9.88896e-08
9.88856e-08
9.88816e-08
9.88775e-08
9.88734e-08
9.88693e-08
9.88651e-08
9.88609e-08
9.88566e-08
9.88524e-08
9.8848e-08
9.88437e-08
9.88393e-08
9.88349e-08
9.88304e-08
9.88259e-08
9.88214e-08
9.88168e-08
9.88122e-08
9.88076e-08
9.88029e-08
9.87982e-08
9.87935e-08
9.87887e-08
9.87839e-08
9.8779e-08
9.87742e-08
9.87693e-08
9.87643e-08
9.87593e-08
9.87543e-08
9.87493e-08
9.87442e-08
9.87391e-08
9.8734e-08
9.87288e-08
9.87236e-08
9.87183e-08
9.8713e-08
9.87077e-08
9.87024e-08
9.8697e-08
9.86916e-08
9.86861e-08
9.86807e-08
9.86751e-08
9.86696e-08
9.8664e-08
9.86584e-08
9.86528e-08
9.86471e-08
9.86414e-08
9.86357e-08
9.86299e-08
9.86241e-08
9.86182e-08
9.86124e-08
9.86065e-08
9.86006e-08
9.85946e-08
9.85886e-08
9.85826e-08
9.85765e-08
9.85705e-08
9.85644e-08
9.85582e-08
9.8552e-08
9.85458e-08
9.85396e-08
9.85333e-08
9.85271e-08
9.85207e-08
9.85144e-08
9.8508e-08
9.85016e-08
9.84952e-08
9.84887e-08
9.84822e-08
9.84757e-08
9.84691e-08
9.84625e-08
9.84559e-08
9.84493e-08
9.84426e-08
9.84359e-08
9.84292e-08
9.84225e-08
9.84157e-08
9.84089e-08
9.8402e-08
9.83952e-08
9.83883e-08
9.83814e-08
9.83745e-08
9.83675e-08
9.83605e-08
9.83535e-08
9.83464e-08
9.83394e-08
9.83323e-08
9.83252e-08
9.8318e-08
9.83108e-08
9.83036e-08
9.82964e-08
9.82892e-08
9.82819e-08
9.82746e-08
9.82673e-08
9.82599e-08
9.82526e-08
9.82452e-08
9.82378e-08
9.82303e-08
9.82229e-08
9.82154e-08
9.82079e-08
9.82003e-08
9.81928e-08
9.81852e-08
9.81776e-08
9.817e-08
9.81623e-08
9.81547e-08
9.8147e-08
9.81393e-08
9.81316e-08
9.81238e-08
9.8116e-08
9.81082e-08
9.81004e-08
9.80926e-08
9.80848e-08
9.80769e-08
9.8069e-08
9.80611e-08
9.80531e-08
9.80452e-08
9.80372e-08
9.80292e-08
9.80212e-08
9.80132e-08
9.80052e-08
9.79971e-08
9.7989e-08
9.79809e-08
9.79728e-08
9.79647e-08
9.79565e-08
9.79484e-08
9.79402e-08
9.7932e-08
9.79238e-08
9.79155e-08
9.79073e-08
9.7899e-08
9.78908e-08
9.78825e-08
9.78742e-08
9.78659e-08
9.78575e-08
9.78492e-08
9.78408e-08
9.78325e-08
9.78241e-08
9.78157e-08
9.78072e-08
9.77988e-08
9.77904e-08
9.77819e-08
9.77735e-08
9.7765e-08
9.77565e-08
9.7748e-08
9.77395e-08
9.77309e-08
9.77224e-08
9.77138e-08
9.77053e-08
9.76967e-08
9.76881e-08
9.76795e-08
9.76709e-08
9.76623e-08
9.76537e-08
9.76451e-08
9.76364e-08
9.76278e-08
9.76191e-08
9.76105e-08
9.76018e-08
9.75931e-08
9.75844e-08
9.75757e-08
9.7567e-08
9.75583e-08
9.75496e-08
9.75409e-08
9.75322e-08
9.75234e-08
9.75147e-08
9.75059e-08
9.74972e-08
9.74884e-08
9.74797e-08
9.74709e-08
9.74621e-08
9.74534e-08
9.74446e-08
9.74358e-08
9.7427e-08
9.74182e-08
9.74094e-08
9.74006e-08
9.73918e-08
9.7383e-08
9.73742e-08
9.73654e-08
9.73566e-08
9.73478e-08
9.7339e-08
9.73302e-08
9.73214e-08
9.73126e-08
9.73037e-08
9.72949e-08
9.72861e-08
9.72773e-08
9.72685e-08
9.72597e-08
9.72509e-08
9.72421e-08
9.72333e-08
9.72245e-08
9.72157e-08
9.72069e-08
9.71981e-08
9.71893e-08
9.71805e-08
9.71717e-08
9.71629e-08
9.71541e-08
9.71453e-08
9.71365e-08
9.71278e-08
9.7119e-08
9.71102e-08
9.71015e-08
9.70927e-08
9.7084e-08
9.70752e-08
9.70665e-08
9.70578e-08
9.70491e-08
9.70403e-08
9.70316e-08
9.70229e-08
9.70142e-08
9.70055e-08
9.69969e-08
9.69882e-08
9.69795e-08
9.69709e-08
9.69622e-08
9.69536e-08
9.69449e-08
9.69363e-08
9.69277e-08
9.69191e-08
9.69105e-08
9.69019e-08
9.68934e-08
9.68848e-08
9.68762e-08
9.68677e-08
9.68592e-08
9.68506e-08
9.68421e-08
9.68336e-08
9.68252e-08
9.68167e-08
9.68082e-08
9.67998e-08
9.67914e-08
9.67829e-08
9.67745e-08
9.67661e-08
9.67577e-08
9.67494e-08
9.6741e-08
9.67327e-08
9.67244e-08
9.67161e-08
9.67078e-08
9.66995e-08
9.66912e-08
9.6683e-08
9.66747e-08
9.66665e-08
9.66583e-08
9.66501e-08
9.6642e-08
9.66338e-08
9.66257e-08
9.66175e-08
9.66094e-08
9.66014e-08
9.65933e-08
9.65852e-08
9.65772e-08
9.65692e-08
9.65612e-08
9.65532e-08
9.65453e-08
9.65373e-08
9.65294e-08
9.65215e-08
9.65136e-08
9.65058e-08
9.64979e-08
9.64901e-08
9.64823e-08
9.64745e-08
9.64668e-08
9.6459e-08
9.64513e-08
9.64436e-08
9.64359e-08
9.64283e-08
9.64206e-08
9.6413e-08
9.64054e-08
9.63979e-08
9.63903e-08
9.63828e-08
9.63753e-08
9.63678e-08
9.63603e-08
9.63529e-08
9.63455e-08
9.63381e-08
9.63308e-08
9.63234e-08
9.63161e-08
9.63088e-08
9.63015e-08
9.62943e-08
9.62871e-08
9.62799e-08
9.62727e-08
9.62656e-08
9.62585e-08
9.62514e-08
9.62443e-08
9.62373e-08
9.62302e-08
9.62233e-08
9.62163e-08
9.62093e-08
9.62024e-08
9.61955e-08
9.61887e-08
9.61818e-08
9.6175e-08
9.61682e-08
9.61614e-08
9.61547e-08
9.61479e-08
9.61412e-08
9.61346e-08
9.61279e-08
9.61213e-08
9.61147e-08
9.61081e-08
9.61016e-08
9.6095e-08
9.60885e-08
9.6082e-08
9.60756e-08
9.60691e-08
9.60627e-08
9.60563e-08
9.605e-08
9.60436e-08
9.60373e-08
9.6031e-08
9.60247e-08
9.60185e-08
9.60122e-08
9.6006e-08
9.59998e-08
9.59936e-08
9.59875e-08
9.59813e-08
9.59752e-08
9.5969e-08
9.59629e-08
9.59568e-08
9.59507e-08
9.59446e-08
9.59386e-08
9.59325e-08
9.59264e-08
9.59203e-08
9.59142e-08
9.5908e-08
9.59019e-08
9.58957e-08
9.58895e-08
9.58833e-08
9.5877e-08
9.58706e-08
9.58642e-08
9.58576e-08
9.5851e-08
9.58441e-08
9.58369e-08
9.58291e-08
9.58198e-08
9.5808e-08
9.57921e-08
9.57709e-08
9.57485e-08
1.86634e-05
4.82804e-06
2.5419e-06
1.97047e-06
1.81698e-06
1.77622e-06
1.76617e-06
1.76418e-06
1.7641e-06
1.76438e-06
1.76465e-06
1.76487e-06
1.76503e-06
1.76516e-06
1.76526e-06
1.76533e-06
1.76539e-06
1.76544e-06
1.76548e-06
1.76551e-06
1.76554e-06
1.76556e-06
1.76558e-06
1.7656e-06
1.76561e-06
1.76563e-06
1.76564e-06
1.76565e-06
1.76566e-06
1.76566e-06
1.76567e-06
1.76568e-06
1.76568e-06
1.76569e-06
1.76569e-06
1.7657e-06
1.7657e-06
1.76571e-06
1.76571e-06
1.76572e-06
1.76572e-06
1.76573e-06
1.76573e-06
1.76574e-06
1.76574e-06
1.76575e-06
1.76575e-06
1.76575e-06
1.76576e-06
1.76576e-06
1.76577e-06
1.76577e-06
1.76577e-06
1.76578e-06
1.76578e-06
1.76579e-06
1.76579e-06
1.7658e-06
1.7658e-06
1.76581e-06
1.76581e-06
1.76581e-06
1.76582e-06
1.76582e-06
1.76583e-06
1.76583e-06
1.76584e-06
1.76584e-06
1.76585e-06
1.76585e-06
1.76585e-06
1.76586e-06
1.76586e-06
1.76586e-06
1.76586e-06
1.76586e-06
1.76586e-06
1.76586e-06
1.76586e-06
1.76586e-06
1.76586e-06
1.76586e-06
1.76586e-06
1.76586e-06
1.76586e-06
1.76586e-06
1.76587e-06
1.76587e-06
1.76587e-06
1.76587e-06
1.76587e-06
1.76588e-06
1.76588e-06
1.76588e-06
1.76588e-06
1.76589e-06
1.76589e-06
1.76589e-06
1.7659e-06
1.7659e-06
1.7659e-06
1.76591e-06
1.76591e-06
1.76592e-06
1.76592e-06
1.76592e-06
1.76593e-06
1.76593e-06
1.76594e-06
1.76594e-06
1.76594e-06
1.76595e-06
1.76595e-06
1.76595e-06
1.76596e-06
1.76596e-06
1.76596e-06
1.76597e-06
1.76597e-06
1.76597e-06
1.76597e-06
1.76598e-06
1.76598e-06
1.76598e-06
1.76599e-06
1.76599e-06
1.766e-06
1.766e-06
1.766e-06
1.76601e-06
1.76601e-06
1.76601e-06
1.76602e-06
1.76602e-06
1.76603e-06
1.76603e-06
1.76604e-06
1.76604e-06
1.76604e-06
1.76605e-06
1.76605e-06
1.76606e-06
1.76606e-06
1.76607e-06
1.76607e-06
1.76608e-06
1.76608e-06
1.76609e-06
1.76609e-06
1.7661e-06
1.7661e-06
1.76611e-06
1.76611e-06
1.76612e-06
1.76612e-06
1.76613e-06
1.76613e-06
1.76614e-06
1.76614e-06
1.76615e-06
1.76615e-06
1.76616e-06
1.76616e-06
1.76617e-06
1.76617e-06
1.76618e-06
1.76618e-06
1.76619e-06
1.7662e-06
1.7662e-06
1.76621e-06
1.76621e-06
1.76622e-06
1.76622e-06
1.76623e-06
1.76624e-06
1.76624e-06
1.76625e-06
1.76625e-06
1.76626e-06
1.76626e-06
1.76627e-06
1.76628e-06
1.76628e-06
1.76629e-06
1.76629e-06
1.7663e-06
1.7663e-06
1.76631e-06
1.76632e-06
1.76632e-06
1.76633e-06
1.76633e-06
1.76634e-06
1.76634e-06
1.76635e-06
1.76636e-06
1.76636e-06
1.76637e-06
1.76637e-06
1.76638e-06
1.76639e-06
1.76639e-06
1.7664e-06
1.7664e-06
1.76641e-06
1.76642e-06
1.76642e-06
1.76643e-06
1.76643e-06
1.76644e-06
1.76645e-06
1.76645e-06
1.76646e-06
1.76646e-06
1.76647e-06
1.76648e-06
1.76648e-06
1.76649e-06
1.76649e-06
1.7665e-06
1.76651e-06
1.76651e-06
1.76652e-06
1.76652e-06
1.76653e-06
1.76654e-06
1.76654e-06
1.76655e-06
1.76655e-06
1.76656e-06
1.76656e-06
1.76657e-06
1.76658e-06
1.76658e-06
1.76659e-06
1.76659e-06
1.7666e-06
1.76661e-06
1.76661e-06
1.76662e-06
1.76662e-06
1.76663e-06
1.76664e-06
1.76664e-06
1.76665e-06
1.76665e-06
1.76666e-06
1.76667e-06
1.76667e-06
1.76668e-06
1.76668e-06
1.76669e-06
1.76669e-06
1.7667e-06
1.76671e-06
1.76671e-06
1.76672e-06
1.76672e-06
1.76673e-06
1.76674e-06
1.76674e-06
1.76675e-06
1.76675e-06
1.76676e-06
1.76676e-06
1.76677e-06
1.76678e-06
1.76678e-06
1.76679e-06
1.76679e-06
1.7668e-06
1.7668e-06
1.76681e-06
1.76681e-06
1.76682e-06
1.76683e-06
1.76683e-06
1.76684e-06
1.76684e-06
1.76685e-06
1.76685e-06
1.76686e-06
1.76686e-06
1.76687e-06
1.76687e-06
1.76688e-06
1.76688e-06
1.76689e-06
1.7669e-06
1.7669e-06
1.76691e-06
1.76691e-06
1.76692e-06
1.76692e-06
1.76693e-06
1.76693e-06
1.76694e-06
1.76694e-06
1.76695e-06
1.76695e-06
1.76696e-06
1.76696e-06
1.76697e-06
1.76697e-06
1.76698e-06
1.76698e-06
1.76699e-06
1.76699e-06
1.767e-06
1.767e-06
1.76701e-06
1.76701e-06
1.76702e-06
1.76702e-06
1.76703e-06
1.76703e-06
1.76704e-06
1.76704e-06
1.76705e-06
1.76705e-06
1.76705e-06
1.76706e-06
1.76706e-06
1.76707e-06
1.76707e-06
1.76708e-06
1.76708e-06
1.76709e-06
1.76709e-06
1.7671e-06
1.7671e-06
1.7671e-06
1.76711e-06
1.76711e-06
1.76712e-06
1.76712e-06
1.76713e-06
1.76713e-06
1.76713e-06
1.76714e-06
1.76714e-06
1.76715e-06
1.76715e-06
1.76716e-06
1.76716e-06
1.76716e-06
1.76717e-06
1.76717e-06
1.76717e-06
1.76718e-06
1.76718e-06
1.76719e-06
1.76719e-06
1.76719e-06
1.7672e-06
1.7672e-06
1.7672e-06
1.76721e-06
1.76721e-06
1.76722e-06
1.76722e-06
1.76722e-06
1.76723e-06
1.76723e-06
1.76723e-06
1.76724e-06
1.76724e-06
1.76724e-06
1.76725e-06
1.76725e-06
1.76725e-06
1.76726e-06
1.76726e-06
1.76726e-06
1.76727e-06
1.76727e-06
1.76727e-06
1.76727e-06
1.76728e-06
1.76728e-06
1.76728e-06
1.76729e-06
1.76729e-06
1.76729e-06
1.76729e-06
1.7673e-06
1.7673e-06
1.7673e-06
1.7673e-06
1.76731e-06
1.76731e-06
1.76731e-06
1.76731e-06
1.76732e-06
1.76732e-06
1.76732e-06
1.76732e-06
1.76733e-06
1.76733e-06
1.76733e-06
1.76733e-06
1.76734e-06
1.76734e-06
1.76734e-06
1.76734e-06
1.76734e-06
1.76735e-06
1.76735e-06
1.76735e-06
1.76735e-06
1.76735e-06
1.76736e-06
1.76736e-06
1.76736e-06
1.76736e-06
1.76736e-06
1.76736e-06
1.76737e-06
1.76737e-06
1.76737e-06
1.76737e-06
1.76737e-06
1.76737e-06
1.76737e-06
1.76738e-06
1.76738e-06
1.76738e-06
1.76738e-06
1.76738e-06
1.76738e-06
1.76738e-06
1.76738e-06
1.76739e-06
1.76739e-06
1.76739e-06
1.76739e-06
1.76739e-06
1.76739e-06
1.76739e-06
1.76739e-06
1.76739e-06
1.76739e-06
1.76739e-06
1.76739e-06
1.76739e-06
1.76739e-06