/*--------------------------------*- C++ -*----------------------------------*\
| =========                 |                                                 |
| \\      /  F ield         | OpenFOAM: The Open Source CFD Toolbox           |
|  \\    /   O peration     | Version:  2512                                  |
|   \\  /    A nd           | Website:  www.openfoam.com                      |
|    \\/     M anipulation  |                                                 |
\*---------------------------------------------------------------------------*/
FoamFile
{
    version     2.0;
    format      ascii;
    arch        "LSB;label=32;scalar=64";
    class       volScalarField;
    location    "0.001";
    object      p;
}
// * * * * * * * * * * * * * * * * * * * * * * * * * * * * * * * * * * * * * //

dimensions      [1 -1 -2 0 0 0 0];

internalField   nonuniform List<scalar> 
100000
(
0
-62.7171
-90.1431
-102.397
-109.175
-113.238
-115.731
-117.265
-118.157
-118.566
-118.581
-118.259
-117.634
-116.733
-115.574
-114.171
-112.536
-110.678
-108.604
-106.321
-103.833
-101.145
-98.2603
-95.1828
-91.9152
-88.46
-84.8194
-80.9953
-76.9894
-72.8033
-68.4382
-63.8956
-59.1764
-54.2817
-49.2122
-43.9686
-38.5512
-32.9598
-27.1918
-21.2524
-15.143
-8.86231
-2.41297
4.20158
10.9827
17.9325
25.0514
32.3391
39.7953
47.4197
55.212
63.172
71.2995
79.5944
88.0563
96.6852
105.481
114.443
123.572
132.867
142.329
151.957
161.751
171.71
181.836
192.127
202.584
213.207
223.995
234.948
246.067
257.351
268.8
280.414
292.194
304.139
316.249
328.525
340.967
353.574
366.347
379.286
392.39
405.66
419.095
432.696
446.463
460.395
474.492
488.755
503.184
517.778
532.537
547.462
562.553
577.808
593.229
608.815
624.567
640.484
656.566
672.814
689.226
705.804
722.547
739.456
756.529
773.767
791.171
808.739
826.473
844.371
862.435
880.663
899.056
917.614
936.337
955.225
974.278
993.496
1012.88
1032.43
1052.14
1072.02
1092.06
1112.27
1132.64
1153.18
1173.88
1194.74
1215.78
1236.97
1258.33
1279.86
1301.55
1323.4
1345.42
1367.6
1389.95
1412.46
1435.14
1457.98
1480.99
1504.16
1527.49
1550.99
1574.65
1598.48
1622.47
1646.62
1670.94
1695.42
1720.07
1744.88
1769.85
1794.99
1820.29
1845.75
1871.38
1897.18
1923.13
1949.25
1975.53
2001.98
2028.59
2055.36
2082.3
2109.4
2136.66
2164.08
2191.67
2219.42
2247.34
2275.42
2303.65
2332.06
2360.62
2389.35
2418.24
2447.29
2476.5
2505.88
2535.42
2565.12
2594.98
2625.01
2655.19
2685.54
2716.05
2746.72
2777.55
2808.55
2839.7
2871.02
2902.5
2934.14
2965.94
2997.9
3030.02
3062.3
3094.74
3127.34
3160.1
3193.03
3226.11
3259.35
3292.76
3326.32
3360.04
3393.92
3427.96
3462.16
3496.52
3531.04
3565.72
3600.55
3635.55
3670.7
3706.01
3741.48
3777.11
3812.89
3848.84
3884.94
3921.2
3957.61
3994.19
4030.92
4067.8
4104.85
4142.05
4179.41
4216.92
4254.59
4292.41
4330.4
4368.53
4406.83
4445.27
4483.88
4522.63
4561.55
4600.61
4639.84
4679.21
4718.74
4758.43
4798.26
4838.25
4878.4
4918.7
4959.15
4999.75
5040.51
5081.41
5122.47
5163.69
5205.05
5246.57
5288.23
5330.05
5372.02
5414.14
5456.41
5498.83
5541.39
5584.11
5626.98
5670
5713.17
5756.48
5799.95
5843.56
5887.32
5931.23
5975.28
6019.49
6063.84
6108.33
6152.98
6197.76
6242.7
6287.78
6333.01
6378.38
6423.9
6469.56
6515.36
6561.31
6607.4
6653.64
6700.02
6746.54
6793.21
6840.02
6886.97
6934.06
6981.29
7028.66
7076.18
7123.83
7171.63
7219.56
7267.64
7315.85
7364.2
7412.69
7461.32
7510.09
7558.99
7608.04
7657.22
7706.53
7755.98
7805.57
7855.29
7905.15
7955.14
8005.27
8055.53
8105.92
8156.45
8207.11
8257.9
8308.83
8359.89
8411.07
8462.39
8513.84
8565.42
8617.13
8668.97
8720.94
8773.04
8825.27
8877.62
8930.1
8982.71
9035.44
9088.3
9141.29
9194.4
9247.64
9301
9354.49
9408.1
9461.83
9515.69
9569.66
9623.76
9677.98
9732.33
9786.79
9841.37
9896.07
9950.89
10005.8
10060.9
10116.1
10171.4
10226.8
10282.3
10337.9
10393.7
10449.6
10505.6
10561.7
10617.9
10674.2
10730.6
10787.2
10843.9
10900.6
10957.5
11014.5
11071.6
11128.8
11186.2
11243.6
11301.1
11358.8
11416.5
11474.4
11532.3
11590.4
11648.6
11706.8
11765.2
11823.7
11882.3
11941
11999.7
12058.6
12117.6
12176.7
12235.9
12295.2
12354.5
12414
12473.6
12533.2
12593
12652.9
12712.8
12772.8
12833
12893.2
12953.5
13013.9
13074.4
13135
13195.7
13256.5
13317.3
13378.3
13439.3
13500.4
13561.6
13622.9
13684.3
13745.7
13807.2
13868.9
13930.6
13992.3
14054.2
14116.1
14178.2
14240.3
14302.4
14364.7
14427
14489.4
14551.9
14614.4
14677.1
14739.8
14802.5
14865.4
14928.3
14991.3
15054.3
15117.5
15180.7
15243.9
15307.2
15370.6
15434.1
15497.6
15561.2
15624.9
15688.6
15752.3
15816.2
15880.1
15944
16008
16072.1
16136.3
16200.4
16264.7
16329
16393.3
16457.7
16522.2
16586.7
16651.3
16715.9
16780.6
16845.3
16910.1
16974.9
17039.7
17104.6
17169.6
17234.6
17299.6
17364.7
17429.9
17495
17560.2
17625.5
17690.8
17756.1
17821.5
17886.9
17952.3
18017.8
18083.3
18148.9
18214.5
18280.1
18345.7
18411.4
18477.1
18542.9
18608.6
18674.4
18740.2
18806.1
18872
18937.9
19003.8
19069.7
19135.7
19201.7
19267.7
19333.7
19399.8
19465.8
19531.9
19598
19664.1
19730.3
19796.4
19862.6
19928.8
19994.9
20061.1
20127.3
20193.6
20259.8
20326
20392.2
20458.5
20524.7
20591
20657.2
20723.5
20789.8
20856
20922.3
20988.5
21054.8
21121
21187.3
21253.5
21319.8
21386
21452.3
21518.5
21584.7
21650.9
21717.1
21783.3
21849.4
21915.6
21981.7
22047.9
22114
22180.1
22246.2
22312.2
22378.3
22444.3
22510.3
22576.3
22642.3
22708.2
22774.1
22840
22905.9
22971.7
23037.5
23103.3
23169.1
23234.8
23300.5
23366.1
23431.8
23497.4
23562.9
23628.4
23693.9
23759.4
23824.8
23890.2
23955.5
24020.8
24086.1
24151.3
24216.4
24281.6
24346.6
24411.7
24476.7
24541.6
24606.5
24671.3
24736.1
24800.9
24865.6
24930.2
24994.8
25059.3
25123.8
25188.2
25252.6
25316.9
25381.1
25445.3
25509.4
25573.5
25637.5
25701.4
25765.3
25829.1
25892.8
25956.5
26020.1
26083.7
26147.1
26210.5
26273.9
26337.1
26400.3
26463.4
26526.5
26589.4
26652.3
26715.1
26777.8
26840.5
26903.1
26965.6
27028
27090.3
27152.5
27214.7
27276.8
27338.8
27400.7
27462.5
27524.2
27585.9
27647.4
27708.9
27770.2
27831.5
27892.7
27953.8
28014.8
28075.6
28136.4
28197.1
28257.8
28318.3
28378.7
28439
28499.2
28559.3
28619.2
28679.1
28738.9
28798.6
28858.2
28917.6
28977
29036.2
29095.4
29154.4
29213.3
29272.1
29330.8
29389.4
29447.8
29506.2
29564.4
29622.5
29680.5
29738.3
29796.1
29853.7
29911.2
29968.6
30025.8
30083
30140
30196.9
30253.6
30310.3
30366.8
30423.1
30479.4
30535.5
30591.5
30647.3
30703
30758.6
30814.1
30869.4
30924.5
30979.6
31034.5
31089.2
31143.9
31198.3
31252.7
31306.9
31360.9
31414.8
31468.6
31522.2
31575.7
31629.1
31682.2
31735.3
31788.2
31840.9
31893.5
31945.9
31998.2
32050.4
32102.3
32154.2
32205.8
32257.4
32308.7
32359.9
32411
32461.9
32512.6
32563.2
32613.6
32663.8
32713.9
32763.8
32813.6
32863.2
32912.6
32961.9
33011
33059.9
33108.7
33157.3
33205.7
33254
33302.1
33350
33397.7
33445.3
33492.7
33539.9
33587
33633.8
33680.5
33727.1
33773.4
33819.6
33865.6
33911.4
33957
34002.4
34047.7
34092.8
34137.7
34182.4
34226.9
34271.3
34315.5
34359.4
34403.2
34446.8
34490.2
34533.5
34576.5
34619.4
34662
34704.5
34746.8
34788.8
34830.7
34872.4
34913.9
34955.2
34996.4
35037.3
35078
35118.5
35158.8
35199
35238.9
35278.6
35318.1
35357.5
35396.6
35435.5
35474.2
35512.7
35551.1
35589.2
35627.1
35664.8
35702.3
35739.5
35776.6
35813.5
35850.2
35886.6
35922.9
35958.9
35994.7
36030.3
36065.7
36100.9
36135.9
36170.7
36205.2
36239.5
36273.7
36307.6
36341.3
36374.7
36408
36441
36473.8
36506.4
36538.8
36571
36602.9
36634.7
36666.2
36697.4
36728.5
36759.3
36790
36820.3
36850.5
36880.5
36910.2
36939.7
36968.9
36998
37026.8
37055.4
37083.7
37111.9
37139.8
37167.5
37194.9
37222.1
37249.1
37275.9
37302.4
37328.7
37354.7
37380.6
37406.2
37431.5
37456.6
37481.5
37506.2
37530.6
37554.8
37578.8
37602.5
37626
37649.2
37672.2
37695
37717.5
37739.8
37761.9
37783.7
37805.3
37826.6
37847.7
37868.5
37889.2
37909.5
37929.7
37949.5
37969.2
37988.6
38007.7
38026.7
38045.3
38063.8
38081.9
38099.9
38117.6
38135
38152.2
38169.2
38185.9
38202.4
38218.6
38234.5
38250.3
38265.7
38280.9
38295.9
38310.6
38325.1
38339.3
38353.3
38367.1
38380.5
38393.8
38406.7
38419.4
38431.9
38444.1
38456.1
38467.8
38479.3
38490.5
38501.4
38512.1
38522.6
38532.8
38542.7
38552.4
38561.9
38571
38580
38588.6
38597
38605.2
38613.1
38620.7
38628.1
38635.2
38642.1
38648.7
38655.1
38661.2
38667
38672.6
38678
38683
38687.8
38692.4
38696.7
38700.7
38704.5
38708
38711.3
38714.3
38717
38719.5
38721.7
38723.7
38725.4
38726.8
38728
38728.9
38729.6
38730
38730.1
38730
38729.6
38729
38728.1
38726.9
38725.5
38723.8
38721.8
38719.6
38717.1
38714.4
38711.4
38708.2
38704.6
38700.9
38696.8
38692.5
38688
38683.1
38678.1
38672.7
38667.1
38661.3
38655.1
38648.7
38642.1
38635.2
38628
38620.6
38613
38605
38596.8
38588.4
38579.7
38570.7
38561.5
38552
38542.3
38532.3
38522.1
38511.7
38500.9
38490
38478.8
38467.3
38455.6
38443.7
38431.5
38419.2
38406.6
-60.3828
-80.6733
-94.9404
-103.68
-109.317
-113.051
-115.525
-117.13
-118.1
-118.576
-118.643
-118.36
-117.765
-116.887
-115.745
-114.356
-112.732
-110.883
-108.816
-106.539
-104.056
-101.373
-98.4932
-95.42
-92.1562
-88.7047
-85.0674
-81.2465
-77.2435
-73.0602
-68.6978
-64.1575
-59.4405
-54.5479
-49.4805
-44.2394
-38.8254
-33.2392
-27.4843
-21.5499
-15.4451
-9.17148
-2.7281
3.8869
10.6721
17.6257
24.7475
32.0374
39.4952
47.1208
54.9142
62.875
71.0031
79.2985
87.7608
96.3901
105.186
114.149
123.278
132.573
142.035
151.663
161.457
171.416
181.542
191.834
202.291
212.913
223.701
234.655
245.774
257.058
268.507
280.121
291.901
303.845
315.956
328.232
340.673
353.28
366.053
378.992
392.096
405.366
418.801
432.402
446.168
460.101
474.198
488.461
502.89
517.484
532.243
547.168
562.258
577.514
592.935
608.521
624.273
640.19
656.272
672.519
688.932
705.51
722.253
739.162
756.235
773.473
790.877
808.445
826.179
844.077
862.141
880.369
898.762
917.32
936.043
954.931
973.984
993.202
1012.58
1032.13
1051.85
1071.72
1091.76
1111.97
1132.34
1152.88
1173.58
1194.45
1215.48
1236.68
1258.04
1279.56
1301.25
1323.11
1345.12
1367.31
1389.66
1412.17
1434.84
1457.69
1480.69
1503.86
1527.19
1550.69
1574.35
1598.18
1622.17
1646.33
1670.64
1695.13
1719.77
1744.58
1769.56
1794.69
1819.99
1845.46
1871.09
1896.88
1922.84
1948.96
1975.24
2001.69
2028.29
2055.07
2082
2109.1
2136.37
2163.79
2191.38
2219.13
2247.04
2275.12
2303.36
2331.76
2360.33
2389.05
2417.94
2447
2476.21
2505.59
2535.13
2564.83
2594.69
2624.71
2654.9
2685.25
2715.76
2746.43
2777.26
2808.25
2839.41
2870.73
2902.2
2933.84
2965.64
2997.6
3029.72
3062
3094.45
3127.05
3159.81
3192.73
3225.82
3259.06
3292.46
3326.03
3359.75
3393.63
3427.67
3461.87
3496.23
3530.75
3565.42
3600.26
3635.25
3670.41
3705.72
3741.19
3776.82
3812.6
3848.55
3884.65
3920.9
3957.32
3993.89
4030.62
4067.51
4104.56
4141.76
4179.11
4216.63
4254.3
4292.12
4330.1
4368.24
4406.53
4444.98
4483.58
4522.34
4561.26
4600.32
4639.54
4678.92
4718.45
4758.13
4797.97
4837.96
4878.11
4918.41
4958.86
4999.46
5040.22
5081.12
5122.18
5163.4
5204.76
5246.28
5287.94
5329.76
5371.73
5413.85
5456.12
5498.54
5541.11
5583.82
5626.69
5669.71
5712.88
5756.19
5799.66
5843.27
5887.03
5930.94
5974.99
6019.2
6063.55
6108.04
6152.69
6197.48
6242.41
6287.49
6332.72
6378.09
6423.61
6469.27
6515.07
6561.02
6607.12
6653.35
6699.73
6746.26
6792.92
6839.73
6886.68
6933.77
6981
7028.38
7075.89
7123.55
7171.34
7219.28
7267.35
7315.57
7363.92
7412.41
7461.04
7509.81
7558.71
7607.75
7656.93
7706.25
7755.7
7805.28
7855.01
7904.86
7954.86
8004.98
8055.24
8105.64
8156.17
8206.83
8257.62
8308.55
8359.6
8410.79
8462.11
8513.56
8565.14
8616.85
8668.69
8720.66
8772.76
8824.99
8877.34
8929.82
8982.43
9035.16
9088.03
9141.01
9194.12
9247.36
9300.72
9354.21
9407.82
9461.55
9515.41
9569.38
9623.48
9677.71
9732.05
9786.51
9841.09
9895.8
9950.62
10005.6
10060.6
10115.8
10171.1
10226.5
10282
10337.7
10393.4
10449.3
10505.3
10561.4
10617.6
10673.9
10730.4
10786.9
10843.6
10900.4
10957.3
11014.2
11071.4
11128.6
11185.9
11243.3
11300.9
11358.5
11416.2
11474.1
11532.1
11590.1
11648.3
11706.6
11765
11823.4
11882
11940.7
11999.5
12058.4
12117.3
12176.4
12235.6
12294.9
12354.3
12413.7
12473.3
12533
12592.7
12652.6
12712.5
12772.6
12832.7
12892.9
12953.3
13013.7
13074.2
13134.8
13195.4
13256.2
13317.1
13378
13439
13500.1
13561.3
13622.6
13684
13745.4
13807
13868.6
13930.3
13992.1
14053.9
14115.9
14177.9
14240
14302.2
14364.4
14426.7
14489.2
14551.6
14614.2
14676.8
14739.5
14802.3
14865.1
14928
14991
15054.1
15117.2
15180.4
15243.7
15307
15370.4
15433.8
15497.4
15560.9
15624.6
15688.3
15752.1
15815.9
15879.8
15943.8
16007.8
16071.9
16136
16200.2
16264.4
16328.7
16393.1
16457.5
16522
16586.5
16651
16715.7
16780.3
16845
16909.8
16974.6
17039.5
17104.4
17169.4
17234.4
17299.4
17364.5
17429.6
17494.8
17560
17625.3
17690.5
17755.9
17821.2
17886.7
17952.1
18017.6
18083.1
18148.6
18214.2
18279.8
18345.5
18411.2
18476.9
18542.6
18608.4
18674.2
18740
18805.8
18871.7
18937.6
19003.5
19069.5
19135.5
19201.4
19267.5
19333.5
19399.5
19465.6
19531.7
19597.8
19663.9
19730
19796.2
19862.3
19928.5
19994.7
20060.9
20127.1
20193.3
20259.5
20325.8
20392
20458.3
20524.5
20590.7
20657
20723.3
20789.5
20855.8
20922
20988.3
21054.6
21120.8
21187.1
21253.3
21319.6
21385.8
21452
21518.2
21584.5
21650.7
21716.9
21783
21849.2
21915.4
21981.5
22047.7
22113.8
22179.9
22246
22312
22378.1
22444.1
22510.1
22576.1
22642
22708
22773.9
22839.8
22905.6
22971.5
23037.3
23103.1
23168.8
23234.6
23300.2
23365.9
23431.5
23497.1
23562.7
23628.2
23693.7
23759.2
23824.6
23889.9
23955.3
24020.6
24085.8
24151
24216.2
24281.3
24346.4
24411.5
24476.4
24541.4
24606.3
24671.1
24735.9
24800.7
24865.3
24930
24994.6
25059.1
25123.6
25188
25252.4
25316.7
25380.9
25445.1
25509.2
25573.3
25637.3
25701.2
25765.1
25828.9
25892.6
25956.3
26019.9
26083.5
26146.9
26210.3
26273.7
26336.9
26400.1
26463.2
26526.3
26589.2
26652.1
26714.9
26777.6
26840.3
26902.9
26965.4
27027.8
27090.1
27152.3
27214.5
27276.6
27338.6
27400.5
27462.3
27524
27585.7
27647.2
27708.7
27770
27831.3
27892.5
27953.6
28014.6
28075.5
28136.3
28197
28257.6
28318.1
28378.5
28438.8
28499
28559.1
28619.1
28678.9
28738.7
28798.4
28858
28917.4
28976.8
29036
29095.2
29154.2
29213.1
29271.9
29330.6
29389.2
29447.6
29506
29564.2
29622.3
29680.3
29738.1
29795.9
29853.5
29911
29968.4
30025.7
30082.8
30139.8
30196.7
30253.4
30310.1
30366.6
30422.9
30479.2
30535.3
30591.3
30647.1
30702.8
30758.4
30813.9
30869.2
30924.4
30979.4
31034.3
31089.1
31143.7
31198.2
31252.5
31306.7
31360.8
31414.7
31468.4
31522.1
31575.5
31628.9
31682.1
31735.1
31788
31840.7
31893.3
31945.8
31998
32050.2
32102.2
32154
32205.7
32257.2
32308.5
32359.7
32410.8
32461.7
32512.4
32563
32613.4
32663.6
32713.7
32763.7
32813.4
32863
32912.4
32961.7
33010.8
33059.7
33108.5
33157.1
33205.5
33253.8
33301.9
33349.8
33397.5
33445.1
33492.5
33539.7
33586.8
33633.7
33680.4
33726.9
33773.2
33819.4
33865.4
33911.2
33956.8
34002.3
34047.5
34092.6
34137.5
34182.2
34226.8
34271.1
34315.3
34359.3
34403.1
34446.7
34490.1
34533.3
34576.3
34619.2
34661.8
34704.3
34746.6
34788.7
34830.6
34872.3
34913.8
34955.1
34996.2
35037.1
35077.8
35118.3
35158.7
35198.8
35238.7
35278.4
35318
35357.3
35396.4
35435.3
35474.1
35512.6
35550.9
35589
35626.9
35664.6
35702.1
35739.4
35776.5
35813.3
35850
35886.4
35922.7
35958.7
35994.5
36030.2
36065.6
36100.8
36135.7
36170.5
36205
36239.4
36273.5
36307.4
36341.1
36374.6
36407.8
36440.9
36473.7
36506.3
36538.7
36570.8
36602.8
36634.5
36666
36697.3
36728.3
36759.2
36789.8
36820.2
36850.4
36880.3
36910
36939.5
36968.8
36997.8
37026.6
37055.2
37083.6
37111.7
37139.6
37167.3
37194.7
37221.9
37248.9
37275.7
37302.2
37328.5
37354.6
37380.4
37406
37431.4
37456.5
37481.4
37506
37530.5
37554.6
37578.6
37602.3
37625.8
37649
37672.1
37694.8
37717.4
37739.6
37761.7
37783.5
37805.1
37826.4
37847.5
37868.4
37889
37909.4
37929.5
37949.4
37969
37988.4
38007.6
38026.5
38045.2
38063.6
38081.8
38099.7
38117.4
38134.9
38152.1
38169
38185.7
38202.2
38218.4
38234.4
38250.1
38265.6
38280.8
38295.8
38310.5
38325
38339.2
38353.2
38366.9
38380.4
38393.6
38406.6
38419.3
38431.8
38444
38455.9
38467.7
38479.1
38490.3
38501.3
38512
38522.4
38532.6
38542.6
38552.3
38561.7
38570.9
38579.8
38588.5
38596.9
38605
38612.9
38620.6
38628
38635.1
38642
38648.6
38654.9
38661
38666.9
38672.5
38677.8
38682.9
38687.7
38692.2
38696.5
38700.6
38704.3
38707.9
38711.1
38714.1
38716.9
38719.3
38721.6
38723.5
38725.2
38726.7
38727.8
38728.8
38729.4
38729.8
38730
38729.8
38729.4
38728.8
38727.9
38726.7
38725.3
38723.6
38721.7
38719.5
38717
38714.2
38711.3
38708
38704.5
38700.7
38696.7
38692.4
38687.8
38683
38677.9
38672.6
38667
38661.1
38655
38648.6
38641.9
38635
38627.9
38620.5
38612.8
38604.9
38596.7
38588.2
38579.5
38570.6
38561.3
38551.9
38542.2
38532.2
38522
38511.5
38500.8
38489.8
38478.6
38467.1
38455.4
38443.5
38431.4
38419
38406.4
-85.345
-92.535
-99.6523
-105.608
-110.133
-113.41
-115.71
-117.259
-118.217
-118.697
-118.772
-118.498
-117.911
-117.04
-115.904
-114.52
-112.901
-111.055
-108.992
-106.717
-104.237
-101.556
-98.6779
-95.6062
-92.3438
-88.8933
-85.2569
-81.4367
-77.4344
-73.2514
-68.8893
-64.3491
-59.6319
-54.7388
-49.6705
-44.4277
-39.0112
-33.422
-27.6607
-21.7331
-15.6329
-9.36152
-2.91939
3.69358
10.4766
17.4289
24.5497
31.8389
39.2962
46.9214
54.7143
62.6748
70.8026
79.0976
87.5597
96.1886
104.984
113.947
123.076
132.371
141.832
151.46
161.254
171.213
181.339
191.63
202.087
212.71
223.498
234.452
245.571
256.855
268.304
279.919
291.699
303.645
315.756
328.032
340.474
353.082
365.855
378.794
391.898
405.169
418.604
432.205
445.972
459.904
474.002
488.265
502.694
517.288
532.048
546.973
562.063
577.319
592.74
608.326
624.078
639.995
656.078
672.325
688.738
705.316
722.059
738.967
756.041
773.279
790.683
808.251
825.985
843.884
861.947
880.176
898.569
917.127
935.85
954.739
973.792
993.01
1012.39
1031.94
1051.65
1071.53
1091.57
1111.78
1132.15
1152.69
1173.39
1194.26
1215.29
1236.49
1257.85
1279.37
1301.06
1322.92
1344.93
1367.12
1389.47
1411.98
1434.66
1457.5
1480.5
1503.67
1527.01
1550.5
1574.17
1597.99
1621.98
1646.14
1670.45
1694.94
1719.58
1744.39
1769.37
1794.51
1819.81
1845.27
1870.9
1896.69
1922.65
1948.77
1975.05
2001.5
2028.11
2054.88
2081.82
2108.92
2136.18
2163.6
2191.19
2218.94
2246.86
2274.94
2303.18
2331.58
2360.14
2388.87
2417.76
2446.81
2476.03
2505.4
2534.94
2564.64
2594.5
2624.53
2654.72
2685.06
2715.57
2746.24
2777.08
2808.07
2839.23
2870.54
2902.02
2933.66
2965.46
2997.42
3029.54
3061.82
3094.26
3126.87
3159.63
3192.55
3225.64
3258.88
3292.28
3325.84
3359.57
3393.45
3427.49
3461.69
3496.05
3530.57
3565.24
3600.08
3635.07
3670.23
3705.54
3741.01
3776.64
3812.42
3848.37
3884.47
3920.73
3957.14
3993.72
4030.45
4067.33
4104.38
4141.58
4178.94
4216.45
4254.12
4291.95
4329.93
4368.06
4406.36
4444.81
4483.41
4522.17
4561.08
4600.15
4639.37
4678.75
4718.28
4757.96
4797.8
4837.79
4877.93
4918.23
4958.68
4999.29
5040.04
5080.95
5122.01
5163.22
5204.59
5246.1
5287.77
5329.59
5371.56
5413.67
5455.94
5498.36
5540.93
5583.65
5626.52
5669.54
5712.71
5756.02
5799.49
5843.1
5886.86
5930.77
5974.82
6019.03
6063.38
6107.87
6152.52
6197.31
6242.24
6287.32
6332.55
6377.92
6423.44
6469.1
6514.91
6560.86
6606.95
6653.19
6699.57
6746.09
6792.76
6839.56
6886.51
6933.6
6980.84
7028.21
7075.73
7123.38
7171.18
7219.11
7267.19
7315.4
7363.75
7412.24
7460.87
7509.64
7558.55
7607.59
7656.77
7706.08
7755.53
7805.12
7854.84
7904.7
7954.69
8004.82
8055.08
8105.48
8156
8206.67
8257.46
8308.38
8359.44
8410.63
8461.95
8513.4
8564.98
8616.69
8668.53
8720.5
8772.6
8824.82
8877.18
8929.66
8982.27
9035
9087.86
9140.85
9193.96
9247.2
9300.56
9354.05
9407.66
9461.39
9515.25
9569.23
9623.33
9677.55
9731.89
9786.35
9840.94
9895.64
9950.46
10005.4
10060.5
10115.6
10170.9
10226.3
10281.9
10337.5
10393.3
10449.1
10505.1
10561.2
10617.4
10673.8
10730.2
10786.8
10843.4
10900.2
10957.1
11014.1
11071.2
11128.4
11185.7
11243.2
11300.7
11358.3
11416.1
11474
11531.9
11590
11648.1
11706.4
11764.8
11823.3
11881.9
11940.5
11999.3
12058.2
12117.2
12176.3
12235.5
12294.7
12354.1
12413.6
12473.2
12532.8
12592.6
12652.4
12712.4
12772.4
12832.6
12892.8
12953.1
13013.5
13074
13134.6
13195.3
13256
13316.9
13377.8
13438.9
13500
13561.2
13622.5
13683.8
13745.3
13806.8
13868.4
13930.1
13991.9
14053.8
14115.7
14177.7
14239.8
14302
14364.3
14426.6
14489
14551.5
14614
14676.7
14739.4
14802.1
14865
14927.9
14990.9
15053.9
15117.1
15180.3
15243.5
15306.8
15370.2
15433.7
15497.2
15560.8
15624.5
15688.2
15751.9
15815.8
15879.7
15943.6
16007.6
16071.7
16135.9
16200
16264.3
16328.6
16392.9
16457.4
16521.8
16586.3
16650.9
16715.5
16780.2
16844.9
16909.7
16974.5
17039.3
17104.3
17169.2
17234.2
17299.2
17364.3
17429.5
17494.6
17559.8
17625.1
17690.4
17755.7
17821.1
17886.5
17952
18017.4
18082.9
18148.5
18214.1
18279.7
18345.3
18411
18476.7
18542.5
18608.2
18674
18739.9
18805.7
18871.6
18937.5
19003.4
19069.3
19135.3
19201.3
19267.3
19333.3
19399.4
19465.5
19531.5
19597.6
19663.8
19729.9
19796
19862.2
19928.4
19994.6
20060.8
20127
20193.2
20259.4
20325.6
20391.9
20458.1
20524.4
20590.6
20656.9
20723.1
20789.4
20855.6
20921.9
20988.2
21054.4
21120.7
21186.9
21253.2
21319.4
21385.6
21451.9
21518.1
21584.3
21650.5
21716.7
21782.9
21849.1
21915.2
21981.4
22047.5
22113.6
22179.7
22245.8
22311.9
22377.9
22443.9
22509.9
22575.9
22641.9
22707.8
22773.7
22839.6
22905.5
22971.3
23037.1
23102.9
23168.7
23234.4
23300.1
23365.8
23431.4
23497
23562.5
23628.1
23693.6
23759
23824.4
23889.8
23955.1
24020.4
24085.7
24150.9
24216.1
24281.2
24346.3
24411.3
24476.3
24541.2
24606.1
24671
24735.8
24800.5
24865.2
24929.8
24994.4
25058.9
25123.4
25187.8
25252.2
25316.5
25380.7
25444.9
25509.1
25573.1
25637.1
25701.1
25764.9
25828.7
25892.5
25956.2
26019.8
26083.3
26146.8
26210.2
26273.5
26336.8
26399.9
26463.1
26526.1
26589.1
26651.9
26714.8
26777.5
26840.1
26902.7
26965.2
27027.6
27089.9
27152.2
27214.3
27276.4
27338.4
27400.3
27462.1
27523.9
27585.5
27647
27708.5
27769.9
27831.1
27892.3
27953.4
28014.4
28075.3
28136.1
28196.8
28257.4
28317.9
28378.3
28438.6
28498.8
28558.9
28618.9
28678.8
28738.6
28798.2
28857.8
28917.3
28976.6
29035.9
29095
29154
29212.9
29271.7
29330.4
29389
29447.5
29505.8
29564
29622.1
29680.1
29738
29795.7
29853.4
29910.9
29968.2
30025.5
30082.6
30139.6
30196.5
30253.3
30309.9
30366.4
30422.8
30479
30535.1
30591.1
30647
30702.7
30758.3
30813.7
30869
30924.2
30979.2
31034.1
31088.9
31143.5
31198
31252.3
31306.5
31360.6
31414.5
31468.3
31521.9
31575.4
31628.7
31681.9
31734.9
31787.8
31840.6
31893.1
31945.6
31997.9
32050
32102
32153.8
32205.5
32257
32308.4
32359.6
32410.6
32461.5
32512.2
32562.8
32613.2
32663.5
32713.6
32763.5
32813.2
32862.8
32912.3
32961.5
33010.6
33059.6
33108.3
33156.9
33205.4
33253.6
33301.7
33349.6
33397.4
33444.9
33492.3
33539.6
33586.6
33633.5
33680.2
33726.7
33773.1
33819.2
33865.2
33911
33956.6
34002.1
34047.4
34092.4
34137.3
34182.1
34226.6
34270.9
34315.1
34359.1
34402.9
34446.5
34489.9
34533.1
34576.2
34619
34661.7
34704.1
34746.4
34788.5
34830.4
34872.1
34913.6
34954.9
34996
35036.9
35077.6
35118.2
35158.5
35198.6
35238.5
35278.3
35317.8
35357.1
35396.2
35435.2
35473.9
35512.4
35550.7
35588.8
35626.7
35664.4
35701.9
35739.2
35776.3
35813.1
35849.8
35886.3
35922.5
35958.5
35994.4
36030
36065.4
36100.6
36135.5
36170.3
36204.9
36239.2
36273.3
36307.2
36340.9
36374.4
36407.6
36440.7
36473.5
36506.1
36538.5
36570.6
36602.6
36634.3
36665.8
36697.1
36728.1
36759
36789.6
36820
36850.2
36880.1
36909.8
36939.3
36968.6
36997.6
37026.4
37055
37083.4
37111.5
37139.4
37167.1
37194.5
37221.8
37248.7
37275.5
37302
37328.3
37354.4
37380.2
37405.8
37431.2
37456.3
37481.2
37505.8
37530.3
37554.5
37578.4
37602.1
37625.6
37648.9
37671.9
37694.6
37717.2
37739.5
37761.5
37783.3
37804.9
37826.2
37847.3
37868.2
37888.8
37909.2
37929.3
37949.2
37968.8
37988.2
38007.4
38026.3
38045
38063.4
38081.6
38099.5
38117.2
38134.7
38151.9
38168.8
38185.5
38202
38218.2
38234.2
38249.9
38265.4
38280.6
38295.6
38310.3
38324.8
38339
38353
38366.7
38380.2
38393.4
38406.4
38419.1
38431.6
38443.8
38455.7
38467.5
38478.9
38490.1
38501.1
38511.8
38522.2
38532.4
38542.4
38552.1
38561.5
38570.7
38579.6
38588.3
38596.7
38604.8
38612.7
38620.4
38627.8
38634.9
38641.8
38648.4
38654.7
38660.8
38666.7
38672.3
38677.6
38682.7
38687.5
38692
38696.3
38700.4
38704.1
38707.7
38710.9
38713.9
38716.7
38719.1
38721.4
38723.3
38725
38726.5
38727.6
38728.6
38729.2
38729.6
38729.7
38729.6
38729.2
38728.6
38727.7
38726.5
38725.1
38723.4
38721.5
38719.2
38716.8
38714
38711
38707.8
38704.3
38700.5
38696.5
38692.2
38687.6
38682.8
38677.7
38672.3
38666.7
38660.9
38654.8
38648.4
38641.7
38634.8
38627.7
38620.3
38612.6
38604.6
38596.5
38588
38579.3
38570.3
38561.1
38551.7
38541.9
38532
38521.7
38511.3
38500.5
38489.6
38478.4
38466.9
38455.2
38443.3
38431.1
38418.7
38406.1
-98.6592
-101.401
-104.932
-108.714
-112.006
-114.589
-116.499
-117.825
-118.654
-119.055
-119.082
-118.776
-118.168
-117.281
-116.135
-114.743
-113.117
-111.267
-109.2
-106.922
-104.44
-101.756
-98.8765
-95.8032
-92.5395
-89.0879
-85.4505
-81.6294
-77.6262
-73.4426
-69.0798
-64.5391
-59.8215
-54.9281
-49.8597
-44.6171
-39.2012
-33.6126
-27.8525
-21.9223
-15.8211
-9.54932
-3.10696
3.50571
10.2882
17.2399
24.3604
31.6494
39.1065
46.7315
54.5243
62.4847
70.6124
78.9073
87.3692
95.9981
104.794
113.756
122.885
132.18
141.641
151.269
161.062
171.022
181.147
191.439
201.896
212.518
223.307
234.26
245.38
256.664
268.114
279.729
291.51
303.456
315.567
327.844
340.287
352.895
365.669
378.608
391.713
404.983
418.419
432.021
445.788
459.72
473.818
488.082
502.51
517.105
531.864
546.79
561.88
577.136
592.557
608.144
623.895
639.812
655.895
672.142
688.555
705.133
721.876
738.785
755.858
773.097
790.5
808.069
825.803
843.702
861.765
879.994
898.387
916.946
935.669
954.557
973.611
992.829
1012.21
1031.76
1051.47
1071.35
1091.39
1111.6
1131.97
1152.51
1173.21
1194.08
1215.11
1236.31
1257.67
1279.19
1300.88
1322.74
1344.76
1366.94
1389.29
1411.8
1434.48
1457.32
1480.32
1503.49
1526.83
1550.32
1573.99
1597.81
1621.8
1645.96
1670.28
1694.76
1719.41
1744.22
1769.19
1794.33
1819.63
1845.09
1870.72
1896.52
1922.47
1948.59
1974.88
2001.32
2027.93
2054.7
2081.64
2108.74
2136
2163.43
2191.02
2218.77
2246.68
2274.76
2303
2331.4
2359.97
2388.69
2417.58
2446.64
2475.85
2505.23
2534.77
2564.47
2594.33
2624.35
2654.54
2684.89
2715.4
2746.07
2776.9
2807.9
2839.05
2870.37
2901.85
2933.49
2965.29
2997.25
3029.37
3061.65
3094.09
3126.69
3159.46
3192.38
3225.46
3258.71
3292.11
3325.67
3359.39
3393.28
3427.32
3461.52
3495.88
3530.39
3565.07
3599.91
3634.9
3670.06
3705.37
3740.84
3776.47
3812.25
3848.2
3884.3
3920.56
3956.97
3993.55
4030.28
4067.16
4104.21
4141.41
4178.77
4216.28
4253.95
4291.78
4329.76
4367.89
4406.19
4444.64
4483.24
4522
4560.91
4599.98
4639.2
4678.58
4718.11
4757.79
4797.63
4837.62
4877.76
4918.06
4958.51
4999.12
5039.87
5080.78
5121.84
5163.05
5204.42
5245.93
5287.6
5329.42
5371.39
5413.51
5455.78
5498.2
5540.77
5583.49
5626.35
5669.37
5712.54
5755.86
5799.32
5842.93
5886.69
5930.6
5974.66
6018.86
6063.21
6107.71
6152.35
6197.14
6242.08
6287.16
6332.39
6377.76
6423.27
6468.94
6514.74
6560.69
6606.78
6653.02
6699.4
6745.92
6792.59
6839.4
6886.35
6933.44
6980.67
7028.05
7075.56
7123.22
7171.01
7218.95
7267.02
7315.24
7363.59
7412.08
7460.71
7509.48
7558.38
7607.42
7656.6
7705.92
7755.37
7804.96
7854.68
7904.54
7954.53
8004.66
8054.92
8105.31
8155.84
8206.5
8257.3
8308.22
8359.28
8410.47
8461.79
8513.24
8564.82
8616.53
8668.37
8720.34
8772.44
8824.66
8877.02
8929.5
8982.11
9034.84
9087.7
9140.69
9193.8
9247.04
9300.4
9353.89
9407.5
9461.23
9515.09
9569.07
9623.17
9677.39
9731.73
9786.19
9840.78
9895.48
9950.3
10005.2
10060.3
10115.5
10170.8
10226.2
10281.7
10337.4
10393.1
10449
10505
10561.1
10617.3
10673.6
10730.1
10786.6
10843.3
10900.1
10956.9
11013.9
11071
11128.3
11185.6
11243
11300.5
11358.2
11415.9
11473.8
11531.8
11589.8
11648
11706.3
11764.6
11823.1
11881.7
11940.4
11999.2
12058.1
12117
12176.1
12235.3
12294.6
12354
12413.4
12473
12532.7
12592.4
12652.3
12712.2
12772.3
12832.4
12892.6
12952.9
13013.4
13073.9
13134.4
13195.1
13255.9
13316.7
13377.7
13438.7
13499.8
13561
13622.3
13683.7
13745.1
13806.7
13868.3
13930
13991.8
14053.6
14115.6
14177.6
14239.7
14301.9
14364.1
14426.4
14488.8
14551.3
14613.9
14676.5
14739.2
14802
14864.8
14927.7
14990.7
15053.8
15116.9
15180.1
15243.4
15306.7
15370.1
15433.5
15497.1
15560.6
15624.3
15688
15751.8
15815.6
15879.5
15943.5
16007.5
16071.6
16135.7
16199.9
16264.1
16328.4
16392.8
16457.2
16521.7
16586.2
16650.7
16715.4
16780
16844.7
16909.5
16974.3
17039.2
17104.1
17169
17234
17299.1
17364.2
17429.3
17494.5
17559.7
17624.9
17690.2
17755.6
17820.9
17886.3
17951.8
18017.3
18082.8
18148.3
18213.9
18279.5
18345.2
18410.9
18476.6
18542.3
18608.1
18673.9
18739.7
18805.5
18871.4
18937.3
19003.2
19069.2
19135.1
19201.1
19267.1
19333.2
19399.2
19465.3
19531.4
19597.5
19663.6
19729.7
19795.9
19862
19928.2
19994.4
20060.6
20126.8
20193
20259.2
20325.5
20391.7
20457.9
20524.2
20590.4
20656.7
20723
20789.2
20855.5
20921.7
20988
21054.3
21120.5
21186.8
21253
21319.2
21385.5
21451.7
21517.9
21584.2
21650.4
21716.6
21782.7
21848.9
21915.1
21981.2
22047.3
22113.5
22179.6
22245.6
22311.7
22377.7
22443.8
22509.8
22575.8
22641.7
22707.7
22773.6
22839.5
22905.3
22971.2
23037
23102.8
23168.5
23234.2
23299.9
23365.6
23431.2
23496.8
23562.4
23627.9
23693.4
23758.8
23824.3
23889.6
23955
24020.3
24085.5
24150.7
24215.9
24281
24346.1
24411.1
24476.1
24541.1
24606
24670.8
24735.6
24800.3
24865
24929.7
24994.2
25058.8
25123.2
25187.7
25252
25316.3
25380.6
25444.8
25508.9
25572.9
25636.9
25700.9
25764.8
25828.6
25892.3
25956
26019.6
26083.1
26146.6
26210
26273.3
26336.6
26399.8
26462.9
26525.9
26588.9
26651.8
26714.6
26777.3
26840
26902.5
26965
27027.4
27089.8
27152
27214.2
27276.2
27338.2
27400.1
27461.9
27523.7
27585.3
27646.9
27708.3
27769.7
27831
27892.1
27953.2
28014.2
28075.1
28135.9
28196.6
28257.2
28317.7
28378.1
28438.4
28498.6
28558.7
28618.7
28678.6
28738.4
28798.1
28857.6
28917.1
28976.4
29035.7
29094.8
29153.9
29212.8
29271.6
29330.2
29388.8
29447.3
29505.6
29563.8
29621.9
29679.9
29737.8
29795.5
29853.2
29910.7
29968.1
30025.3
30082.4
30139.5
30196.3
30253.1
30309.7
30366.2
30422.6
30478.8
30534.9
30590.9
30646.8
30702.5
30758.1
30813.5