/*--------------------------------*- C++ -*----------------------------------*\
| =========                 |                                                 |
| \\      /  F ield         | OpenFOAM: The Open Source CFD Toolbox           |
|  \\    /   O peration     | Version:  2512                                  |
|   \\  /    A nd           | Website:  www.openfoam.com                      |
|    \\/     M anipulation  |                                                 |
\*---------------------------------------------------------------------------*/
FoamFile
{
    version     2.0;
    format      ascii;
    arch        "LSB;label=32;scalar=64";
    class       volScalarField;
    location    "0.001";
    object      p_rgh;
}
// * * * * * * * * * * * * * * * * * * * * * * * * * * * * * * * * * * * * * //

dimensions      [1 -1 -2 0 0 0 0];

internalField   nonuniform List<scalar> 
100000
(
180489
180426
180399
180386
180380
180376
180373
180372
180371
180370
180370
180371
180371
180372
180373
180375
180376
180378
180380
180382
180385
180388
180391
180394
180397
180400
180404
180408
180412
180416
180420
180425
180430
180435
180440
180445
180450
180456
180462
180468
180474
180480
180486
180493
180500
180507
180514
180521
180529
180536
180544
180552
180560
180568
180577
180585
180594
180603
180612
180622
180631
180641
180651
180661
180671
180681
180691
180702
180713
180724
180735
180746
180758
180769
180781
180793
180805
180817
180830
180842
180855
180868
180881
180894
180908
180921
180935
180949
180963
180978
180992
181007
181021
181036
181051
181067
181082
181098
181113
181129
181145
181162
181178
181195
181211
181228
181245
181263
181280
181298
181315
181333
181351
181369
181388
181406
181425
181444
181463
181482
181502
181521
181541
181561
181581
181601
181621
181642
181663
181684
181705
181726
181747
181769
181790
181812
181834
181856
181879
181901
181924
181947
181970
181993
182016
182040
182063
182087
182111
182135
182160
182184
182209
182234
182259
182284
182309
182335
182360
182386
182412
182438
182464
182491
182517
182544
182571
182598
182625
182653
182680
182708
182736
182764
182792
182821
182849
182878
182907
182936
182965
182995
183024
183054
183084
183114
183144
183174
183205
183236
183266
183297
183328
183360
183391
183423
183455
183487
183519
183551
183584
183616
183649
183682
183715
183748
183782
183815
183849
183883
183917
183951
183985
184020
184055
184089
184124
184159
184195
184230
184266
184302
184338
184374
184410
184446
184483
184520
184557
184594
184631
184668
184706
184743
184781
184819
184857
184896
184934
184973
185011
185050
185089
185129
185168
185208
185247
185287
185327
185367
185407
185448
185489
185529
185570
185611
185652
185694
185735
185777
185819
185861
185903
185945
185988
186030
186073
186116
186159
186202
186245
186289
186332
186376
186420
186464
186508
186553
186597
186642
186687
186731
186777
186822
186867
186913
186958
187004
187050
187096
187142
187189
187235
187282
187329
187376
187423
187470
187517
187565
187613
187660
187708
187756
187805
187853
187901
187950
187999
188048
188097
188146
188195
188245
188294
188344
188394
188444
188494
188544
188595
188645
188696
188747
188798
188849
188900
188951
189003
189054
189106
189158
189210
189262
189314
189366
189419
189472
189524
189577
189630
189683
189736
189790
189843
189897
189951
190004
190058
190113
190167
190221
190276
190330
190385
190440
190495
190550
190605
190660
190716
190771
190827
190882
190938
190994
191050
191107
191163
191219
191276
191333
191389
191446
191503
191560
191618
191675
191732
191790
191848
191905
191963
192021
192079
192137
192196
192254
192312
192371
192430
192489
192547
192606
192665
192725
192784
192843
192903
192962
193022
193082
193142
193202
193262
193322
193382
193442
193503
193563
193624
193684
193745
193806
193867
193928
193989
194050
194112
194173
194235
194296
194358
194419
194481
194543
194605
194667
194729
194791
194853
194916
194978
195041
195103
195166
195229
195291
195354
195417
195480
195543
195606
195669
195733
195796
195859
195923
195986
196050
196114
196177
196241
196305
196369
196433
196497
196561
196625
196689
196753
196818
196882
196947
197011
197076
197140
197205
197269
197334
197399
197464
197529
197593
197658
197723
197788
197854
197919
197984
198049
198114
198180
198245
198310
198376
198441
198507
198572
198638
198703
198769
198835
198900
198966
199032
199097
199163
199229
199295
199361
199427
199493
199559
199624
199690
199756
199823
199889
199955
200021
200087
200153
200219
200285
200351
200418
200484
200550
200616
200682
200749
200815
200881
200947
201014
201080
201146
201212
201279
201345
201411
201477
201544
201610
201676
201742
201809
201875
201941
202007
202073
202140
202206
202272
202338
202404
202471
202537
202603
202669
202735
202801
202867
202933
202999
203065
203131
203197
203263
203329
203395
203460
203526
203592
203658
203724
203789
203855
203921
203986
204052
204117
204183
204248
204314
204379
204444
204510
204575
204640
204705
204770
204835
204900
204965
205030
205095
205160
205225
205290
205354
205419
205484
205548
205613
205677
205741
205806
205870
205934
205998
206062
206126
206190
206254
206318
206382
206445
206509
206572
206636
206699
206763
206826
206889
206952
207015
207078
207141
207204
207267
207329
207392
207454
207517
207579
207641
207703
207766
207828
207889
207951
208013
208075
208136
208198
208259
208320
208381
208443
208504
208564
208625
208686
208747
208807
208867
208928
208988
209048
209108
209168
209228
209287
209347
209406
209466
209525
209584
209643
209702
209761
209820
209878
209937
209995
210053
210111
210169
210227
210285
210342
210400
210457
210515
210572
210629
210686
210742
210799
210856
210912
210968
211024
211080
211136
211192
211247
211303
211358
211413
211468
211523
211578
211633
211687
211741
211796
211850
211904
211957
212011
212065
212118
212171
212224
212277
212330
212382
212435
212487
212539
212591
212643
212695
212746
212798
212849
212900
212951
213001
213052
213102
213153
213203
213253
213302
213352
213401
213451
213500
213549
213597
213646
213695
213743
213791
213839
213887
213934
213981
214029
214076
214123
214169
214216
214262
214308
214354
214400
214446
214491
214537
214582
214626
214671
214716
214760
214804
214848
214892
214936
214979
215022
215065
215108
215151
215193
215236
215278
215320
215361
215403
215444
215485
215526
215567
215607
215648
215688
215728
215767
215807
215846
215885
215924
215963
216002
216040
216078
216116
216154
216191
216228
216265
216302
216339
216375
216412
216448
216484
216519
216555
216590
216625
216659
216694
216728
216762
216796
216830
216864
216897
216930
216963
216995
217028
217060
217092
217123
217155
217186
217217
217248
217279
217309
217339
217369
217399
217428
217458
217487
217516
217544
217573
217601
217629
217656
217684
217711
217738
217765
217791
217817
217844
217869
217895
217920
217945
217970
217995
218019
218044
218068
218091
218115
218138
218161
218184
218206
218229
218251
218272
218294
218315
218336
218357
218378
218398
218418
218438
218458
218477
218497
218515
218534
218553
218571
218589
218606
218624
218641
218658
218675
218691
218707
218723
218739
218755
218770
218785
218799
218814
218828
218842
218856
218869
218883
218896
218908
218921
218933
218945
218957
218968
218979
218990
219001
219011
219022
219032
219041
219051
219060
219069
219077
219086
219094
219102
219110
219117
219124
219131
219138
219144
219150
219156
219161
219167
219172
219177
219181
219185
219190
219193
219197
219200
219203
219206
219208
219211
219212
219214
219216
219217
219218
219218
219219
219219
219219
219218
219218
219217
219216
219214
219213
219211
219208
219206
219203
219200
219197
219193
219190
219186
219181
219177
219172
219167
219162
219156
219150
219144
219138
219131
219124
219117
219109
219102
219094
219086
219077
219068
219060
219050
219041
219031
219021
219011
219000
218990
218979
218968
218956
218944
218932
218920
218908
218895
180429
180408
180394
180385
180380
180376
180373
180372
180371
180370
180370
180371
180371
180372
180373
180375
180376
180378
180380
180382
180385
180388
180390
180394
180397
180400
180404
180408
180412
180416
180420
180425
180430
180434
180440
180445
180450
180456
180461
180467
180474
180480
180486
180493
180500
180507
180514
180521
180528
180536
180544
180552
180560
180568
180577
180585
180594
180603
180612
180622
180631
180641
180650
180660
180671
180681
180691
180702
180713
180724
180735
180746
180757
180769
180781
180793
180805
180817
180830
180842
180855
180868
180881
180894
180908
180921
180935
180949
180963
180977
180992
181006
181021
181036
181051
181066
181082
181098
181113
181129
181145
181162
181178
181194
181211
181228
181245
181262
181280
181297
181315
181333
181351
181369
181388
181406
181425
181444
181463
181482
181502
181521
181541
181561
181581
181601
181621
181642
181663
181683
181704
181726
181747
181769
181790
181812
181834
181856
181879
181901
181924
181947
181970
181993
182016
182040
182063
182087
182111
182135
182160
182184
182209
182234
182259
182284
182309
182334
182360
182386
182412
182438
182464
182491
182517
182544
182571
182598
182625
182653
182680
182708
182736
182764
182792
182821
182849
182878
182907
182936
182965
182995
183024
183054
183084
183114
183144
183174
183205
183235
183266
183297
183328
183360
183391
183423
183455
183487
183519
183551
183583
183616
183649
183682
183715
183748
183781
183815
183849
183883
183917
183951
183985
184020
184054
184089
184124
184159
184195
184230
184266
184302
184338
184374
184410
184446
184483
184520
184556
184594
184631
184668
184706
184743
184781
184819
184857
184896
184934
184973
185011
185050
185089
185129
185168
185207
185247
185287
185327
185367
185407
185448
185488
185529
185570
185611
185652
185694
185735
185777
185819
185861
185903
185945
185988
186030
186073
186116
186159
186202
186245
186289
186332
186376
186420
186464
186508
186553
186597
186642
186686
186731
186776
186822
186867
186913
186958
187004
187050
187096
187142
187189
187235
187282
187329
187376
187423
187470
187517
187565
187613
187660
187708
187756
187805
187853
187901
187950
187999
188048
188097
188146
188195
188245
188294
188344
188394
188444
188494
188544
188595
188645
188696
188747
188798
188849
188900
188951
189003
189054
189106
189158
189210
189262
189314
189366
189419
189471
189524
189577
189630
189683
189736
189790
189843
189897
189951
190004
190058
190112
190167
190221
190275
190330
190385
190440
190495
190550
190605
190660
190715
190771
190827
190882
190938
190994
191050
191107
191163
191219
191276
191333
191389
191446
191503
191560
191618
191675
191732
191790
191847
191905
191963
192021
192079
192137
192196
192254
192312
192371
192430
192488
192547
192606
192665
192725
192784
192843
192903
192962
193022
193082
193142
193202
193262
193322
193382
193442
193503
193563
193624
193684
193745
193806
193867
193928
193989
194050
194112
194173
194234
194296
194358
194419
194481
194543
194605
194667
194729
194791
194853
194916
194978
195041
195103
195166
195228
195291
195354
195417
195480
195543
195606
195669
195733
195796
195859
195923
195986
196050
196114
196177
196241
196305
196369
196433
196497
196561
196625
196689
196753
196818
196882
196946
197011
197075
197140
197205
197269
197334
197399
197464
197528
197593
197658
197723
197788
197853
197919
197984
198049
198114
198180
198245
198310
198376
198441
198507
198572
198638
198703
198769
198834
198900
198966
199032
199097
199163
199229
199295
199361
199427
199493
199558
199624
199690
199756
199822
199889
199955
200021
200087
200153
200219
200285
200351
200418
200484
200550
200616
200682
200749
200815
200881
200947
201013
201080
201146
201212
201279
201345
201411
201477
201544
201610
201676
201742
201809
201875
201941
202007
202073
202140
202206
202272
202338
202404
202471
202537
202603
202669
202735
202801
202867
202933
202999
203065
203131
203197
203263
203329
203395
203460
203526
203592
203658
203724
203789
203855
203921
203986
204052
204117
204183
204248
204314
204379
204444
204510
204575
204640
204705
204770
204835
204900
204965
205030
205095
205160
205225
205290
205354
205419
205484
205548
205613
205677
205741
205806
205870
205934
205998
206062
206126
206190
206254
206318
206382
206445
206509
206572
206636
206699
206763
206826
206889
206952
207015
207078
207141
207204
207267
207329
207392
207454
207517
207579
207641
207703
207766
207828
207889
207951
208013
208075
208136
208198
208259
208320
208381
208443
208504
208564
208625
208686
208747
208807
208867
208928
208988
209048
209108
209168
209228
209287
209347
209406
209466
209525
209584
209643
209702
209761
209820
209878
209937
209995
210053
210111
210169
210227
210285
210342
210400
210457
210515
210572
210629
210686
210742
210799
210856
210912
210968
211024
211080
211136
211192
211247
211303
211358
211413
211468
211523
211578
211633
211687
211741
211796
211850
211904
211957
212011
212065
212118
212171
212224
212277
212330
212382
212435
212487
212539
212591
212643
212695
212746
212798
212849
212900
212951
213001
213052
213102
213153
213203
213253
213302
213352
213401
213451
213500
213549
213597
213646
213695
213743
213791
213839
213887
213934
213981
214029
214076
214123
214169
214216
214262
214308
214354
214400
214446
214491
214537
214582
214627
214671
214716
214760
214804
214848
214892
214936
214979
215022
215065
215108
215151
215193
215236
215278
215320
215361
215403
215444
215485
215526
215567
215607
215648
215688
215728
215767
215807
215846
215885
215924
215963
216002
216040
216078
216116
216154
216191
216228
216265
216302
216339
216375
216412
216448
216484
216519
216555
216590
216625
216659
216694
216728
216762
216796
216830
216864
216897
216930
216963
216995
217028
217060
217092
217123
217155
217186
217217
217248
217279
217309
217339
217369
217399
217428
217458
217487
217516
217544
217573
217601
217629
217656
217684
217711
217738
217765
217791
217817
217844
217869
217895
217920
217945
217970
217995
218019
218044
218068
218091
218115
218138
218161
218184
218206
218229
218251
218273
218294
218315
218337
218357
218378
218398
218418
218438
218458
218477
218497
218515
218534
218553
218571
218589
218606
218624
218641
218658
218675
218691
218707
218723
218739
218755
218770
218785
218799
218814
218828
218842
218856
218869
218883
218896
218908
218921
218933
218945
218957
218968
218979
218990
219001
219011
219022
219032
219041
219051
219060
219069
219077
219086
219094
219102
219110
219117
219124
219131
219138
219144
219150
219156
219161
219167
219172
219177
219181
219186
219190
219193
219197
219200
219203
219206
219208
219211
219213
219214
219216
219217
219218
219218
219219
219219
219219
219218
219218
219217
219216
219214
219213
219211
219208
219206
219203
219200
219197
219193
219190
219186
219181
219177
219172
219167
219162
219156
219150
219144
219138
219131
219124
219117
219109
219102
219094
219086
219077
219069
219060
219050
219041
219031
219021
219011
219000
218990
218979
218968
218956
218944
218933
218920
218908
218895
180404
180397
180390
180384
180379
180376
180373
180372
180371
180370
180370
180371
180371
180372
180373
180375
180376
180378
180380
180382
180385
180388
180390
180394
180397
180400
180404
180408
180412
180416
180420
180425
180430
180434
180440
180445
180450
180456
180462
180467
180474
180480
180486
180493
180500
180507
180514
180521
180528
180536
180544
180552
180560
180568
180577
180585
180594
180603
180612
180622
180631
180641
180650
180660
180671
180681
180691
180702
180713
180724
180735
180746
180757
180769
180781
180793
180805
180817
180830
180842
180855
180868
180881
180894
180908
180921
180935
180949
180963
180977
180992
181006
181021
181036
181051
181066
181082
181098
181113
181129
181145
181161
181178
181194
181211
181228
181245
181262
181280
181297
181315
181333
181351
181369
181388
181406
181425
181444
181463
181482
181502
181521
181541
181561
181581
181601
181621
181642
181663
181683
181704
181726
181747
181769
181790
181812
181834
181856
181879
181901
181924
181947
181970
181993
182016
182040
182063
182087
182111
182135
182160
182184
182209
182234
182259
182284
182309
182334
182360
182386
182412
182438
182464
182491
182517
182544
182571
182598
182625
182653
182680
182708
182736
182764
182792
182821
182849
182878
182907
182936
182965
182995
183024
183054
183084
183114
183144
183174
183205
183235
183266
183297
183328
183360
183391
183423
183455
183487
183519
183551
183583
183616
183649
183682
183715
183748
183781
183815
183849
183883
183917
183951
183985
184020
184054
184089
184124
184159
184195
184230
184266
184302
184338
184374
184410
184446
184483
184520
184557
184594
184631
184668
184706
184743
184781
184819
184857
184896
184934
184973
185011
185050
185089
185129
185168
185207
185247
185287
185327
185367
185407
185448
185488
185529
185570
185611
185652
185694
185735
185777
185819
185861
185903
185945
185988
186030
186073
186116
186159
186202
186245
186289
186332
186376
186420
186464
186508
186553
186597
186642
186686
186731
186776
186822
186867
186913
186958
187004
187050
187096
187142
187189
187235
187282
187329
187376
187423
187470
187517
187565
187613
187660
187708
187756
187805
187853
187901
187950
187999
188048
188097
188146
188195
188245
188294
188344
188394
188444
188494
188544
188595
188645
188696
188747
188798
188849
188900
188951
189003
189054
189106
189158
189210
189262
189314
189366
189419
189471
189524
189577
189630
189683
189736
189790
189843
189897
189951
190004
190058
190112
190167
190221
190276
190330
190385
190440
190495
190550
190605
190660
190716
190771
190827
190882
190938
190994
191050
191107
191163
191219
191276
191333
191389
191446
191503
191560
191618
191675
191732
191790
191848
191905
191963
192021
192079
192137
192196
192254
192312
192371
192430
192488
192547
192606
192665
192725
192784
192843
192903
192962
193022
193082
193142
193202
193262
193322
193382
193442
193503
193563
193624
193684
193745
193806
193867
193928
193989
194050
194112
194173
194234
194296
194358
194419
194481
194543
194605
194667
194729
194791
194853
194916
194978
195041
195103
195166
195229
195291
195354
195417
195480
195543
195606
195669
195733
195796
195859
195923
195986
196050
196114
196177
196241
196305
196369
196433
196497
196561
196625
196689
196753
196818
196882
196947
197011
197076
197140
197205
197269
197334
197399
197464
197529
197593
197658
197723
197788
197854
197919
197984
198049
198114
198180
198245
198310
198376
198441
198507
198572
198638
198703
198769
198835
198900
198966
199032
199097
199163
199229
199295
199361
199427
199493
199559
199624
199690
199756
199823
199889
199955
200021
200087
200153
200219
200285
200351
200418
200484
200550
200616
200682
200749
200815
200881
200947
201014
201080
201146
201212
201279
201345
201411
201477
201544
201610
201676
201742
201809
201875
201941
202007
202073
202140
202206
202272
202338
202404
202471
202537
202603
202669
202735
202801
202867
202933
202999
203065
203131
203197
203263
203329
203395
203461
203526
203592
203658
203724
203789
203855
203921
203986
204052
204117
204183
204248
204314
204379
204444
204510
204575
204640
204705
204770
204835
204900
204965
205030
205095
205160
205225
205290
205354
205419
205484
205548
205613
205677
205741
205806
205870
205934
205998
206062
206126
206190
206254
206318
206382
206445
206509
206572
206636
206699
206763
206826
206889
206952
207015
207078
207141
207204
207267
207329
207392
207454
207517
207579
207641
207704
207766
207828
207889
207951
208013
208075
208136
208198
208259
208320
208381
208443
208504
208564
208625
208686
208747
208807
208867
208928
208988
209048
209108
209168
209228
209287
209347
209406
209466
209525
209584
209643
209702
209761
209820
209878
209937
209995
210053
210111
210169
210227
210285
210343
210400
210457
210515
210572
210629
210686
210742
210799
210856
210912
210968
211024
211080
211136
211192
211247
211303
211358
211413
211468
211523
211578
211633
211687
211742
211796
211850
211904
211957
212011
212065
212118
212171
212224
212277
212330
212382
212435
212487
212539
212591
212643
212695
212746
212798
212849
212900
212951
213001
213052
213102
213153
213203
213253
213302
213352
213401
213451
213500
213549
213598
213646
213695
213743
213791
213839
213887
213934
213982
214029
214076
214123
214169
214216
214262
214308
214354
214400
214446
214491
214537
214582
214627
214671
214716
214760
214804
214848
214892
214936
214979
215022
215065
215108
215151
215193
215236
215278
215320
215361
215403
215444
215485
215526
215567
215607
215648
215688
215728
215767
215807
215846
215885
215924
215963
216002
216040
216078
216116
216154
216191
216228
216265
216302
216339
216375
216412
216448
216484
216519
216555
216590
216625
216659
216694
216728
216762
216796
216830
216864
216897
216930
216963
216995
217028
217060
217092
217123
217155
217186
217217
217248
217279
217309
217339
217369
217399
217428
217458
217487
217516
217544
217573
217601
217629
217656
217684
217711
217738
217765
217791
217817
217844
217869
217895
217920
217945
217970
217995
218019
218044
218068
218091
218115
218138
218161
218184
218206
218229
218251
218272
218294
218315
218336
218357
218378
218398
218418
218438
218458
218477
218497
218515
218534
218553
218571
218589
218606
218624
218641
218658
218675
218691
218707
218723
218739
218755
218770
218785
218799
218814
218828
218842
218856
218869
218883
218896
218908
218921
218933
218945
218957
218968
218979
218990
219001
219011
219022
219032
219041
219051
219060
219069
219077
219086
219094
219102
219110
219117
219124
219131
219138
219144
219150
219156
219161
219167
219172
219177
219181
219185
219190
219193
219197
219200
219203
219206
219208
219211
219212
219214
219216
219217
219218
219218
219219
219219
219219
219218
219218
219217
219216
219214
219213
219211
219208
219206
219203
219200
219197
219193
219190
219186
219181
219177
219172
219167
219162
219156
219150
219144
219138
219131
219124
219117
219109
219102
219094
219086
219077
219068
219060
219050
219041
219031
219021
219011
219000
218990
218979
218968
218956
218944
218932
218920
218908
218895
180391
180388
180384
180381
180377
180375
180373
180372
180371
180370
180370
180371
180371
180372
180373
180375
180376
180378
180380
180382
180385
180388
180390
180394
180397
180400
180404
180408
180412
180416
180420
180425
180430
180434
180440
180445
180450
180456
180462
180467
180474
180480
180486
180493
180500
180507
180514
180521
180528
180536
180544
180552
180560
180568
180577
180585
180594
180603
180612
180622
180631
180641
180650
180660
180671
180681
180691
180702
180713
180724
180735
180746
180757
180769
180781
180793
180805
180817
180830
180842
180855
180868
180881
180894
180908
180921
180935
180949
180963
180977
180992
181006
181021
181036
181051
181066
181082
181098
181113
181129
181145
181162
181178
181194
181211
181228
181245
181262
181280
181297
181315
181333
181351
181369
181388
181406
181425
181444
181463
181482
181502
181521
181541
181561
181581
181601
181621
181642
181663
181683
181704
181726
181747
181769
181790
181812
181834
181856
181879
181901
181924
181947
181970
181993
182016
182040
182063
182087
182111
182135
182160
182184
182209
182234
182259
182284
182309
182334
182360
182386
182412
182438
182464
182491
182517
182544
182571
182598
182625
182653
182680
182708
182736
182764
182792
182821
182849
182878
182907
182936
182965
182995
183024
183054
183084
183114
183144
183174
183205
183235
183266
183297
183328
183360
183391
183423
183455
183487
183519
183551
183583
183616
183649
183682
183715
183748
183781
183815
183849
183883
183917
183951
183985
184020
184054
184089
184124
184159
184195
184230
184266
184302
184338
184374
184410
184446
184483
184520
184557
184594
184631
184668
184706
184743
184781
184819
184857
184896
184934
184973
185011
185050
185089
185129
185168
185207
185247
185287
185327
185367
185407
185448
185488
185529
185570
185611
185652
185694
185735
185777
185819
185861
185903
185945
185988
186030
186073
186116
186159
186202
186245
186289
186332
186376
186420
186464
186508
186553
186597
186642
186687
186731
186777
186822
186867
186913
186958
187004
187050
187096
187142
187189
187235
187282
187329
187376
187423
187470
187517
187565
187613
187660
187708
187756
187805
187853
187901
187950
187999
188048
188097
188146
188195
188245
188294
188344
188394
188444
188494
188544
188595
188645
188696
188747
188798
188849
188900
188951
189003
189054
189106
189158
189210
189262
189314
189366
189419
189471
189524
189577
189630
189683
189736
189790
189843
189897
189951
190004
190058
190113
190167
190221
190276
190330
190385
190440
190495
190550
190605
190660
190716
190771
190827
190882
190938
190994
191050
191107
191163
191219
191276
191333
191389
191446
191503
191560
191618
191675
191732
191790
191848
191905
191963
192021
192079
192137
192196
192254
192312
192371
192430
192489
192547
192606
192665
192725
192784
192843
192903
192962
193022
193082
193142
193202
193262
193322
193382
193442
193503
193563
193624
193684
193745
193806
193867
193928
193989
194050
194112
194173
194235
194296
194358
194419
194481
194543
194605
194667
194729
194791
194853
194916
194978
195041
195103
195166
195229
195291
195354
195417
195480
195543
195606
195669
195733
195796
195859
195923
195986
196050
196114
196177
196241
196305
196369
196433
196497
196561
196625
196689
196753
196818
196882
196947
197011
197076
197140
197205
197269
197334
197399
197464
197529
197593
197658
197723
197788
197854
197919
197984
198049
198114
198180
198245
198310
198376
198441
198507
198572
198638
198703
198769
198835
198900
198966
199032
199097
199163
199229
199295
199361
199427
199493
199559
199625
199691
199757
199823
199889
199955
200021
200087
200153
200219
200285
200351
200418
200484
200550
200616
200682
200749
200815
200881
200947
201014
201080
201146
201212
201279
201345
201411
201477
201544
201610
201676
201742
201809
201875
201941
202007
202074
202140
202206
202272
202338
202404
202471
202537
202603
202669
202735
202801
202867
202933
202999
203065
203131
203197
203263
203329
203395
203461
203526
203592
203658
203724
203789
203855
203921
203986
204052
204117
204183
204248
204314
204379
204444
204510
204575
204640
204705
204770
204835
204901
204965
205030
205095
205160
205225
205290
205354
205419
205484
205548
205613
205677
205741
205806
205870
205934
205998
206062
206126
206190
206254
206318
206382
206445
206509
206572
206636
206699
206763
206826
206889
206952
207015
207078
207141
207204
207267
207329
207392
207454
207517
207579
207641
207704
207766
207828
207889
207951
208013
208075
208136
208198
208259
208320
208382
208443
208504
208564
208625
208686
208747
208807
208867
208928
208988
209048
209108
209168
209228
209287
209347
209406
209466
209525
209584
209643
209702
209761
209820
209878
209937
209995
210053
210111
210169
210227
210285
210343
210400
210457
210515
210572
210629
210686
210742
210799
210856
210912
210968
211024
211080
211136
211192
211247
211303
211358
211413
211468
211523
211578
211633
211687
211742
211796
211850
211904
211957
212011
212065
212118
212171
212224
212277
212330
212382
212435
212487
212539
212591
212643
212695
212746
212798
212849
212900
212951
213001
213052
213102
213153
213203
213253
213302
213352
213401
213451
213500
213549
213597
213646
213695
213743
213791
213839
213887
213934
213981
214029
214076
214123
214169
214216
214262
214308
214354
214400
214446
214491
214537
214582
214627
214671
214716
214760
214804
214848
214892
214936
214979
215022
215065
215108
215151
215193
215236
215278
215320
215361
215403
215444
215485
215526
215567
215607
215648
215688
215728
215767
215807
215846
215885
215924
215963
216002
216040
216078
216116
216154
216191
216228
216265
216302
216339
216375
216412
216448
216484
216519
216555
216590
216625
216659
216694
216728
216762
216796
216830
216864
216897
216930
216963
216995
217028
217060
217092
217123
217155
217186
217217
217248
217279
217309
217339
217369
217399
217428
217458
217487
217516
217544
217573
217601
217629
217656
217684
217711
217738
217765
217791
217817
217844
217869
217895
217920
217945
217970
217995
218019
218044
218068
218091
218115
218138
218161
218184
218206
218229
218251
218272
218294
218315
218336
218357
218378
218398
218418
218438
218458
218477
218497
218515
218534
218553
218571
218589
218606
218624
218641
218658
218675
218691
218707
218723
218739
218754
218770
218785
218799
218814
218828
218842
218856
218869
218883
218895
218908
218921
218933
218945
218957
218968
218979
218990
219001
219011
219022
219032
219041
219051
219060
219069
219077
219086
219094
219102
219109
219117
219124
219131
219137
219144
219150
219156
219161
219167
219172
219177
219181
219185
219189
219193
219197
219200
219203
219206
219208
219210
219212
219214
219216
219217
219218
219218
219219
219219
219219
219218
219218
219217
219216
219214
219213
219211
219208
219206
219203
219200
219197
219193
219190
219186
219181
219177
219172
219167
219161
219156
219150
219144
219137
219131
219124
219117
219109
219102
219094
219086
219077
219068
219059
219050
219041
219031
219021
219011
219000
218990
218979
218967
218956
218944
218932
218920
218908
218895
180382
180381
180380
180377
180375
180373
180372
180371
180370
180370
180370
180370
180371
180372
180373
180375
180376
180378
180380
180382
180385
180388
180390
180394
180397
180400
180404
180408
180412
180416
180420
180425
180430
180434
180440
180445
180450
180456
180462
180467
180474
180480
180486
180493
180500
180507
180514
180521
180528
180536
180544
180552
180560
180568
180577
180585
180594
180603
180612
180622
180631
180641
180650
180660
180671
180681
180691
180702
180713
180724
180735
180746
180757
180769
180781
180793
180805
180817
180830
180842
180855
180868
180881
180894
180908
180921
180935
180949
180963
180977
180992
181006
181021
181036
181051
181067
181082
181098
181113
181129
181145
181162
181178
181195
181211
181228
181245
181262
181280
181297
181315
181333
181351
181369
181388
181406
181425
181444
181463
181482
181502
181521
181541
181561
181581
181601
181621
181642
181663
181683
181704
181726
181747
181769
181790
181812
181834
181856
181879
181901
181924
181947
181970
181993
182016
182040
182063
182087
182111
182135
182160
182184
182209
182234
182259
182284