/*--------------------------------*- C++ -*----------------------------------*\
| =========                 |                                                 |
| \\      /  F ield         | OpenFOAM: The Open Source CFD Toolbox           |
|  \\    /   O peration     | Version:  2512                                  |
|   \\  /    A nd           | Website:  www.openfoam.com                      |
|    \\/     M anipulation  |                                                 |
\*---------------------------------------------------------------------------*/
FoamFile
{
    version     2.0;
    format      ascii;
    arch        "LSB;label=32;scalar=64";
    class       volScalarField;
    location    "0.001";
    object      pB;
}
// * * * * * * * * * * * * * * * * * * * * * * * * * * * * * * * * * * * * * //

dimensions      [1 1 -3 0 0 -1 0];

internalField   nonuniform List<scalar> 
100000
(
-40.5157
-82.2788
-119.241
-143.865
-156.868
-162.117
-162.92
-161.432
-158.909
-156.028
-153.128
-150.369
-147.814
-145.482
-143.368
-141.456
-139.727
-138.163
-136.745
-135.455
-134.278
-133.202
-132.214
-131.302
-130.459
-129.675
-128.944
-128.259
-127.616
-127.009
-126.435
-125.891
-125.373
-124.878
-124.405
-123.95
-123.514
-123.094
-122.69
-122.302
-121.928
-121.568
-121.223
-120.891
-120.572
-120.266
-119.973
-119.692
-119.423
-119.166
-118.922
-118.69
-118.469
-118.261
-118.066
-117.883
-117.713
-117.557
-117.415
-117.288
-117.176
-117.08
-117.002
-116.942
-116.901
-116.881
-116.882
-116.906
-116.954
-117.027
-117.126
-117.25
-117.4
-117.572
-117.763
-117.969
-118.185
-118.407
-118.631
-118.855
-119.076
-119.293
-119.505
-119.712
-119.913
-120.108
-120.296
-120.478
-120.654
-120.824
-120.987
-121.144
-121.295
-121.44
-121.579
-121.713
-121.841
-121.964
-122.082
-122.196
-122.306
-122.413
-122.516
-122.616
-122.715
-122.812
-122.908
-123.004
-123.101
-123.2
-123.3
-123.404
-123.51
-123.62
-123.732
-123.845
-123.959
-124.073
-124.185
-124.295
-124.402
-124.505
-124.606
-124.703
-124.796
-124.886
-124.972
-125.055
-125.134
-125.209
-125.282
-125.351
-125.416
-125.479
-125.539
-125.596
-125.651
-125.704
-125.754
-125.803
-125.85
-125.896
-125.941
-125.985
-126.029
-126.072
-126.115
-126.158
-126.202
-126.245
-126.288
-126.331
-126.374
-126.416
-126.456
-126.496
-126.535
-126.573
-126.61
-126.646
-126.68
-126.714
-126.746
-126.778
-126.808
-126.837
-126.866
-126.893
-126.92
-126.945
-126.97
-126.994
-127.018
-127.042
-127.065
-127.088
-127.11
-127.133
-127.156
-127.18
-127.203
-127.227
-127.251
-127.274
-127.298
-127.321
-127.344
-127.366
-127.388
-127.408
-127.429
-127.448
-127.467
-127.485
-127.503
-127.52
-127.537
-127.553
-127.569
-127.585
-127.601
-127.617
-127.633
-127.65
-127.666
-127.683
-127.7
-127.717
-127.735
-127.753
-127.771
-127.79
-127.809
-127.828
-127.848
-127.867
-127.887
-127.906
-127.925
-127.945
-127.964
-127.983
-128.002
-128.021
-128.039
-128.058
-128.076
-128.094
-128.113
-128.131
-128.149
-128.167
-128.185
-128.203
-128.221
-128.239
-128.257
-128.275
-128.293
-128.312
-128.33
-128.348
-128.367
-128.386
-128.404
-128.423
-128.442
-128.461
-128.48
-128.499
-128.518
-128.537
-128.556
-128.575
-128.595
-128.615
-128.634
-128.654
-128.674
-128.694
-128.715
-128.735
-128.756
-128.777
-128.798
-128.819
-128.84
-128.862
-128.883
-128.905
-128.927
-128.949
-128.971
-128.993
-129.016
-129.038
-129.061
-129.083
-129.106
-129.129
-129.152
-129.176
-129.199
-129.223
-129.246
-129.27
-129.294
-129.318
-129.342
-129.366
-129.391
-129.415
-129.44
-129.465
-129.49
-129.515
-129.54
-129.565
-129.591
-129.616
-129.642
-129.667
-129.693
-129.719
-129.745
-129.771
-129.798
-129.824
-129.85
-129.877
-129.904
-129.93
-129.957
-129.984
-130.011
-130.038
-130.065
-130.092
-130.12
-130.147
-130.175
-130.202
-130.23
-130.258
-130.286
-130.313
-130.342
-130.37
-130.398
-130.426
-130.455
-130.483
-130.512
-130.54
-130.569
-130.598
-130.627
-130.656
-130.685
-130.714
-130.743
-130.772
-130.801
-130.831
-130.86
-130.89
-130.919
-130.949
-130.979
-131.009
-131.039
-131.068
-131.098
-131.129
-131.159
-131.189
-131.219
-131.25
-131.28
-131.31
-131.341
-131.372
-131.402
-131.433
-131.464
-131.495
-131.526
-131.557
-131.588
-131.619
-131.65
-131.682
-131.713
-131.745
-131.776
-131.808
-131.839
-131.871
-131.903
-131.934
-131.966
-131.998
-132.03
-132.062
-132.094
-132.126
-132.159
-132.191
-132.223
-132.255
-132.288
-132.32
-132.353
-132.385
-132.418
-132.451
-132.483
-132.516
-132.549
-132.582
-132.615
-132.648
-132.681
-132.714
-132.748
-132.781
-132.814
-132.847
-132.881
-132.914
-132.948
-132.981
-133.015
-133.049
-133.082
-133.116
-133.15
-133.184
-133.217
-133.251
-133.285
-133.319
-133.353
-133.388
-133.422
-133.456
-133.49
-133.524
-133.559
-133.593
-133.627
-133.662
-133.696
-133.731
-133.766
-133.8
-133.835
-133.87
-133.904
-133.939
-133.974
-134.009
-134.044
-134.079
-134.114
-134.149
-134.184
-134.219
-134.254
-134.289
-134.325
-134.36
-134.395
-134.43
-134.466
-134.501
-134.536
-134.572
-134.607
-134.643
-134.678
-134.714
-134.75
-134.785
-134.821
-134.857
-134.892
-134.928
-134.964
-135
-135.036
-135.071
-135.107
-135.143
-135.179
-135.215
-135.251
-135.287
-135.323
-135.36
-135.396
-135.432
-135.468
-135.504
-135.54
-135.577
-135.613
-135.649
-135.685
-135.722
-135.758
-135.794
-135.831
-135.867
-135.903
-135.94
-135.976
-136.013
-136.049
-136.086
-136.122
-136.159
-136.195
-136.232
-136.268
-136.305
-136.342
-136.378
-136.415
-136.452
-136.488
-136.525
-136.562
-136.598
-136.635
-136.672
-136.708
-136.745
-136.782
-136.819
-136.855
-136.892
-136.929
-136.966
-137.002
-137.039
-137.076
-137.113
-137.15
-137.186
-137.223
-137.26
-137.297
-137.333
-137.37
-137.407
-137.444
-137.481
-137.517
-137.554
-137.591
-137.628
-137.665
-137.702
-137.738
-137.775
-137.812
-137.849
-137.885
-137.922
-137.959
-137.996
-138.032
-138.069
-138.106
-138.143
-138.179
-138.216
-138.253
-138.289
-138.326
-138.363
-138.399
-138.436
-138.473
-138.509
-138.546
-138.582
-138.619
-138.655
-138.692
-138.728
-138.765
-138.801
-138.838
-138.874
-138.911
-138.947
-138.983
-139.02
-139.056
-139.093
-139.129
-139.165
-139.201
-139.238
-139.274
-139.31
-139.346
-139.382
-139.418
-139.454
-139.49
-139.526
-139.562
-139.598
-139.634
-139.67
-139.706
-139.742
-139.778
-139.813
-139.849
-139.885
-139.921
-139.956
-139.992
-140.027
-140.063
-140.098
-140.134
-140.169
-140.205
-140.24
-140.275
-140.311
-140.346
-140.381
-140.416
-140.451
-140.487
-140.522
-140.557
-140.591
-140.626
-140.661
-140.696
-140.731
-140.766
-140.8
-140.835
-140.869
-140.904
-140.938
-140.973
-141.007
-141.042
-141.076
-141.11
-141.144
-141.178
-141.213
-141.247
-141.281
-141.315
-141.348
-141.382
-141.416
-141.45
-141.483
-141.517
-141.551
-141.584
-141.617
-141.651
-141.684
-141.717
-141.75
-141.784
-141.817
-141.85
-141.882
-141.915
-141.948
-141.981
-142.013
-142.046
-142.079
-142.111
-142.143
-142.176
-142.208
-142.24
-142.272
-142.304
-142.336
-142.368
-142.4
-142.432
-142.463
-142.495
-142.527
-142.558
-142.589
-142.621
-142.652
-142.683
-142.714
-142.745
-142.776
-142.807
-142.838
-142.868
-142.899
-142.929
-142.96
-142.99
-143.02
-143.05
-143.08
-143.11
-143.14
-143.17
-143.2
-143.229
-143.259
-143.288
-143.317
-143.347
-143.376
-143.405
-143.434
-143.462
-143.491
-143.52
-143.548
-143.577
-143.605
-143.633
-143.662
-143.69
-143.718
-143.745
-143.773
-143.801
-143.828
-143.855
-143.883
-143.91
-143.937
-143.964
-143.99
-144.017
-144.043
-144.07
-144.096
-144.122
-144.148
-144.174
-144.2
-144.226
-144.251
-144.277
-144.302
-144.327
-144.352
-144.377
-144.402
-144.426
-144.451
-144.475
-144.499
-144.523
-144.547
-144.571
-144.594
-144.618
-144.641
-144.664
-144.687
-144.709
-144.732
-144.754
-144.776
-144.798
-144.82
-144.842
-144.863
-144.885
-144.906
-144.927
-144.947
-144.968
-144.988
-145.008
-145.028
-145.048
-145.068
-145.087
-145.106
-145.125
-145.143
-145.162
-145.18
-145.198
-145.215
-145.233
-145.25
-145.267
-145.283
-145.299
-145.315
-145.331
-145.347
-145.362
-145.377
-145.391
-145.405
-145.419
-145.433
-145.446
-145.459
-145.472
-145.484
-145.496
-145.507
-145.518
-145.529
-145.539
-145.549
-145.559
-145.568
-145.576
-145.585
-145.592
-145.6
-145.606
-145.613
-145.618
-145.624
-145.628
-145.633
-145.636
-145.639
-145.642
-145.644
-145.645
-145.646
-145.646
-145.645
-145.644
-145.642
-145.639
-145.635
-145.631
-145.626
-145.62
-145.614
-145.606
-145.598
-145.589
-145.579
-145.567
-145.555
-145.542
-145.528
-145.513
-145.497
-145.48
-145.462
-145.442
-145.421
-145.399
-145.376
-145.352
-145.326
-145.298
-145.27
-145.24
-145.208
-145.175
-145.14
-145.103
-145.065
-145.025
-144.984
-144.94
-144.895
-144.847
-144.798
-144.747
-144.693
-144.637
-144.579
-144.519
-144.456
-144.391
-144.323
-144.253
-144.18
-144.104
-144.025
-143.943
-143.858
-143.771
-143.679
-143.585
-143.487
-143.386
-143.28
-143.172
-143.059
-142.942
-142.821
-142.696
-142.566
-142.432
-142.294
-142.15
-142.002
-141.848
-141.689
-141.525
-141.355
-141.18
-140.998
-140.81
-140.616
-140.416
-140.208
-139.994
-139.773
-139.544
-139.307
-139.063
-138.811
-138.55
-138.28
-138.002
-137.714
-137.417
-137.111
-136.794
-136.466
-136.128
-135.779
-135.418
-135.046
-134.661
-134.264
-133.853
-133.43
-132.992
-132.54
-132.073
-131.591
-131.093
-130.579
-130.048
-129.5
-128.934
-128.349
-127.745
-127.121
-126.477
-125.811
-125.124
-124.414
-123.68
-122.922
-122.139
-121.331
-120.495
-119.632
-118.739
-117.817
-116.864
-115.879
-114.861
-113.808
-112.72
-111.594
-110.43
-109.226
-107.98
-106.691
-105.357
-103.977
-102.547
-101.066
-99.5323
-97.9429
-96.2955
-94.5873
-92.8153
-90.9766
-89.0676
-87.0847
-85.0239
-82.8808
-80.6507
-78.3281
-75.9073
-73.3817
-70.7438
-67.9852
-65.0966
-62.0667
-58.8828
-55.5298
-51.9896
-48.2404
-44.2551
-39.9997
-35.4299
-30.486
-25.0841
-19.0984
-12.3234
-4.5444
-13.7641
-61.2543
-98.5117
-124.002
-139.31
-147.256
-150.551
-151.161
-150.326
-148.774
-146.916
-144.977
-143.072
-141.26
-139.567
-138
-136.557
-135.231
-134.013
-132.894
-131.864
-130.914
-130.035
-129.22
-128.461
-127.753
-127.089
-126.465
-125.877
-125.32
-124.792
-124.289
-123.809
-123.349
-122.908
-122.483
-122.074
-121.681
-121.301
-120.936
-120.583
-120.244
-119.917
-119.603
-119.3
-119.01
-118.732
-118.465
-118.209
-117.965
-117.733
-117.512
-117.302
-117.104
-116.919
-116.745
-116.584
-116.436
-116.302
-116.183
-116.078
-115.989
-115.917
-115.862
-115.826
-115.809
-115.813
-115.839
-115.888
-115.959
-116.055
-116.174
-116.317
-116.479
-116.66
-116.855
-117.059
-117.27
-117.484
-117.698
-117.91
-118.119
-118.324
-118.524
-118.719
-118.909
-119.093
-119.271
-119.443
-119.609
-119.769
-119.923
-120.072
-120.215
-120.352
-120.484
-120.611
-120.734
-120.851
-120.965
-121.074
-121.181
-121.284
-121.384
-121.483
-121.58
-121.677
-121.773
-121.87
-121.968
-122.069
-122.171
-122.276
-122.383
-122.492
-122.602
-122.713
-122.824
-122.933
-123.039
-123.144
-123.245
-123.344
-123.439
-123.53
-123.619
-123.703
-123.785
-123.863
-123.937
-124.009
-124.077
-124.142
-124.205
-124.264
-124.321
-124.376
-124.429
-124.479
-124.528
-124.575
-124.621
-124.666
-124.71
-124.754
-124.797
-124.84
-124.883
-124.925
-124.968
-125.01
-125.053
-125.094
-125.135
-125.175
-125.215
-125.253
-125.29
-125.326
-125.361
-125.395
-125.429
-125.46
-125.491
-125.521
-125.55
-125.578
-125.605
-125.632
-125.657
-125.682
-125.706
-125.73
-125.753
-125.776
-125.798
-125.821
-125.844
-125.866
-125.889
-125.912
-125.935
-125.959
-125.982
-126.005
-126.027
-126.049
-126.071
-126.092
-126.112
-126.132
-126.151
-126.17
-126.188
-126.205
-126.222
-126.239
-126.255
-126.271
-126.287
-126.303
-126.318
-126.334
-126.35
-126.367
-126.383
-126.4
-126.417
-126.434
-126.452
-126.47
-126.488
-126.506
-126.525
-126.544
-126.563
-126.581
-126.6
-126.619
-126.638
-126.657
-126.675
-126.694
-126.712
-126.73
-126.748
-126.766
-126.784
-126.802
-126.819
-126.837
-126.855
-126.872
-126.89
-126.907
-126.925
-126.943
-126.96
-126.978
-126.996
-127.014
-127.032
-127.05
-127.068
-127.086
-127.105
-127.123
-127.141
-127.16
-127.178
-127.197
-127.216
-127.235
-127.254
-127.273
-127.292
-127.311
-127.33
-127.35
-127.37
-127.39
-127.41
-127.43
-127.45
-127.47
-127.491
-127.512
-127.533
-127.554
-127.575
-127.596
-127.618
-127.639
-127.661
-127.683
-127.705
-127.727
-127.749
-127.772
-127.794
-127.817
-127.839
-127.862
-127.885
-127.908
-127.931
-127.955
-127.978
-128.002
-128.025
-128.049
-128.073
-128.097
-128.121
-128.146
-128.17
-128.195
-128.22
-128.244
-128.269
-128.294
-128.319
-128.345
-128.37
-128.395
-128.421
-128.447
-128.472
-128.498
-128.524
-128.55
-128.576
-128.602
-128.629
-128.655
-128.681
-128.708
-128.735
-128.761
-128.788
-128.815
-128.842
-128.869
-128.896
-128.923
-128.951
-128.978
-129.006
-129.033
-129.061
-129.089
-129.116
-129.144
-129.172
-129.2
-129.228
-129.257
-129.285
-129.313
-129.342
-129.37
-129.399
-129.427
-129.456
-129.485
-129.514
-129.543
-129.572
-129.601
-129.63
-129.659
-129.688
-129.718
-129.747
-129.777
-129.806
-129.836
-129.865
-129.895
-129.925
-129.955
-129.985
-130.015
-130.045
-130.075
-130.105
-130.136
-130.166
-130.196
-130.227
-130.257
-130.288
-130.319
-130.349
-130.38
-130.411
-130.442
-130.473
-130.504
-130.535
-130.566
-130.597
-130.629
-130.66
-130.691
-130.723
-130.754
-130.786
-130.817
-130.849
-130.881
-130.912
-130.944
-130.976
-131.008
-131.04
-131.072
-131.104
-131.136
-131.168
-131.201
-131.233
-131.265
-131.298
-131.33
-131.363
-131.395
-131.428
-131.46
-131.493
-131.526
-131.559
-131.591
-131.624
-131.657
-131.69
-131.723
-131.756
-131.79
-131.823
-131.856
-131.889
-131.923
-131.956
-131.989
-132.023
-132.056
-132.09
-132.123
-132.157
-132.191
-132.224
-132.258
-132.292
-132.326
-132.36
-132.393
-132.427
-132.461
-132.495
-132.53
-132.564
-132.598
-132.632
-132.666
-132.7
-132.735
-132.769
-132.803
-132.838
-132.872
-132.907
-132.941
-132.976
-133.01
-133.045
-133.08
-133.114
-133.149
-133.184
-133.218
-133.253
-133.288
-133.323
-133.358
-133.393
-133.428
-133.463
-133.498
-133.533
-133.568
-133.603
-133.638
-133.673
-133.708
-133.744
-133.779
-133.814
-133.849
-133.885
-133.92
-133.955
-133.991
-134.026
-134.061
-134.097
-134.132
-134.168
-134.203
-134.239
-134.274
-134.31
-134.345
-134.381
-134.417
-134.452
-134.488
-134.524
-134.559
-134.595
-134.631
-134.666
-134.702
-134.738
-134.774
-134.81
-134.845
-134.881
-134.917
-134.953
-134.989
-135.025
-135.061
-135.096
-135.132
-135.168
-135.204
-135.24
-135.276
-135.312
-135.348
-135.384
-135.42
-135.456
-135.492
-135.528
-135.564
-135.6
-135.636
-135.672
-135.708
-135.744
-135.78
-135.816
-135.852
-135.888
-135.924
-135.96
-135.996
-136.032
-136.068
-136.104
-136.14
-136.176
-136.212
-136.248
-136.284
-136.32
-136.356
-136.391
-136.427
-136.463
-136.499
-136.535
-136.571
-136.607
-136.643
-136.679
-136.715
-136.751
-136.787
-136.822
-136.858
-136.894
-136.93
-136.966
-137.001
-137.037
-137.073
-137.109
-137.145
-137.18
-137.216
-137.252
-137.287
-137.323
-137.359
-137.394
-137.43
-137.465
-137.501
-137.536
-137.572
-137.607
-137.643
-137.678
-137.714
-137.749
-137.784
-137.82
-137.855
-137.89
-137.926
-137.961
-137.996
-138.031
-138.066
-138.101
-138.137
-138.172
-138.207
-138.242
-138.277
-138.312
-138.346
-138.381
-138.416
-138.451
-138.486
-138.521
-138.555
-138.59
-138.625
-138.659
-138.694
-138.728
-138.763
-138.797
-138.832
-138.866
-138.9
-138.934
-138.969
-139.003
-139.037
-139.071
-139.105
-139.139
-139.173
-139.207
-139.241
-139.275
-139.308
-139.342
-139.376
-139.41
-139.443
-139.477
-139.51
-139.544
-139.577
-139.61
-139.644
-139.677
-139.71
-139.743
-139.776
-139.809
-139.842
-139.875
-139.908
-139.941
-139.974
-140.006
-140.039
-140.072
-140.104
-140.136
-140.169
-140.201
-140.233
-140.266
-140.298
-140.33
-140.362
-140.394
-140.426
-140.457
-140.489
-140.521
-140.552
-140.584
-140.615
-140.647
-140.678
-140.709
-140.741
-140.772
-140.803
-140.834
-140.865
-140.896
-140.926
-140.957
-140.988
-141.018
-141.049
-141.079
-141.109
-141.139
-141.17
-141.2
-141.23
-141.259
-141.289
-141.319
-141.349
-141.378
-141.408
-141.437
-141.466
-141.495
-141.525
-141.554
-141.582
-141.611
-141.64
-141.669
-141.697
-141.726
-141.754
-141.782
-141.811
-141.839
-141.867
-141.895
-141.922
-141.95
-141.978
-142.005
-142.033
-142.06
-142.087
-142.114
-142.141
-142.168
-142.195
-142.221
-142.248
-142.274
-142.3
-142.326
-142.352
-142.378
-142.404
-142.43
-142.455
-142.481
-142.506
-142.531
-142.556
-142.581
-142.606
-142.631
-142.655
-142.68
-142.704
-142.728
-142.752
-142.776
-142.8
-142.823
-142.847
-142.87
-142.893
-142.916
-142.939
-142.961
-142.984
-143.006
-143.028
-143.05
-143.072
-143.094
-143.115
-143.136
-143.158
-143.179
-143.199
-143.22
-143.24
-143.26
-143.28
-143.3
-143.32
-143.339
-143.358
-143.377
-143.396
-143.415
-143.433
-143.451
-143.469
-143.486
-143.504
-143.521
-143.538
-143.554
-143.571
-143.587
-143.602
-143.618
-143.633
-143.648
-143.663
-143.677
-143.691
-143.705
-143.718
-143.732
-143.744
-143.757
-143.769
-143.781
-143.792
-143.803
-143.814
-143.824
-143.834
-143.843
-143.852
-143.861
-143.869
-143.877
-143.884
-143.891
-143.897
-143.903
-143.908
-143.913
-143.917
-143.921
-143.924
-143.927
-143.929
-143.931
-143.931
-143.932
-143.931
-143.93
-143.928
-143.926
-143.923
-143.919
-143.914
-143.909
-143.903
-143.896
-143.888
-143.879
-143.87
-143.859
-143.848
-143.835
-143.822
-143.807
-143.792
-143.776
-143.758
-143.739
-143.719
-143.698
-143.676
-143.652
-143.628
-143.601
-143.574
-143.545
-143.514
-143.482
-143.449
-143.414
-143.377
-143.339
-143.298
-143.256
-143.213
-143.167
-143.119
-143.07
-143.018
-142.964
-142.908
-142.85
-142.789
-142.726
-142.661
-142.593
-142.522
-142.449
-142.373
-142.294
-142.212
-142.127
-142.039
-141.948
-141.853
-141.755
-141.654
-141.548
-141.439
-141.326
-141.209
-141.088
-140.963
-140.834
-140.699
-140.561
-140.417
-140.269
-140.115
-139.956
-139.792
-139.622
-139.446
-139.265
-139.077
-138.883
-138.682
-138.475
-138.261
-138.039
-137.81
-137.574
-137.33
-137.077
-136.817
-136.547
-136.269
-135.981
-135.685
-135.378
-135.061
-134.734
-134.396
-134.047
-133.686
-133.314
-132.929
-132.532
-132.122
-131.699
-131.261
-130.809
-130.343
-129.861
-129.364
-128.85
-128.319
-127.771
-127.205
-126.621
-126.017
-125.394
-124.75
-124.085
-123.398
-122.688
-121.955
-121.198
-120.415
-119.607
-118.772
-117.909
-117.018
-116.096
-115.144
-114.159
-113.142
-112.09
-111.002
-109.877
-108.714
-107.51
-106.265
-104.977
-103.644
-102.264
-100.835
-99.3555
-97.8226
-96.2342
-94.5878
-92.8807
-91.1099
-89.2724
-87.3647
-85.3833
-83.324
-81.1826
-78.9542
-76.6337
-74.2151
-71.692
-69.057
-66.3019
-63.4173
-60.3924
-57.2146
-53.8693
-50.339
-46.6029
-42.6353
-38.4046
-33.8705
-28.9802
-23.6635
-17.8226
-11.3197
-4.06941
-10.1849
-47.9165
-79.9073
-103.286
-119.05
-128.855
-134.454
-137.295
-138.411
-138.487
-137.959
-137.097
-136.067
-134.968
-133.86
-132.777
-131.738
-130.753
-129.823
-128.951
-128.132
-127.365
-126.646
-125.971
-125.335
-124.737
-124.171
-123.635
-123.127
-122.642
-122.179
-121.736
-121.31
-120.9
-120.504
-120.123
-119.754
-119.398
-119.054
-118.721
-118.399
-118.089
-117.789
-117.501
-117.222
-116.955
-116.697
-116.451
-116.214
-115.988
-115.773
-115.568
-115.374
-115.191
-115.019
-114.859
-114.711
-114.575
-114.452
-114.343
-114.248
-114.169
-114.105
-114.057
-114.027
-114.016
-114.023
-114.051
-114.099
-114.169
-114.26
-114.372
-114.505
-114.655
-114.822
-115.001
-115.19
-115.386
-115.585
-115.785
-115.985
-116.183
-116.377
-116.568
-116.755
-116.937
-117.114
-117.286
-117.452
-117.613
-117.769
-117.92
-118.065
-118.204
-118.339
-118.469
-118.594
-118.715
-118.831
-118.944
-119.053
-119.159
-119.262
-119.362
-119.461
-119.558
-119.655
-119.751
-119.848
-119.945
-120.044
-120.145
-120.247
-120.351
-120.457
-120.563
-120.67
-120.776
-120.881
-120.984
-121.084
-121.183
-121.278
-121.37
-121.46
-121.546
-121.629
-121.708
-121.785
-121.858
-121.928
-121.996
-122.06
-122.122
-122.181
-122.238
-122.292
-122.345
-122.395
-122.444
-122.491
-122.537
-122.582
-122.626
-122.67
-122.713
-122.755
-122.797
-122.839
-122.881
-122.923
-122.964
-123.004
-123.044
-123.083
-123.122
-123.159
-123.196
-123.231
-123.265
-123.299
-123.331
-123.363
-123.393
-123.423
-123.451
-123.479
-123.506
-123.531
-123.557
-123.581
-123.605
-123.629
-123.652
-123.675
-123.697
-123.719
-123.742
-123.764
-123.786
-123.809
-123.831
-123.854
-123.876
-123.898
-123.92
-123.941
-123.962
-123.983
-124.003
-124.022
-124.041
-124.059
-124.076
-124.094
-124.11
-124.127
-124.143
-124.159
-124.174
-124.19
-124.206
-124.221
-124.237
-124.253
-124.269
-124.286
-124.302
-124.319
-124.336
-124.354
-124.371
-124.389
-124.407
-124.425
-124.443
-124.462
-124.48
-124.498
-124.516
-124.534
-124.552
-124.57
-124.588
-124.605
-124.623
-124.64
-124.658
-124.675
-124.692
-124.709
-124.727
-124.744
-124.761
-124.778
-124.795
-124.812
-124.829
-124.847
-124.864
-124.881
-124.899
-124.916
-124.934
-124.952
-124.97
-124.987
-125.005
-125.023
-125.041
-125.059
-125.078
-125.096
-125.114
-125.133
-125.152
-125.17
-125.189
-125.208
-125.227
-125.247
-125.266
-125.286
-125.305
-125.325
-125.345
-125.365
-125.386
-125.406
-125.427
-125.447
-125.468
-125.489
-125.51
-125.531
-125.553
-125.574
-125.596
-125.618
-125.639
-125.661
-125.683
-125.705
-125.728
-125.75
-125.773
-125.795
-125.818
-125.841
-125.864
-125.887
-125.911
-125.934
-125.958
-125.981
-126.005
-126.029
-126.053
-126.077
-126.101
-126.126
-126.15
-126.175
-126.199
-126.224
-126.249
-126.274
-126.299
-126.324
-126.349
-126.374
-126.4
-126.425
-126.451
-126.476
-126.502
-126.528
-126.554
-126.58
-126.606
-126.632
-126.658
-126.684
-126.711
-126.737
-126.764
-126.79
-126.817
-126.844
-126.871
-126.898
-126.925
-126.952
-126.979
-127.007
-127.034
-127.061
-127.089
-127.116
-127.144
-127.172
-127.2
-127.228
-127.255
-127.283
-127.312
-127.34
-127.368
-127.396
-127.425
-127.453
-127.481
-127.51
-127.539
-127.567
-127.596
-127.625
-127.654
-127.683
-127.712
-127.741
-127.77
-127.799
-127.828
-127.858
-127.887
-127.917
-127.946
-127.976
-128.005
-128.035
-128.065
-128.095
-128.125
-128.154
-128.184
-128.215
-128.245
-128.275
-128.305
-128.335
-128.366
-128.396
-128.427
-128.457
-128.488
-128.518
-128.549
-128.58
-128.611
-128.641
-128.672
-128.703
-128.734
-128.765
-128.797
-128.828
-128.859
-128.89
-128.922
-128.953
-128.984
-129.016
-129.047
-129.079
-129.111
-129.142
-129.174
-129.206
-129.238
-129.27
-129.301
-129.333
-129.365
-129.398
-129.43
-129.462
-129.494
-129.526
-129.559
-129.591
-129.623
-129.656
-129.688
-129.721
-129.753
-129.786
-129.818
-129.851
-129.884
-129.917
-129.949
-129.982
-130.015
-130.048
-130.081
-130.114
-130.147
-130.18
-130.213
-130.247
-130.28
-130.313
-130.346
-130.38
-130.413
-130.446
-130.48
-130.513
-130.547
-130.58
-130.614
-130.647
-130.681
-130.715
-130.748
-130.782
-130.816
-130.85
-130.884
-130.917
-130.951
-130.985
-131.019
-131.053
-131.087
-131.121
-131.155
-131.189
-131.223
-131.258
-131.292
-131.326
-131.36
-131.395
-131.429
-131.463
-131.497
-131.532
-131.566
-131.601
-131.635
-131.669
-131.704
-131.738
-131.773
-131.807
-131.842
-131.877
-131.911
-131.946
-131.98
-132.015
-132.05
-132.084
-132.119
-132.154
-132.189
-132.223
-132.258
-132.293
-132.328
-132.362
-132.397
-132.432
-132.467
-132.502
-132.537
-132.572
-132.607
-132.642
-132.676
-132.711
-132.746
-132.781
-132.816
-132.851
-132.886
-132.921
-132.956
-132.991
-133.026
-133.061
-133.096
-133.131
-133.166
-133.202
-133.237
-133.272
-133.307
-133.342
-133.377
-133.412
-133.447
-133.482
-133.517
-133.552
-133.587
-133.622
-133.657
-133.692
-133.727
-133.762
-133.798
-133.833
-133.868
-133.903
-133.938
-133.973
-134.008
-134.043
-134.078
-134.113
-134.148
-134.183
-134.218
-134.253
-134.288
-134.323
-134.358
-134.393
-134.428
-134.462
-134.497
-134.532
-134.567
-134.602
-134.637
-134.672
-134.706
-134.741
-134.776
-134.811
-134.846
-134.88
-134.915
-134.95
-134.984
-135.019
-135.054
-135.088
-135.123
-135.158
-135.192
-135.227
-135.261
-135.296
-135.33
-135.365
-135.399
-135.433
-135.468
-135.502
-135.536
-135.571
-135.605
-135.639
-135.673
-135.708
-135.742
-135.776
-135.81
-135.844
-135.878
-135.912
-135.946
-135.98
-136.014
-136.048
-136.081
-136.115
-136.149
-136.183
-136.216
-136.25
-136.284
-136.317
-136.351
-136.384
-136.418
-136.451
-136.485
-136.518
-136.551
-136.584
-136.618
-136.651
-136.684
-136.717
-136.75
-136.783
-136.816
-136.849
-136.882
-136.915
-136.947
-136.98
-137.013
-137.045
-137.078
-137.11
-137.143
-137.175
-137.208
-137.24
-137.272
-137.304
-137.337
-137.369
-137.401
-137.433
-137.465
-137.497
-137.528
-137.56
-137.592
-137.624
-137.655
-137.687
-137.718
-137.749
-137.781
-137.812
-137.843
-137.874
-137.906
-137.937
-137.968
-137.998
-138.029
-138.06
-138.091
-138.121
-138.152
-138.183
-138.213
-138.243
-138.274
-138.304
-138.334
-138.364
-138.394
-138.424
-138.454
-138.484
-138.513
-138.543
-138.573
-138.602
-138.631
-138.661
-138.69
-138.719
-138.748
-138.777
-138.806
-138.835
-138.864
-138.892
-138.921
-138.949
-138.978
-139.006
-139.034
-139.063
-139.091
-139.119
-139.146
-139.174
-139.202
-139.23
-139.257
-139.285
-139.312
-139.339
-139.366
-139.393
-139.42
-139.447
-139.474
-139.5
-139.527
-139.553
-139.58
-139.606
-139.632
-139.658
-139.684
-139.709
-139.735
-139.761
-139.786
-139.811
-139.837
-139.862
-139.887
-139.911
-139.936
-139.961
-139.985
-140.01
-140.034
-140.058
-140.082
-140.106
-140.129
-140.153
-140.176
-140.2
-140.223
-140.246
-140.269
-140.291
-140.314
-140.336
-140.359
-140.381
-140.403
-140.425
-140.446
-140.468
-140.489
-140.51
-140.531
-140.552
-140.573
-140.593
-140.613
-140.633
-140.653
-140.673
-140.693
-140.712
-140.731
-140.75
-140.769
-140.787
-140.806
-140.824
-140.842
-140.859
-140.877
-140.894
-140.911
-140.928
-140.944
-140.96
-140.976
-140.992
-141.008
-141.023
-141.038
-141.052
-141.067
-141.081
-141.095
-141.108
-141.121
-141.134
-141.147
-141.159
-141.171
-141.182
-141.193
-141.204
-141.215
-141.225
-141.234
-141.244
-141.253
-141.261
-141.269
-141.277
-141.284
-141.291
-141.297
-141.303
-141.308
-141.313
-141.317
-141.321
-141.324
-141.327
-141.329
-141.331
-141.332
-141.332
-141.332
-141.331
-141.329
-141.327
-141.324
-141.321
-141.316
-141.311
-141.305
-141.299
-141.291
-141.283
-141.274
-141.264
-141.253
-141.241
-141.228
-141.214
-141.2
-141.184
-141.167
-141.149
-141.13
-141.11
-141.088
-141.066
-141.042
-141.016
-140.99
-140.962
-140.933
-140.902
-140.87
-140.836
-140.8
-140.763
-140.725
-140.684
-140.642
-140.598
-140.552
-140.504
-140.454
-140.402
-140.348
-140.292
-140.234
-140.173
-140.11
-140.044
-139.976
-139.905
-139.832
-139.755
-139.676
-139.594
-139.509
-139.421
-139.329
-139.235
-139.137
-139.035
-138.929
-138.82
-138.707
-138.591
-138.47
-138.344
-138.215
-138.081
-137.942
-137.798
-137.65
-137.496
-137.337
-137.173
-137.003
-136.828
-136.646
-136.459
-136.265
-136.064
-135.857
-135.643
-135.422
-135.193
-134.957
-134.713
-134.461
-134.201
-133.932
-133.654
-133.367
-133.07
-132.764
-132.448
-132.121
-131.783
-131.435
-131.075
-130.703
-130.319
-129.922
-129.513
-129.09
-128.653
-128.202
-127.736
-127.255
-126.759
-126.246
-125.716
-125.169
-124.604
-124.02
-123.417
-122.795
-122.152
-121.488
-120.802
-120.094
-119.362
-118.606
-117.825
-117.018
-116.184
-115.322
-114.432
-113.512
-112.561
-111.578
-110.563
-109.512
-108.426
-107.303
-106.142
-104.941
-103.698
-102.412
-101.081
-99.7032
-98.2768
-96.7997
-95.2696
-93.6841
-92.0408
-90.3369
-88.5696
-86.7358
-84.8321
-82.8549
-80.8003
-78.6639
-76.4411
-74.1268
-71.7151
-69.1997
-66.5736
-63.8286
-60.9559
-57.9451
-54.7842
-51.4595
-47.955
-44.2515
-40.3263
-36.152
-31.6953
-26.9153
-21.7622
-16.1762
-10.0901
-3.52317
-10.0058
-39.2152
-65.5583
-86.1348
-101.231
-111.765
-118.793
-123.277
-125.987
-127.494
-128.2
-128.38
-128.224
-127.856
-127.361
-126.793
-126.19
-125.575
-124.962
-124.362
-123.78
-123.219
-122.68
-122.163
-121.668
-121.194
-120.74
-120.304
-119.885
-119.482
-119.093
-118.716
-118.352
-117.999
-117.656
-117.323
-117.001
-116.687
-116.382
-116.087
-115.8
-115.522
-115.253
-114.993
-114.741
-114.499
-114.266
-114.042
-113.826
-113.621
-113.424
-113.237
-113.061
-112.894
-112.737
-112.592
-112.458
-112.335
-112.225
-112.127
-112.043
-111.973
-111.917
-111.878
-111.854
-111.847
-111.859
-111.888
-111.936
-112.003
-112.089
-112.194
-112.317
-112.455
-112.608
-112.772
-112.945
-113.125
-113.309
-113.495
-113.682
-113.868
-114.051
-114.232
-114.409
-114.583
-114.752
-114.917
-115.077
-115.233
-115.384
-115.529
-115.67
-115.807
-115.938
-116.066
-116.189
-116.307
-116.422
-116.533
-116.641
-116.746
-116.849
-116.949
-117.048
-117.145
-117.241
-117.337
-117.433
-117.529
-117.627
-117.725
-117.825
-117.926
-118.028
-118.13
-118.232
-118.334
-118.434
-118.533
-118.63
-118.725
-118.817
-118.907
-118.993
-119.077
-119.158
-119.236
-119.31
-119.382
-119.451
-119.518
-119.581
-119.642
-119.701
-119.757
-119.811
-119.863
-119.914
-119.963
-120.01
-120.056
-120.101
-120.145
-120.188
-120.23
-120.272
-120.314
-120.355
-120.396
-120.437
-120.477
-120.516
-120.555
-120.594
-120.631
-120.667
-120.703
-120.738
-120.771
-120.804
-120.836
-120.867
-120.897
-120.925
-120.954
-120.981
-121.007
-121.033
-121.058
-121.082
-121.106
-121.129
-121.152
-121.175
-121.197
-121.219
-121.241
-121.263
-121.285
-121.307
-121.329
-121.351
-121.372
-121.394
-121.415
-121.435
-121.456
-121.476
-121.495
-121.514
-121.532
-121.55
-121.567
-121.584
-121.601
-121.617
-121.633
-121.649
-121.664
-121.68
-121.695
-121.711
-121.726
-121.742
-121.758
-121.774
-121.79
-121.806
-121.823
-121.84
-121.857
-121.874
-121.891
-121.909
-121.926
-121.944
-121.962
-121.979
-121.997
-122.014
-122.032
-122.049
-122.066
-122.083
-122.101
-122.118
-122.134
-122.151
-122.168
-122.185
-122.201
-122.218
-122.235
-122.251
-122.268
-122.285
-122.301
-122.318
-122.335
-122.352
-122.369
-122.386
-122.403
-122.42
-122.438
-122.455
-122.472
-122.49
-122.507
-122.525
-122.543
-122.561
-122.579
-122.597
-122.615
-122.633
-122.651
-122.67
-122.688
-122.707
-122.726
-122.745
-122.764
-122.784
-122.803
-122.823
-122.842
-122.862
-122.882
-122.902
-122.923
-122.943