/*--------------------------------*- C++ -*----------------------------------*\
| =========                 |                                                 |
| \\      /  F ield         | OpenFOAM: The Open Source CFD Toolbox           |
|  \\    /   O peration     | Version:  2512                                  |
|   \\  /    A nd           | Website:  www.openfoam.com                      |
|    \\/     M anipulation  |                                                 |
\*---------------------------------------------------------------------------*/
FoamFile
{
    version     2.0;
    format      ascii;
    arch        "LSB;label=32;scalar=64";
    class       surfaceScalarField;
    location    "0.001";
    object      phi;
}
// * * * * * * * * * * * * * * * * * * * * * * * * * * * * * * * * * * * * * //

dimensions      [1 0 -1 0 0 0 0];

oriented        oriented;

internalField   nonuniform List<scalar> 
198900
(
0.0014727
0.000467542
0.00106723
0.000405016
0.000821216
0.000245763
0.000676547
0.000144424
0.000591562
8.47417e-05
0.000540467
5.08477e-05
0.000508343
3.18723e-05
0.000486937
2.11496e-05
0.000471807
1.48685e-05
0.00046055
1.09935e-05
0.000451819
8.46414e-06
0.000444826
6.72308e-06
0.000439087
5.46847e-06
0.000434285
4.52981e-06
0.000430205
3.80599e-06
0.000426696
3.23405e-06
0.000423647
2.77299e-06
0.000420975
2.39508e-06
0.000418616
2.08094e-06
0.00041652
1.81673e-06
0.000414648
1.59222e-06
0.000412968
1.39977e-06
0.000411454
1.23348e-06
0.000410083
1.08857e-06
0.00040884
9.61285e-07
0.000407708
8.49177e-07
0.000406674
7.49818e-07
0.000405728
6.61861e-07
0.00040486
5.82822e-07
0.000404063
5.12009e-07
0.000403329
4.47977e-07
0.000402653
3.89762e-07
0.000402029
3.36565e-07
0.000401453
2.87692e-07
0.000400922
2.42827e-07
0.000400432
2.01406e-07
0.000399979
1.63108e-07
0.000399563
1.26805e-07
0.000399181
9.09745e-08
0.00039883
5.96306e-08
0.000398507
3.1747e-08
0.000398208
6.03618e-09
0.000397935
-1.91173e-08
0.000397681
-3.99864e-08
0.000397446
-5.886e-08
0.000397229
-7.81697e-08
0.000397031
-9.66162e-08
0.000396849
-1.13974e-07
0.000396682
-1.30274e-07
0.000396531
-1.45599e-07
0.000396393
-1.60039e-07
0.000396268
-1.73683e-07
0.000396155
-1.86613e-07
0.000396054
-1.98903e-07
0.000395964
-2.10624e-07
0.000395885
-2.21837e-07
0.000395815
-2.32587e-07
0.000395756
-2.42895e-07
0.000395705
-2.52758e-07
0.000395663
-2.62161e-07
0.000395629
-2.71094e-07
0.000395603
-2.79559e-07
0.000395585
-2.87561e-07
0.000395573
-2.95094e-07
0.000395567
-3.02128e-07
0.000395567
-3.08602e-07
0.000395572
-3.14402e-07
0.000395581
-3.19342e-07
0.000395593
-3.23127e-07
0.000395606
-3.25326e-07
0.000395619
-3.25371e-07
0.000395628
-3.22645e-07
0.000395631
-3.16708e-07
0.000395623
-3.07604e-07
0.000395603
-2.9606e-07
0.000395569
-2.83352e-07
0.000395522
-2.70861e-07
0.000395463
-2.59607e-07
0.000395393
-2.50047e-07
0.000395314
-2.42183e-07
0.000395228
-2.35774e-07
0.000395136
-2.30518e-07
0.000395039
-2.26148e-07
0.000394936
-2.22459e-07
0.00039483
-2.19309e-07
0.00039472
-2.16599e-07
0.000394606
-2.14264e-07
0.00039449
-2.12259e-07
0.00039437
-2.10554e-07
0.000394248
-2.09126e-07
0.000394124
-2.07959e-07
0.000393998
-2.07039e-07
0.00039387
-2.06356e-07
0.000393741
-2.05899e-07
0.00039361
-2.05659e-07
0.000393478
-2.05627e-07
0.000393345
-2.05796e-07
0.000393211
-2.06158e-07
0.000393076
-2.06706e-07
0.000392942
-2.07434e-07
0.000392806
-2.08335e-07
0.000392671
-2.094e-07
0.000392536
-2.1062e-07
0.0003924
-2.11982e-07
0.000392265
-2.13468e-07
0.000392131
-2.15056e-07
0.000391997
-2.1671e-07
0.000391863
-2.18371e-07
0.000391729
-2.19941e-07
0.000391596
-2.2127e-07
0.000391462
-2.22147e-07
0.000391327
-2.2233e-07
0.00039119
-2.21609e-07
0.000391049
-2.19902e-07
0.000390905
-2.17327e-07
0.000390757
-2.14191e-07
0.000390604
-2.10895e-07
0.000390446
-2.07794e-07
0.000390284
-2.05106e-07
0.000390119
-2.02896e-07
0.00038995
-2.01123e-07
0.000389779
-1.99704e-07
0.000389605
-1.98559e-07
0.000389429
-1.97632e-07
0.00038925
-1.96886e-07
0.00038907
-1.96299e-07
0.000388887
-1.95859e-07
0.000388703
-1.95557e-07
0.000388517
-1.95384e-07
0.00038833
-1.95336e-07
0.000388141
-1.95408e-07
0.000387951
-1.95595e-07
0.000387759
-1.95893e-07
0.000387567
-1.96295e-07
0.000387373
-1.96795e-07
0.000387179
-1.97385e-07
0.000386983
-1.98051e-07
0.000386787
-1.98775e-07
0.00038659
-1.99538e-07
0.000386392
-2.00322e-07
0.000386193
-2.0112e-07
0.000385994
-2.01933e-07
0.000385794
-2.02756e-07
0.000385592
-2.03575e-07
0.00038539
-2.04355e-07
0.000385188
-2.05043e-07
0.000384984
-2.0558e-07
0.000384778
-2.05906e-07
0.000384571
-2.05984e-07
0.000384362
-2.05825e-07
0.000384152
-2.05495e-07
0.000383939
-2.05101e-07
0.000383724
-2.04745e-07
0.000383507
-2.0449e-07
0.000383288
-2.0435e-07
0.000383068
-2.04307e-07
0.000382845
-2.04337e-07
0.000382621
-2.0442e-07
0.000382396
-2.04544e-07
0.000382169
-2.04704e-07
0.00038194
-2.049e-07
0.00038171
-2.0513e-07
0.000381478
-2.05397e-07
0.000381245
-2.05703e-07
0.00038101
-2.06046e-07
0.000380774
-2.06428e-07
0.000380536
-2.06847e-07
0.000380297
-2.07304e-07
0.000380057
-2.07799e-07
0.000379815
-2.08332e-07
0.000379572
-2.08903e-07
0.000379328
-2.09509e-07
0.000379083
-2.1014e-07
0.000378836
-2.10795e-07
0.000378588
-2.11455e-07
0.000378339
-2.12097e-07
0.000378089
-2.12696e-07
0.000377837
-2.13229e-07
0.000377584
-2.1367e-07
0.000377329
-2.13995e-07
0.000377073
-2.14192e-07
0.000376815
-2.14267e-07
0.000376554
-2.14251e-07
0.000376292
-2.14194e-07
0.000376028
-2.1415e-07
0.000375761
-2.14157e-07
0.000375493
-2.1424e-07
0.000375223
-2.14405e-07
0.000374952
-2.14651e-07
0.000374678
-2.14973e-07
0.000374403
-2.15366e-07
0.000374127
-2.15826e-07
0.000373849
-2.16351e-07
0.000373569
-2.16937e-07
0.000373289
-2.17579e-07
0.000373007
-2.18269e-07
0.000372723
-2.18994e-07
0.000372438
-2.1974e-07
0.000372152
-2.20492e-07
0.000371865
-2.21237e-07
0.000371577
-2.21963e-07
0.000371287
-2.22664e-07
0.000370995
-2.23337e-07
0.000370702
-2.23982e-07
0.000370408
-2.24598e-07
0.000370112
-2.25184e-07
0.000369815
-2.25734e-07
0.000369516
-2.26245e-07
0.000369216
-2.2671e-07
0.000368913
-2.27128e-07
0.000368609
-2.275e-07
0.000368304
-2.2783e-07
0.000367996
-2.28131e-07
0.000367687
-2.28417e-07
0.000367376
-2.28705e-07
0.000367062
-2.29008e-07
0.000366748
-2.29334e-07
0.000366431
-2.29686e-07
0.000366112
-2.30065e-07
0.000365792
-2.30469e-07
0.00036547
-2.30898e-07
0.000365147
-2.3135e-07
0.000364821
-2.31823e-07
0.000364494
-2.32317e-07
0.000364166
-2.32831e-07
0.000363835
-2.33362e-07
0.000363503
-2.3391e-07
0.00036317
-2.34473e-07
0.000362834
-2.3505e-07
0.000362497
-2.3564e-07
0.000362159
-2.36242e-07
0.000361819
-2.36855e-07
0.000361477
-2.37477e-07
0.000361134
-2.38105e-07
0.000360789
-2.38735e-07
0.000360443
-2.39364e-07
0.000360095
-2.39987e-07
0.000359745
-2.40601e-07
0.000359394
-2.41206e-07
0.000359041
-2.41802e-07
0.000358686
-2.42393e-07
0.00035833
-2.42984e-07
0.000357972
-2.43579e-07
0.000357613
-2.44182e-07
0.000357252
-2.44794e-07
0.000356889
-2.45417e-07
0.000356524
-2.46052e-07
0.000356158
-2.46699e-07
0.000355791
-2.47357e-07
0.000355421
-2.48026e-07
0.000355051
-2.48703e-07
0.000354678
-2.49386e-07
0.000354304
-2.50073e-07
0.000353928
-2.5076e-07
0.000353551
-2.51447e-07
0.000353172
-2.52134e-07
0.000352792
-2.52821e-07
0.00035241
-2.53509e-07
0.000352026
-2.54199e-07
0.000351641
-2.54892e-07
0.000351254
-2.55587e-07
0.000350866
-2.56284e-07
0.000350476
-2.56982e-07
0.000350084
-2.57681e-07
0.000349691
-2.5838e-07
0.000349296
-2.5908e-07
0.000348899
-2.5978e-07
0.000348501
-2.60481e-07
0.000348102
-2.61184e-07
0.0003477
-2.61891e-07
0.000347297
-2.62601e-07
0.000346893
-2.63318e-07
0.000346487
-2.64041e-07
0.000346079
-2.64771e-07
0.00034567
-2.6551e-07
0.000345259
-2.66257e-07
0.000344847
-2.67012e-07
0.000344433
-2.67774e-07
0.000344017
-2.68541e-07
0.0003436
-2.69312e-07
0.000343182
-2.70086e-07
0.000342762
-2.70864e-07
0.00034234
-2.71644e-07
0.000341917
-2.72427e-07
0.000341492
-2.73213e-07
0.000341065
-2.74003e-07
0.000340638
-2.74796e-07
0.000340208
-2.75593e-07
0.000339777
-2.76394e-07
0.000339345
-2.77199e-07
0.000338911
-2.78008e-07
0.000338476
-2.78821e-07
0.000338039
-2.79639e-07
0.0003376
-2.80462e-07
0.00033716
-2.81289e-07
0.000336719
-2.82121e-07
0.000336276
-2.82957e-07
0.000335831
-2.83798e-07
0.000335385
-2.84644e-07
0.000334938
-2.85495e-07
0.000334489
-2.86352e-07
0.000334039
-2.87214e-07
0.000333587
-2.88082e-07
0.000333134
-2.88954e-07
0.000332679
-2.89832e-07
0.000332223
-2.90716e-07
0.000331766
-2.91604e-07
0.000331307
-2.92498e-07
0.000330847
-2.93398e-07
0.000330385
-2.94303e-07
0.000329922
-2.95213e-07
0.000329457
-2.9613e-07
0.000328991
-2.97051e-07
0.000328524
-2.97978e-07
0.000328055
-2.98911e-07
0.000327585
-2.99848e-07
0.000327114
-3.00791e-07
0.000326641
-3.01741e-07
0.000326167
-3.02696e-07
0.000325692
-3.03657e-07
0.000325215
-3.04624e-07
0.000324737
-3.05596e-07
0.000324257
-3.06573e-07
0.000323777
-3.07555e-07
0.000323295
-3.08544e-07
0.000322812
-3.09537e-07
0.000322327
-3.10537e-07
0.000321841
-3.11542e-07
0.000321354
-3.12553e-07
0.000320866
-3.1357e-07
0.000320376
-3.14592e-07
0.000319886
-3.15619e-07
0.000319394
-3.16652e-07
0.0003189
-3.17691e-07
0.000318406
-3.18735e-07
0.00031791
-3.19787e-07
0.000317413
-3.20844e-07
0.000316915
-3.21908e-07
0.000316416
-3.22978e-07
0.000315916
-3.24053e-07
0.000315414
-3.25134e-07
0.000314912
-3.26221e-07
0.000314408
-3.27314e-07
0.000313903
-3.28413e-07
0.000313397
-3.29517e-07
0.00031289
-3.30628e-07
0.000312382
-3.31744e-07
0.000311873
-3.32866e-07
0.000311362
-3.33994e-07
0.000310851
-3.35128e-07
0.000310338
-3.36268e-07
0.000309825
-3.37414e-07
0.00030931
-3.38566e-07
0.000308795
-3.39724e-07
0.000308278
-3.40889e-07
0.000307761
-3.4206e-07
0.000307242
-3.43237e-07
0.000306723
-3.4442e-07
0.000306202
-3.45608e-07
0.000305681
-3.46803e-07
0.000305158
-3.48004e-07
0.000304635
-3.49211e-07
0.000304111
-3.50425e-07
0.000303585
-3.51645e-07
0.000303059
-3.5287e-07
0.000302532
-3.54102e-07
0.000302005
-3.55338e-07
0.000301476
-3.56581e-07
0.000300946
-3.57829e-07
0.000300416
-3.59085e-07
0.000299885
-3.60346e-07
0.000299353
-3.61615e-07
0.00029882
-3.62889e-07
0.000298286
-3.6417e-07
0.000297752
-3.65457e-07
0.000297216
-3.6675e-07
0.00029668
-3.68049e-07
0.000296144
-3.69355e-07
0.000295606
-3.70667e-07
0.000295068
-3.71984e-07
0.000294529
-3.73308e-07
0.00029399
-3.74639e-07
0.000293449
-3.75975e-07
0.000292908
-3.77318e-07
0.000292367
-3.78667e-07
0.000291825
-3.80021e-07
0.000291282
-3.81383e-07
0.000290738
-3.8275e-07
0.000290194
-3.84125e-07
0.00028965
-3.85505e-07
0.000289104
-3.86893e-07
0.000288558
-3.88287e-07
0.000288012
-3.89687e-07
0.000287465
-3.91093e-07
0.000286918
-3.92506e-07
0.00028637
-3.93924e-07
0.000285821
-3.95349e-07
0.000285272
-3.9678e-07
0.000284723
-3.98217e-07
0.000284173
-3.99661e-07
0.000283623
-4.0111e-07
0.000283072
-4.02564e-07
0.000282521
-4.04026e-07
0.000281969
-4.05494e-07
0.000281417
-4.06969e-07
0.000280865
-4.0845e-07
0.000280312
-4.09938e-07
0.000279759
-4.11433e-07
0.000279206
-4.12934e-07
0.000278652
-4.1444e-07
0.000278098
-4.15953e-07
0.000277544
-4.17472e-07
0.00027699
-4.18998e-07
0.000276435
-4.2053e-07
0.00027588
-4.22068e-07
0.000275325
-4.23612e-07
0.000274769
-4.25163e-07
0.000274213
-4.2672e-07
0.000273658
-4.28284e-07
0.000273102
-4.29853e-07
0.000272545
-4.31429e-07
0.000271989
-4.33012e-07
0.000271433
-4.346e-07
0.000270876
-4.36195e-07
0.000270319
-4.37797e-07
0.000269763
-4.39404e-07
0.000269206
-4.41019e-07
0.000268649
-4.4264e-07
0.000268092
-4.44267e-07
0.000267535
-4.459e-07
0.000266978
-4.4754e-07
0.000266422
-4.49185e-07
0.000265865
-4.50837e-07
0.000265308
-4.52495e-07
0.000264751
-4.54159e-07
0.000264195
-4.55829e-07
0.000263638
-4.57504e-07
0.000263082
-4.59186e-07
0.000262525
-4.60875e-07
0.000261969
-4.6257e-07
0.000261413
-4.64272e-07
0.000260857
-4.6598e-07
0.000260301
-4.67695e-07
0.000259746
-4.69416e-07
0.000259191
-4.71142e-07
0.000258636
-4.72875e-07
0.000258081
-4.74614e-07
0.000257526
-4.76359e-07
0.000256972
-4.78111e-07
0.000256418
-4.79868e-07
0.000255865
-4.81632e-07
0.000255311
-4.83402e-07
0.000254758
-4.85178e-07
0.000254206
-4.86961e-07
0.000253654
-4.88749e-07
0.000253102
-4.90543e-07
0.00025255
-4.92344e-07
0.000251999
-4.9415e-07
0.000251449
-4.95962e-07
0.000250899
-4.9778e-07
0.000250349
-4.99605e-07
0.0002498
-5.01436e-07
0.000249252
-5.03273e-07
0.000248704
-5.05116e-07
0.000248156
-5.06966e-07
0.000247609
-5.08822e-07
0.000247063
-5.10683e-07
0.000246517
-5.1255e-07
0.000245972
-5.14423e-07
0.000245428
-5.16302e-07
0.000244884
-5.18186e-07
0.000244341
-5.20075e-07
0.000243798
-5.21971e-07
0.000243257
-5.23873e-07
0.000242716
-5.25782e-07
0.000242175
-5.27696e-07
0.000241636
-5.29617e-07
0.000241097
-5.31544e-07
0.000240559
-5.33476e-07
0.000240022
-5.35414e-07
0.000239485
-5.37358e-07
0.00023895
-5.39308e-07
0.000238415
-5.41263e-07
0.000237881
-5.43224e-07
0.000237348
-5.45191e-07
0.000236816
-5.47164e-07
0.000236285
-5.49142e-07
0.000235755
-5.51126e-07
0.000235226
-5.53116e-07
0.000234697
-5.55111e-07
0.00023417
-5.57112e-07
0.000233644
-5.59119e-07
0.000233118
-5.61131e-07
0.000232594
-5.63149e-07
0.000232071
-5.65172e-07
0.000231549
-5.67201e-07
0.000231028
-5.69236e-07
0.000230508
-5.71276e-07
0.000229989
-5.73323e-07
0.000229472
-5.75374e-07
0.000228955
-5.77432e-07
0.00022844
-5.79494e-07
0.000227926
-5.81562e-07
0.000227413
-5.83635e-07
0.000226902
-5.85713e-07
0.000226391
-5.87796e-07
0.000225882
-5.89884e-07
0.000225374
-5.91977e-07
0.000224868
-5.94076e-07
0.000224362
-5.96181e-07
0.000223858
-5.98291e-07
0.000223356
-6.00407e-07
0.000222855
-6.02528e-07
0.000222355
-6.04655e-07
0.000221857
-6.06786e-07
0.00022136
-6.08923e-07
0.000220864
-6.11064e-07
0.00022037
-6.13211e-07
0.000219877
-6.15363e-07
0.000219386
-6.17519e-07
0.000218897
-6.19681e-07
0.000218409
-6.21848e-07
0.000217922
-6.2402e-07
0.000217437
-6.26197e-07
0.000216954
-6.28378e-07
0.000216472
-6.30565e-07
0.000215992
-6.32757e-07
0.000215513
-6.34953e-07
0.000215036
-6.37155e-07
0.000214561
-6.39361e-07
0.000214087
-6.41572e-07
0.000213615
-6.43787e-07
0.000213145
-6.46008e-07
0.000212676
-6.48233e-07
0.00021221
-6.50463e-07
0.000211745
-6.52698e-07
0.000211281
-6.54938e-07
0.00021082
-6.57182e-07
0.00021036
-6.59431e-07
0.000209902
-6.61684e-07
0.000209447
-6.63941e-07
0.000208992
-6.66202e-07
0.00020854
-6.68467e-07
0.00020809
-6.70737e-07
0.000207641
-6.73013e-07
0.000207195
-6.75292e-07
0.00020675
-6.77577e-07
0.000206308
-6.79865e-07
0.000205867
-6.82158e-07
0.000205429
-6.84455e-07
0.000204992
-6.86756e-07
0.000204557
-6.89062e-07
0.000204125
-6.91371e-07
0.000203694
-6.93685e-07
0.000203266
-6.96003e-07
0.00020284
-6.98325e-07
0.000202415
-7.00651e-07
0.000201993
-7.02981e-07
0.000201573
-7.05315e-07
0.000201156
-7.07653e-07
0.00020074
-7.09995e-07
0.000200327
-7.1234e-07
0.000199915
-7.1469e-07
0.000199506
-7.17043e-07
0.0001991
-7.19401e-07
0.000198695
-7.21762e-07
0.000198293
-7.24126e-07
0.000197893
-7.26495e-07
0.000197495
-7.28867e-07
0.0001971
-7.31242e-07
0.000196707
-7.33622e-07
0.000196316
-7.36005e-07
0.000195928
-7.38392e-07
0.000195542
-7.40782e-07
0.000195158
-7.43175e-07
0.000194777
-7.45572e-07
0.000194398
-7.47971e-07
0.000194022
-7.50373e-07
0.000193648
-7.52779e-07
0.000193277
-7.55189e-07
0.000192908
-7.57602e-07
0.000192541
-7.60019e-07
0.000192177
-7.62439e-07
0.000191816
-7.64863e-07
0.000191457
-7.67289e-07
0.000191101
-7.69718e-07
0.000190747
-7.7215e-07
0.000190396
-7.74585e-07
0.000190048
-7.77023e-07
0.000189702
-7.79464e-07
0.000189358
-7.81908e-07
0.000189018
-7.84354e-07
0.00018868
-7.86804e-07
0.000188345
-7.89256e-07
0.000188012
-7.9171e-07
0.000187682
-7.94168e-07
0.000187355
-7.96628e-07
0.00018703
-7.99091e-07
0.000186709
-8.01556e-07
0.00018639
-8.04024e-07
0.000186073
-8.06494e-07
0.00018576
-8.08967e-07
0.000185449
-8.11442e-07
0.000185142
-8.13919e-07
0.000184837
-8.16399e-07
0.000184535
-8.18881e-07
0.000184235
-8.21366e-07
0.000183939
-8.23852e-07
0.000183645
-8.26341e-07
0.000183355
-8.28832e-07
0.000183067
-8.31325e-07
0.000182782
-8.33819e-07
0.0001825
-8.36315e-07
0.000182221
-8.38813e-07
0.000181945
-8.41313e-07
0.000181672
-8.43816e-07
0.000181402
-8.46321e-07
0.000181135
-8.48828e-07
0.000180871
-8.51336e-07
0.00018061
-8.53846e-07
0.000180352
-8.56358e-07
0.000180097
-8.58871e-07
0.000179845
-8.61385e-07
0.000179596
-8.63901e-07
0.000179351
-8.66419e-07
0.000179108
-8.68938e-07
0.000178868
-8.71458e-07
0.000178632
-8.7398e-07
0.000178399
-8.76504e-07
0.000178169
-8.79028e-07
0.000177941
-8.81553e-07
0.000177718
-8.8408e-07
0.000177497
-8.86608e-07
0.000177279
-8.89137e-07
0.000177065
-8.91667e-07
0.000176854
-8.94198e-07
0.000176646
-8.9673e-07
0.000176441
-8.99263e-07
0.00017624
-9.01797e-07
0.000176042
-9.04331e-07
0.000175847
-9.06867e-07
0.000175655
-9.09403e-07
0.000175467
-9.11939e-07
0.000175282
-9.14477e-07
0.0001751
-9.17015e-07
0.000174922
-9.19553e-07
0.000174746
-9.22092e-07
0.000174575
-9.2463e-07
0.000174406
-9.27169e-07
0.000174241
-9.29709e-07
0.000174079
-9.32249e-07
0.000173921
-9.3479e-07
0.000173766
-9.37332e-07
0.000173614
-9.39874e-07
0.000173466
-9.42415e-07
0.000173321
-9.44957e-07
0.00017318
-9.47499e-07
0.000173042
-9.5004e-07
0.000172907
-9.52581e-07
0.000172776
-9.55123e-07
0.000172648
-9.57664e-07
0.000172524
-9.60205e-07
0.000172403
-9.62745e-07
0.000172286
-9.65286e-07
0.000172172
-9.67826e-07
0.000172062
-9.70365e-07
0.000171955
-9.72904e-07
0.000171852
-9.75443e-07
0.000171752
-9.77981e-07
0.000171656
-9.80519e-07
0.000171563
-9.83056e-07
0.000171474
-9.85592e-07
0.000171388
-9.88127e-07
0.000171306
-9.90662e-07
0.000171228
-9.93196e-07
0.000171153
-9.95729e-07
0.000171081
-9.98262e-07
0.000171014
-1.00079e-06
0.000170949
-1.00332e-06
0.000170889
-1.00585e-06
0.000170832
-1.00838e-06
0.000170778
-1.01091e-06
0.000170728
-1.01343e-06
0.000170682
-1.01595e-06
0.000170639
-1.01847e-06
0.0001706
-1.021e-06
0.000170565
-1.02352e-06
0.000170533
-1.02603e-06
0.000170505
-1.02855e-06
0.000170481
-1.03107e-06
0.00017046
-1.03358e-06
0.000170443
-1.03609e-06
0.00017043
-1.03861e-06
0.00017042
-1.04111e-06
0.000170414
-1.04362e-06
0.000170411
-1.04613e-06
0.000170413
-1.04863e-06
0.000170418
-1.05113e-06
0.000170426
-1.05363e-06
0.000170439
-1.05613e-06
0.000170455
-1.05862e-06
0.000170474
-1.06111e-06
0.000170498
-1.0636e-06
0.000170525
-1.06609e-06
0.000170556
-1.06858e-06
0.000170591
-1.07106e-06
0.000170629
-1.07354e-06
0.000170671
-1.07602e-06
0.000170717
-1.0785e-06
0.000170766
-1.08097e-06
0.000170819
-1.08344e-06
0.000170876
-1.08591e-06
0.000170937
-1.08838e-06
0.000171002
-1.09084e-06
0.00017107
-1.0933e-06
0.000171142
-1.09576e-06
0.000171217
-1.09821e-06
0.000171297
-1.10066e-06
0.00017138
-1.10311e-06
0.000171467
-1.10555e-06
0.000171558
-1.10799e-06
0.000171652
-1.11043e-06
0.00017175
-1.11287e-06
0.000171852
-1.1153e-06
0.000171958
-1.11773e-06
0.000172068
-1.12015e-06
0.000172181
-1.12258e-06
0.000172298
-1.125e-06
0.000172419
-1.12741e-06
0.000172543
-1.12982e-06
0.000172672
-1.13223e-06
0.000172804
-1.13463e-06
0.000172939
-1.13703e-06
0.000173079
-1.13943e-06
0.000173222
-1.14182e-06
0.00017337
-1.14421e-06
0.00017352
-1.1466e-06
0.000173675
-1.14898e-06
0.000173833
-1.15135e-06
0.000173996
-1.15373e-06
0.000174162
-1.1561e-06
0.000174331
-1.15846e-06
0.000174505
-1.16082e-06
0.000174682
-1.16318e-06
0.000174863
-1.16553e-06
0.000175048
-1.16788e-06
0.000175236
-1.17022e-06
0.000175428
-1.17256e-06
0.000175624
-1.17489e-06
0.000175824
-1.17722e-06
0.000176027
-1.17954e-06
0.000176234
-1.18186e-06
0.000176445
-1.18417e-06
0.00017666
-1.18648e-06
0.000176878
-1.18879e-06
0.0001771
-1.19109e-06
0.000177326
-1.19339e-06
0.000177556
-1.19568e-06
0.000177789
-1.19797e-06
0.000178026
-1.20025e-06
0.000178267
-1.20252e-06
0.000178511
-1.20479e-06
0.000178759
-1.20706e-06
0.000179011
-1.20932e-06
0.000179266
-1.21157e-06
0.000179526
-1.21382e-06
0.000179789
-1.21606e-06
0.000180055
-1.2183e-06
0.000180325
-1.22053e-06
0.000180599
-1.22276e-06
0.000180877
-1.22498e-06
0.000181158
-1.2272e-06
0.000181443
-1.22941e-06
0.000181731
-1.23161e-06
0.000182024
-1.23381e-06
0.000182319
-1.236e-06
0.000182619
-1.23819e-06
0.000182922
-1.24037e-06
0.000183229
-1.24254e-06
0.000183539
-1.24471e-06
0.000183853
-1.24687e-06
0.000184171
-1.24903e-06
0.000184492
-1.25118e-06
0.000184816
-1.25332e-06
0.000185145
-1.25546e-06
0.000185477
-1.25759e-06
0.000185812
-1.25972e-06
0.000186151
-1.26184e-06
0.000186494
-1.26395e-06
0.00018684
-1.26605e-06
0.00018719
-1.26815e-06
0.000187543
-1.27024e-06
0.0001879
-1.27233e-06
0.00018826
-1.27441e-06
0.000188624
-1.27648e-06
0.000188991
-1.27855e-06
0.000189362
-1.2806e-06
0.000189736
-1.28265e-06
0.000190114
-1.2847e-06
0.000190495
-1.28673e-06
0.00019088
-1.28876e-06
0.000191268
-1.29079e-06
0.000191659
-1.2928e-06
0.000192054
-1.29481e-06
0.000192453
-1.29681e-06
0.000192855
-1.29881e-06
0.00019326
-1.3008e-06
0.000193669
-1.30278e-06
0.000194081
-1.30475e-06
0.000194496
-1.30671e-06
0.000194915
-1.30867e-06
0.000195337
-1.31062e-06
0.000195762
-1.31256e-06
0.000196191
-1.3145e-06
0.000196623
-1.31642e-06
0.000197059
-1.31834e-06
0.000197497
-1.32025e-06
0.00019794
-1.32216e-06
0.000198385
-1.32405e-06
0.000198833
-1.32594e-06
0.000199285
-1.32782e-06
0.00019974
-1.32969e-06
0.000200199
-1.33156e-06
0.00020066
-1.33341e-06
0.000201125
-1.33526e-06
0.000201593
-1.3371e-06
0.000202064
-1.33893e-06
0.000202539
-1.34076e-06
0.000203016
-1.34257e-06
0.000203497
-1.34438e-06
0.00020398
-1.34617e-06
0.000204467
-1.34796e-06
0.000204957
-1.34975e-06
0.000205451
-1.35152e-06
0.000205947
-1.35328e-06
0.000206446
-1.35504e-06
0.000206948
-1.35678e-06
0.000207454
-1.35852e-06
0.000207962
-1.36025e-06
0.000208474
-1.36197e-06
0.000208988
-1.36369e-06
0.000209506
-1.36539e-06
0.000210026
-1.36708e-06
0.00021055
-1.36877e-06
0.000211076
-1.37045e-06
0.000211605
-1.37211e-06
0.000212138
-1.37377e-06
0.000212673
-1.37542e-06
0.000213211
-1.37706e-06
0.000213752
-1.37869e-06
0.000214296
-1.38032e-06
0.000214842
-1.38193e-06
0.000215392
-1.38353e-06
0.000215944
-1.38512e-06
0.000216499
-1.38671e-06
0.000217057
-1.38828e-06
0.000217618
-1.38985e-06
0.000218181
-1.39141e-06
0.000218747
-1.39295e-06
0.000219316
-1.39449e-06
0.000219888
-1.39602e-06
0.000220462
-1.39754e-06
0.000221039
-1.39905e-06
0.000221619
-1.40055e-06
0.000222201
-1.40203e-06
0.000222786
-1.40351e-06
0.000223374
-1.40498e-06
0.000223964
-1.40644e-06
0.000224557
-1.40789e-06
0.000225152
-1.40933e-06
0.00022575
-1.41076e-06
0.000226351
-1.41218e-06
0.000226954
-1.41358e-06
0.000227559
-1.41498e-06
0.000228167
-1.41637e-06
0.000228777
-1.41775e-06
0.00022939
-1.41911e-06
0.000230005
-1.42047e-06
0.000230623
-1.42182e-06
0.000231243
-1.42315e-06
0.000231865
-1.42448e-06
0.00023249
-1.42579e-06
0.000233117
-1.42709e-06
0.000233747
-1.42839e-06
0.000234378
-1.42967e-06
0.000235012
-1.43094e-06
0.000235649
-1.43219e-06
0.000236287
-1.43344e-06
0.000236928
-1.43468e-06
0.000237571
-1.4359e-06
0.000238216
-1.43711e-06
0.000238863
-1.43832e-06
0.000239513
-1.43951e-06
0.000240164
-1.44069e-06
0.000240818
-1.44186e-06
0.000241473
-1.44301e-06
0.000242131
-1.44416e-06
0.000242791
-1.44529e-06
0.000243453
-1.44641e-06
0.000244117
-1.44751e-06
0.000244783
-1.44861e-06
0.00024545
-1.44969e-06
0.00024612
-1.45076e-06
0.000246792
-1.45181e-06
0.000247465
-1.45285e-06
0.000248141
-1.45388e-06
0.000248818
-1.4549e-06
0.000249497
-1.4559e-06
0.000250178
-1.45689e-06
0.000250861
-1.45786e-06
0.000251545
-1.45882e-06
0.000252231
-1.45976e-06
0.000252919
-1.46069e-06
0.000253609
-1.46161e-06
0.0002543
-1.46251e-06
0.000254993
-1.46339e-06
0.000255687
-1.46426e-06
0.000256383
-1.46511e-06
0.000257081
-1.46594e-06
0.00025778
-1.46676e-06
0.000258481
-1.46755e-06
0.000259183
-1.46833e-06
0.000259886
-1.4691e-06
0.000260591
-1.46984e-06
0.000261297
-1.47056e-06
0.000262005
-1.47126e-06
0.000262714
-1.47194e-06
0.000263425
-1.4726e-06
0.000264136
-1.47324e-06
0.000264849
-1.47386e-06
0.000265563
-1.47445e-06
0.000266278
-1.47501e-06
0.000266994
-1.47555e-06
0.000267712
-1.47606e-06
0.00026843
-1.47655e-06
0.00026915
-1.477e-06
0.00026987
-1.47743e-06
0.000270592
-1.47782e-06
0.000271314
-1.47818e-06
0.000272037
-1.47851e-06
0.000272761
-1.47879e-06
0.000273486
-1.47904e-06
0.000274211
-1.47925e-06
0.000274937
-1.47942e-06
0.000275664
-1.47954e-06
0.000276391
-1.47961e-06
0.000277118
-1.47964e-06
0.000277846
-1.47961e-06
0.000278575
-1.47952e-06
0.000279303
-1.47937e-06
0.000280032
-1.47916e-06
0.000280761
-1.47889e-06
0.00028149
-1.47854e-06
0.000282219
-1.47811e-06
0.000282948
-1.4776e-06
0.000283677
-1.477e-06
0.000284405
-1.4763e-06
0.000285133
-1.47551e-06
0.00028586
-1.4746e-06
0.000286586
-1.47358e-06
0.000287312
-1.47242e-06
0.000288037
-1.47113e-06
0.00028876
-1.46968e-06
0.000289482
-1.46808e-06
0.000290203
-1.46629e-06
0.000290922
-1.46431e-06
0.000291639
-1.46212e-06
0.000292354
-1.4597e-06
0.000293066
-1.45702e-06
0.000293776
-1.45407e-06
0.000294483
-1.45082e-06
0.000295186
-1.44723e-06
0.000295886
-1.44327e-06
0.000296581
-1.43891e-06
0.000297272
-1.43409e-06
0.000297957
-1.42878e-06
0.000298637
-1.42291e-06
0.000299311
-1.41641e-06
0.000299977
-1.40923e-06
0.000300636
-1.40126e-06
0.000301286
-1.39242e-06
0.000301926
-1.3826e-06
0.000302555
-1.37167e-06
0.000303172
-1.35948e-06
0.000303776
-1.34586e-06
0.000304365
-1.3306e-06
0.000304936
-1.31347e-06
0.000305488
-1.29415e-06
0.000306019
-1.27229e-06
0.000306524
-1.24739e-06
0.000307001
-1.21882e-06
0.000307445
-1.18565e-06
0.00030785
-1.14651e-06
0.000308207
-1.09922e-06
0.000308505
-1.04017e-06
0.000308727
-9.63333e-07
0.000308845
-8.59758e-07
0.000308821
-7.18644e-07
0.000308582
-5.02549e-07
-1.10859e-07
0.00196629
0.000440926
0.0018122
0.000558405
0.00162681
0.000430555
0.00147775
0.000292901
0.00136979
0.000192119
0.00129387
0.00012618
0.00124016
8.49973e-05
0.00120124
5.94724e-05
0.00117218
4.3333e-05
0.00114982
3.27582e-05
0.00113215
2.55398e-05
0.00111786
2.04131e-05
0.00110609
1.66411e-05
0.00109624
1.37807e-05
0.00108789
1.15557e-05
0.00108073
9.78753e-06
0.00107454
8.3567e-06
0.00106915
7.1808e-06
0.00106442
6.20146e-06
0.00106026
5.37636e-06
0.00105657
4.67423e-06
0.00105329
4.07169e-06
0.00105036
3.55041e-06
0.00104775
3.09608e-06
0.0010454
2.69743e-06
0.00104329
2.34585e-06
0.0010414
2.03384e-06
0.00103969
1.75593e-06
0.00103815
1.50732e-06
0.00103677
1.28363e-06
0.00103552
1.08115e-06
0.0010344
8.96921e-07
0.00103339
7.28599e-07
0.00103249
5.73874e-07
0.00103168
4.30898e-07
0.00103096
2.98429e-07
0.00103033
1.77872e-07
0.00102976
7.43306e-08
0.00102926
-3.54503e-08
0.00102884
-1.41763e-07
0.00102848
-2.32013e-07
0.00102818
-3.15363e-07
0.00102793
-3.92863e-07
0.00102772
-4.643e-07
0.00102757
-5.30768e-07
0.00102745
-5.93439e-07
0.00102738
-6.52495e-07
0.00102734
-7.08124e-07
0.00102734
-7.60564e-07
0.00102737
-8.10066e-07
0.00102743
-8.56879e-07
0.00102752
-9.01244e-07
0.00102764
-9.43386e-07
0.00102779
-9.83517e-07
0.00102796
-1.02184e-06
0.00102816
-1.05852e-06
0.00102838
-1.09369e-06
0.00102862
-1.12741e-06
0.00102888
-1.15967e-06
0.00102916
-1.19043e-06
0.00102946
-1.21966e-06
0.00102978
-1.24733e-06
0.00103012
-1.27345e-06
0.00103047
-1.29795e-06
0.00103084
-1.32072e-06
0.00103122
-1.34152e-06
0.0010316
-1.35995e-06
0.001032
-1.37541e-06
0.00103241
-1.38695e-06
0.00103282
-1.39327e-06
0.00103322
-1.39266e-06
0.00103362
-1.38331e-06
0.001034
-1.36396e-06
0.00103436
-1.33475e-06
0.0010347
-1.29785e-06
0.001035
-1.25706e-06
0.00103527
-1.2166e-06
0.00103552
-1.17965e-06
0.00103574
-1.14777e-06
0.00103595
-1.12112e-06
0.00103613
-1.09908e-06
0.0010363
-1.08079e-06
0.00103646
-1.06545e-06
0.0010366
-1.05245e-06
0.00103674
-1.04131e-06
0.00103687
-1.03172e-06
0.00103699
-1.02345e-06
0.0010371
-1.01636e-06
0.00103721
-1.01033e-06
0.00103731
-1.00527e-06
0.0010374
-1.00114e-06
0.0010375
-9.97864e-07
0.00103758
-9.95419e-07
0.00103767
-9.93762e-07
0.00103775
-9.92859e-07
0.00103783
-9.92679e-07
0.00103791
-9.93193e-07
0.00103799
-9.94372e-07
0.00103806
-9.96191e-07
0.00103814
-9.98621e-07
0.00103821
-1.00163e-06
0.00103829
-1.0052e-06
0.00103836
-1.00927e-06
0.00103844
-1.0138e-06
0.00103852
-1.01874e-06
0.0010386
-1.02398e-06
0.00103868
-1.02942e-06
0.00103877
-1.03484e-06
0.00103885
-1.03994e-06
0.00103893
-1.04424e-06
0.00103902
-1.0471e-06
0.0010391
-1.04777e-06
0.00103918
-1.0456e-06
0.00103925
-1.04033e-06
0.00103932
-1.03228e-06
0.00103938
-1.02239e-06
0.00103942
-1.01189e-06
0.00103946
-1.00189e-06
0.00103949
-9.9311e-07
0.00103951
-9.8579e-07
0.00103952
-9.79844e-07
0.00103953
-9.75042e-07
0.00103953
-9.71153e-07
0.00103953
-9.68002e-07
0.00103952
-9.65476e-07
0.00103951
-9.63506e-07
0.0010395
-9.62043e-07
0.00103948
-9.61056e-07
0.00103946
-9.60518e-07
0.00103944
-9.60408e-07
0.00103941
-9.60709e-07
0.00103939
-9.61403e-07
0.00103936
-9.62471e-07
0.00103933
-9.63895e-07
0.00103929
-9.65653e-07
0.00103926
-9.67714e-07
0.00103922
-9.70037e-07
0.00103919
-9.72565e-07
0.00103915
-9.75237e-07
0.00103911
-9.78e-07
0.00103907
-9.80823e-07
0.00103903
-9.83694e-07
0.00103899
-9.8659e-07
0.00103895
-9.89453e-07
0.00103891
-9.92167e-07
0.00103887
-9.94572e-07
0.00103882
-9.96478e-07
0.00103877
-9.97704e-07
0.00103872
-9.98142e-07
0.00103867
-9.97823e-07
0.00103861
-9.96956e-07
0.00103855
-9.95871e-07
0.00103849
-9.94887e-07
0.00103842
-9.942e-07
0.00103835
-9.93859e-07
0.00103828
-9.93819e-07
0.0010382
-9.94008e-07
0.00103812
-9.94368e-07
0.00103804
-9.94864e-07
0.00103796
-9.95482e-07
0.00103787
-9.96219e-07
0.00103778
-9.97075e-07
0.00103769
-9.98055e-07
0.00103759
-9.9916e-07
0.00103749
-1.00039e-06
0.0010374
-1.00175e-06
0.00103729
-1.00323e-06
0.00103719
-1.00484e-06
0.00103708
-1.00657e-06
0.00103698
-1.00842e-06
0.00103687
-1.01039e-06
0.00103676
-1.01247e-06
0.00103664
-1.01463e-06
0.00103653
-1.01686e-06
0.00103641
-1.01909e-06
0.00103629
-1.02125e-06
0.00103617
-1.02327e-06
0.00103605
-1.02508e-06
0.00103593
-1.02658e-06
0.0010358
-1.02772e-06
0.00103567
-1.02843e-06
0.00103553
-1.02876e-06
0.0010354
-1.02878e-06
0.00103526
-1.02867e-06
0.00103511