/*--------------------------------*- C++ -*----------------------------------*\
| =========                 |                                                 |
| \\      /  F ield         | OpenFOAM: The Open Source CFD Toolbox           |
|  \\    /   O peration     | Version:  2512                                  |
|   \\  /    A nd           | Website:  www.openfoam.com                      |
|    \\/     M anipulation  |                                                 |
\*---------------------------------------------------------------------------*/
FoamFile
{
    version     2.0;
    format      ascii;
    arch        "LSB;label=32;scalar=64";
    class       surfaceScalarField;
    location    "0.001";
    object      phiB;
}
// * * * * * * * * * * * * * * * * * * * * * * * * * * * * * * * * * * * * * //

dimensions      [1 2 -2 0 0 -1 0];

oriented        oriented;

internalField   nonuniform List<scalar> 
198900
(
0.000345806
0.0400403
0.000326999
0.0400188
0.00029696
0.04003
0.000270803
0.0400262
0.000252269
0.0400185
0.000239819
0.0400125
0.000231469
0.0400084
0.000225752
0.0400057
0.000221702
0.040004
0.000218717
0.040003
0.000216432
0.0400023
0.000214622
0.0400018
0.000213149
0.0400015
0.000211923
0.0400012
0.000210884
0.040001
0.00020999
0.0400009
0.000209211
0.0400008
0.000208526
0.0400007
0.000207919
0.0400006
0.000207377
0.0400005
0.00020689
0.0400005
0.000206451
0.0400004
0.000206053
0.0400004
0.000205691
0.0400004
0.00020536
0.0400003
0.000205057
0.0400003
0.00020478
0.0400003
0.000204526
0.0400003
0.000204292
0.0400002
0.000204077
0.0400002
0.000203879
0.0400002
0.000203697
0.0400002
0.000203529
0.0400002
0.000203375
0.0400002
0.000203233
0.0400001
0.000203104
0.0400001
0.000202986
0.0400001
0.000202879
0.0400001
0.000202782
0.0400001
0.000202694
0.0400001
0.000202616
0.0400001
0.000202547
0.0400001
0.000202485
0.0400001
0.00020243
0.0400001
0.000202382
0.04
0.00020234
0.04
0.000202305
0.04
0.000202275
0.04
0.000202251
0.04
0.000202232
0.04
0.000202219
0.04
0.00020221
0.04
0.000202206
0.04
0.000202206
0.04
0.000202211
0.04
0.000202221
0.04
0.000202234
0.04
0.000202252
0.04
0.000202274
0.04
0.0002023
0.04
0.00020233
0.04
0.000202363
0.04
0.000202401
0.04
0.000202441
0.04
0.000202486
0.04
0.000202533
0.04
0.000202584
0.0399999
0.000202637
0.0399999
0.000202692
0.0399999
0.000202748
0.0399999
0.000202804
0.0399999
0.000202857
0.0399999
0.000202907
0.04
0.000202949
0.04
0.000202984
0.04
0.000203009
0.04
0.000203026
0.04
0.000203035
0.04
0.000203037
0.04
0.000203034
0.04
0.000203026
0.04
0.000203015
0.04
0.000203002
0.04
0.000202986
0.04
0.000202968
0.04
0.000202949
0.04
0.000202928
0.04
0.000202906
0.04
0.000202883
0.04
0.000202859
0.04
0.000202835
0.04
0.00020281
0.04
0.000202784
0.04
0.000202758
0.04
0.000202732
0.04
0.000202706
0.04
0.00020268
0.04
0.000202654
0.04
0.000202628
0.04
0.000202603
0.04
0.000202578
0.04
0.000202554
0.04
0.00020253
0.04
0.000202507
0.04
0.000202485
0.04
0.000202465
0.04
0.000202445
0.04
0.000202426
0.04
0.000202408
0.04
0.000202391
0.04
0.000202375
0.04
0.000202359
0.04
0.000202342
0.04
0.000202325
0.04
0.000202305
0.04
0.000202283
0.04
0.000202258
0.04
0.000202232
0.04
0.000202203
0.04
0.000202172
0.04
0.00020214
0.04
0.000202107
0.04
0.000202074
0.04
0.000202039
0.04
0.000202004
0.04
0.000201968
0.04
0.000201932
0.04
0.000201895
0.04
0.000201858
0.04
0.000201821
0.04
0.000201784
0.04
0.000201746
0.04
0.000201709
0.04
0.000201671
0.04
0.000201634
0.04
0.000201597
0.04
0.00020156
0.04
0.000201523
0.04
0.000201486
0.04
0.00020145
0.04
0.000201414
0.04
0.000201378
0.04
0.000201343
0.04
0.000201308
0.04
0.000201273
0.04
0.000201239
0.04
0.000201204
0.04
0.00020117
0.04
0.000201135
0.04
0.000201099
0.04
0.000201064
0.04
0.000201027
0.04
0.00020099
0.04
0.000200952
0.04
0.000200914
0.04
0.000200876
0.04
0.000200837
0.04
0.000200798
0.04
0.000200759
0.04
0.000200719
0.04
0.000200679
0.04
0.000200639
0.04
0.000200599
0.04
0.000200558
0.04
0.000200518
0.04
0.000200477
0.04
0.000200436
0.04
0.000200395
0.04
0.000200354
0.04
0.000200313
0.04
0.000200272
0.04
0.000200231
0.04
0.00020019
0.04
0.00020015
0.04
0.000200109
0.04
0.000200068
0.04
0.000200027
0.04
0.000199986
0.04
0.000199945
0.04
0.000199904
0.04
0.000199862
0.04
0.00019982
0.04
0.000199778
0.04
0.000199735
0.04
0.000199692
0.04
0.000199648
0.04
0.000199603
0.04
0.000199559
0.04
0.000199514
0.04
0.000199469
0.04
0.000199423
0.04
0.000199378
0.04
0.000199332
0.04
0.000199286
0.04
0.00019924
0.04
0.000199195
0.04
0.000199149
0.04
0.000199103
0.04
0.000199057
0.04
0.000199011
0.04
0.000198965
0.04
0.00019892
0.04
0.000198874
0.04
0.000198828
0.04
0.000198781
0.04
0.000198735
0.04
0.000198689
0.04
0.000198642
0.04
0.000198595
0.04
0.000198548
0.04
0.000198501
0.04
0.000198453
0.04
0.000198405
0.04
0.000198357
0.04
0.000198308
0.04
0.000198259
0.04
0.000198209
0.04
0.000198159
0.04
0.000198109
0.0400001
0.000198059
0.0400001
0.000198008
0.0400001
0.000197957
0.0400001
0.000197906
0.0400001
0.000197854
0.0400001
0.000197803
0.0400001
0.000197751
0.0400001
0.000197699
0.0400001
0.000197646
0.0400001
0.000197594
0.0400001
0.000197541
0.0400001
0.000197488
0.0400001
0.000197434
0.0400001
0.000197381
0.0400001
0.000197327
0.0400001
0.000197274
0.0400001
0.000197219
0.0400001
0.000197165
0.0400001
0.000197111
0.0400001
0.000197056
0.0400001
0.000197001
0.0400001
0.000196946
0.0400001
0.000196891
0.0400001
0.000196835
0.0400001
0.000196779
0.0400001
0.000196723
0.0400001
0.000196666
0.0400001
0.000196609
0.0400001
0.000196552
0.0400001
0.000196495
0.0400001
0.000196438
0.0400001
0.00019638
0.0400001
0.000196322
0.0400001
0.000196264
0.0400001
0.000196206
0.0400001
0.000196147
0.0400001
0.000196088
0.0400001
0.000196029
0.0400001
0.00019597
0.0400001
0.00019591
0.0400001
0.00019585
0.0400001
0.00019579
0.0400001
0.00019573
0.0400001
0.000195669
0.0400001
0.000195608
0.0400001
0.000195547
0.0400001
0.000195485
0.0400001
0.000195424
0.0400001
0.000195361
0.0400001
0.000195299
0.0400001
0.000195237
0.0400001
0.000195174
0.0400001
0.00019511
0.0400001
0.000195047
0.0400001
0.000194983
0.0400001
0.000194919
0.0400001
0.000194855
0.0400001
0.00019479
0.0400001
0.000194725
0.0400001
0.00019466
0.0400001
0.000194594
0.0400001
0.000194529
0.0400001
0.000194463
0.0400001
0.000194396
0.0400001
0.00019433
0.0400001
0.000194263
0.0400001
0.000194195
0.0400001
0.000194128
0.0400001
0.00019406
0.0400001
0.000193992
0.0400001
0.000193924
0.0400001
0.000193855
0.0400001
0.000193786
0.0400001
0.000193717
0.0400001
0.000193647
0.0400001
0.000193577
0.0400001
0.000193507
0.0400001
0.000193436
0.0400001
0.000193365
0.0400001
0.000193294
0.0400001
0.000193223
0.0400001
0.000193151
0.0400001
0.000193079
0.0400001
0.000193006
0.0400001
0.000192933
0.0400001
0.00019286
0.0400001
0.000192787
0.0400001
0.000192713
0.0400001
0.000192639
0.0400001
0.000192565
0.0400001
0.00019249
0.0400001
0.000192415
0.0400001
0.00019234
0.0400001
0.000192264
0.0400001
0.000192188
0.0400001
0.000192112
0.0400001
0.000192035
0.0400001
0.000191958
0.0400001
0.000191881
0.0400001
0.000191803
0.0400001
0.000191726
0.0400001
0.000191647
0.0400001
0.000191569
0.0400001
0.00019149
0.0400001
0.000191411
0.0400001
0.000191331
0.0400001
0.000191251
0.0400001
0.000191171
0.0400001
0.000191091
0.0400001
0.00019101
0.0400001
0.000190928
0.0400001
0.000190847
0.0400001
0.000190765
0.0400001
0.000190683
0.0400001
0.0001906
0.0400001
0.000190517
0.0400001
0.000190434
0.0400001
0.000190351
0.0400001
0.000190267
0.0400001
0.000190182
0.0400001
0.000190098
0.0400001
0.000190013
0.0400001
0.000189928
0.0400001
0.000189842
0.0400001
0.000189756
0.0400001
0.00018967
0.0400001
0.000189583
0.0400001
0.000189496
0.0400001
0.000189409
0.0400001
0.000189321
0.0400001
0.000189233
0.0400001
0.000189145
0.0400001
0.000189056
0.0400001
0.000188967
0.0400001
0.000188878
0.0400001
0.000188788
0.0400001
0.000188698
0.0400001
0.000188608
0.0400001
0.000188517
0.0400001
0.000188426
0.0400001
0.000188334
0.0400001
0.000188242
0.0400001
0.00018815
0.0400001
0.000188058
0.0400001
0.000187965
0.0400001
0.000187872
0.0400001
0.000187778
0.0400001
0.000187684
0.0400001
0.00018759
0.0400001
0.000187495
0.0400001
0.0001874
0.0400001
0.000187305
0.0400001
0.000187209
0.0400001
0.000187113
0.0400001
0.000187016
0.0400001
0.00018692
0.0400001
0.000186822
0.0400001
0.000186725
0.0400001
0.000186627
0.0400001
0.000186529
0.0400001
0.00018643
0.0400001
0.000186331
0.0400001
0.000186232
0.0400001
0.000186132
0.0400001
0.000186032
0.0400001
0.000185932
0.0400001
0.000185831
0.0400001
0.00018573
0.0400001
0.000185628
0.0400001
0.000185526
0.0400001
0.000185424
0.0400001
0.000185322
0.0400001
0.000185219
0.0400001
0.000185115
0.0400001
0.000185012
0.0400001
0.000184908
0.0400001
0.000184803
0.0400001
0.000184698
0.0400001
0.000184593
0.0400001
0.000184488
0.0400001
0.000184382
0.0400001
0.000184275
0.0400001
0.000184169
0.0400001
0.000184062
0.0400001
0.000183954
0.0400001
0.000183847
0.0400001
0.000183738
0.0400001
0.00018363
0.0400001
0.000183521
0.0400001
0.000183412
0.0400001
0.000183302
0.0400001
0.000183192
0.0400001
0.000183082
0.0400001
0.000182971
0.0400001
0.00018286
0.0400001
0.000182748
0.0400001
0.000182637
0.0400001
0.000182524
0.0400001
0.000182412
0.0400001
0.000182299
0.0400001
0.000182185
0.0400001
0.000182072
0.0400001
0.000181957
0.0400001
0.000181843
0.0400001
0.000181728
0.0400001
0.000181613
0.0400001
0.000181497
0.0400001
0.000181381
0.0400001
0.000181265
0.0400001
0.000181148
0.0400001
0.000181031
0.0400001
0.000180913
0.0400001
0.000180795
0.0400001
0.000180677
0.0400001
0.000180558
0.0400001
0.000180439
0.0400001
0.00018032
0.0400001
0.0001802
0.0400001
0.00018008
0.0400001
0.000179959
0.0400001
0.000179838
0.0400001
0.000179717
0.0400001
0.000179595
0.0400001
0.000179473
0.0400001
0.000179351
0.0400001
0.000179228
0.0400001
0.000179105
0.0400001
0.000178981
0.0400001
0.000178857
0.0400001
0.000178732
0.0400001
0.000178608
0.0400001
0.000178483
0.0400001
0.000178357
0.0400001
0.000178231
0.0400001
0.000178105
0.0400001
0.000177978
0.0400001
0.000177851
0.0400001
0.000177723
0.0400001
0.000177596
0.0400001
0.000177467
0.0400001
0.000177339
0.0400001
0.00017721
0.0400001
0.00017708
0.0400001
0.00017695
0.0400001
0.00017682
0.0400001
0.00017669
0.0400001
0.000176559
0.0400001
0.000176427
0.0400001
0.000176296
0.0400001
0.000176164
0.0400001
0.000176031
0.0400001
0.000175898
0.0400001
0.000175765
0.0400001
0.000175631
0.0400001
0.000175497
0.0400001
0.000175363
0.0400001
0.000175228
0.0400001
0.000175093
0.0400001
0.000174957
0.0400001
0.000174821
0.0400001
0.000174685
0.0400001
0.000174548
0.0400001
0.000174411
0.0400001
0.000174274
0.0400001
0.000174136
0.0400001
0.000173997
0.0400001
0.000173859
0.0400001
0.00017372
0.0400001
0.00017358
0.0400001
0.00017344
0.0400001
0.0001733
0.0400001
0.000173159
0.0400001
0.000173018
0.0400001
0.000172877
0.0400001
0.000172735
0.0400001
0.000172593
0.0400001
0.000172451
0.0400001
0.000172308
0.0400001
0.000172164
0.0400001
0.000172021
0.0400001
0.000171877
0.0400001
0.000171732
0.0400001
0.000171587
0.0400001
0.000171442
0.0400001
0.000171296
0.0400001
0.00017115
0.0400001
0.000171004
0.0400001
0.000170857
0.0400001
0.00017071
0.0400001
0.000170562
0.0400001
0.000170414
0.0400001
0.000170266
0.0400001
0.000170117
0.0400001
0.000169968
0.0400001
0.000169819
0.0400001
0.000169669
0.0400001
0.000169518
0.0400002
0.000169368
0.0400002
0.000169217
0.0400002
0.000169065
0.0400002
0.000168913
0.0400002
0.000168761
0.0400002
0.000168609
0.0400002
0.000168456
0.0400002
0.000168302
0.0400002
0.000168149
0.0400002
0.000167995
0.0400002
0.00016784
0.0400002
0.000167685
0.0400002
0.00016753
0.0400002
0.000167374
0.0400002
0.000167218
0.0400002
0.000167062
0.0400002
0.000166905
0.0400002
0.000166748
0.0400002
0.00016659
0.0400002
0.000166432
0.0400002
0.000166274
0.0400002
0.000166115
0.0400002
0.000165956
0.0400002
0.000165797
0.0400002
0.000165637
0.0400002
0.000165477
0.0400002
0.000165316
0.0400002
0.000165155
0.0400002
0.000164994
0.0400002
0.000164832
0.0400002
0.00016467
0.0400002
0.000164507
0.0400002
0.000164344
0.0400002
0.000164181
0.0400002
0.000164017
0.0400002
0.000163853
0.0400002
0.000163689
0.0400002
0.000163524
0.0400002
0.000163359
0.0400002
0.000163193
0.0400002
0.000163027
0.0400002
0.000162861
0.0400002
0.000162694
0.0400002
0.000162527
0.0400002
0.00016236
0.0400002
0.000162192
0.0400002
0.000162024
0.0400002
0.000161855
0.0400002
0.000161686
0.0400002
0.000161517
0.0400002
0.000161348
0.0400002
0.000161177
0.0400002
0.000161007
0.0400002
0.000160836
0.0400002
0.000160665
0.0400002
0.000160494
0.0400002
0.000160322
0.0400002
0.000160149
0.0400002
0.000159977
0.0400002
0.000159804
0.0400002
0.00015963
0.0400002
0.000159457
0.0400002
0.000159283
0.0400002
0.000159108
0.0400002
0.000158933
0.0400002
0.000158758
0.0400002
0.000158582
0.0400002
0.000158406
0.0400002
0.00015823
0.0400002
0.000158053
0.0400002
0.000157876
0.0400002
0.000157699
0.0400002
0.000157521
0.0400002
0.000157343
0.0400002
0.000157164
0.0400002
0.000156986
0.0400002
0.000156806
0.0400002
0.000156627
0.0400002
0.000156447
0.0400002
0.000156266
0.0400002
0.000156086
0.0400002
0.000155905
0.0400002
0.000155723
0.0400002
0.000155541
0.0400002
0.000155359
0.0400002
0.000155177
0.0400002
0.000154994
0.0400002
0.000154811
0.0400002
0.000154627
0.0400002
0.000154443
0.0400002
0.000154259
0.0400002
0.000154074
0.0400002
0.000153889
0.0400002
0.000153704
0.0400002
0.000153518
0.0400002
0.000153332
0.0400002
0.000153146
0.0400002
0.000152959
0.0400002
0.000152772
0.0400002
0.000152585
0.0400002
0.000152397
0.0400002
0.000152209
0.0400002
0.00015202
0.0400002
0.000151831
0.0400002
0.000151642
0.0400002
0.000151453
0.0400002
0.000151263
0.0400002
0.000151072
0.0400002
0.000150882
0.0400002
0.000150691
0.0400002
0.0001505
0.0400002
0.000150308
0.0400002
0.000150116
0.0400002
0.000149924
0.0400002
0.000149731
0.0400002
0.000149538
0.0400002
0.000149345
0.0400002
0.000149151
0.0400002
0.000148957
0.0400002
0.000148762
0.0400002
0.000148568
0.0400002
0.000148373
0.0400002
0.000148177
0.0400002
0.000147982
0.0400002
0.000147786
0.0400002
0.000147589
0.0400002
0.000147392
0.0400002
0.000147195
0.0400002
0.000146998
0.0400002
0.0001468
0.0400002
0.000146602
0.0400002
0.000146404
0.0400002
0.000146205
0.0400002
0.000146006
0.0400002
0.000145807
0.0400002
0.000145607
0.0400002
0.000145407
0.0400002
0.000145206
0.0400002
0.000145006
0.0400002
0.000144805
0.0400002
0.000144603
0.0400002
0.000144402
0.0400002
0.0001442
0.0400002
0.000143997
0.0400002
0.000143795
0.0400002
0.000143592
0.0400002
0.000143388
0.0400002
0.000143185
0.0400002
0.000142981
0.0400002
0.000142777
0.0400002
0.000142572
0.0400002
0.000142367
0.0400002
0.000142162
0.0400002
0.000141956
0.0400002
0.00014175
0.0400002
0.000141544
0.0400002
0.000141338
0.0400002
0.000141131
0.0400002
0.000140924
0.0400002
0.000140716
0.0400002
0.000140509
0.0400002
0.000140301
0.0400002
0.000140092
0.0400002
0.000139884
0.0400002
0.000139675
0.0400002
0.000139465
0.0400002
0.000139256
0.0400002
0.000139046
0.0400002
0.000138836
0.0400002
0.000138625
0.0400002
0.000138414
0.0400002
0.000138203
0.0400002
0.000137992
0.0400002
0.00013778
0.0400002
0.000137568
0.0400002
0.000137356
0.0400002
0.000137143
0.0400002
0.00013693
0.0400002
0.000136717
0.0400002
0.000136503
0.0400002
0.000136289
0.0400002
0.000136075
0.0400002
0.000135861
0.0400002
0.000135646
0.0400002
0.000135431
0.0400002
0.000135216
0.0400002
0.000135
0.0400002
0.000134785
0.0400002
0.000134568
0.0400002
0.000134352
0.0400002
0.000134135
0.0400002
0.000133918
0.0400002
0.000133701
0.0400002
0.000133483
0.0400002
0.000133265
0.0400002
0.000133047
0.0400002
0.000132829
0.0400002
0.00013261
0.0400002
0.000132391
0.0400002
0.000132172
0.0400002
0.000131952
0.0400002
0.000131732
0.0400002
0.000131512
0.0400002
0.000131292
0.0400002
0.000131071
0.0400002
0.00013085
0.0400002
0.000130629
0.0400002
0.000130407
0.0400002
0.000130185
0.0400002
0.000129963
0.0400002
0.000129741
0.0400002
0.000129518
0.0400002
0.000129295
0.0400002
0.000129072
0.0400002
0.000128849
0.0400002
0.000128625
0.0400002
0.000128401
0.0400002
0.000128177
0.0400002
0.000127952
0.0400002
0.000127728
0.0400002
0.000127503
0.0400002
0.000127277
0.0400002
0.000127052
0.0400002
0.000126826
0.0400002
0.0001266
0.0400002
0.000126374
0.0400002
0.000126147
0.0400002
0.00012592
0.0400002
0.000125693
0.0400002
0.000125466
0.0400002
0.000125238
0.0400002
0.00012501
0.0400002
0.000124782
0.0400002
0.000124554
0.0400002
0.000124325
0.0400002
0.000124096
0.0400002
0.000123867
0.0400002
0.000123638
0.0400002
0.000123408
0.0400002
0.000123178
0.0400002
0.000122948
0.0400002
0.000122718
0.0400002
0.000122487
0.0400002
0.000122256
0.0400002
0.000122025
0.0400002
0.000121794
0.0400002
0.000121562
0.0400002
0.000121331
0.0400002
0.000121099
0.0400002
0.000120866
0.0400002
0.000120634
0.0400002
0.000120401
0.0400002
0.000120168
0.0400002
0.000119935
0.0400002
0.000119701
0.0400002
0.000119468
0.0400002
0.000119234
0.0400002
0.000119
0.0400002
0.000118765
0.0400002
0.000118531
0.0400002
0.000118296
0.0400002
0.000118061
0.0400002
0.000117825
0.0400002
0.00011759
0.0400002
0.000117354
0.0400002
0.000117118
0.0400002
0.000116882
0.0400002
0.000116645
0.0400002
0.000116409
0.0400002
0.000116172
0.0400002
0.000115935
0.0400002
0.000115698
0.0400002
0.00011546
0.0400002
0.000115222
0.0400002
0.000114984
0.0400002
0.000114746
0.0400002
0.000114508
0.0400002
0.000114269
0.0400002
0.00011403
0.0400002
0.000113791
0.0400002
0.000113552
0.0400002
0.000113313
0.0400002
0.000113073
0.0400002
0.000112833
0.0400002
0.000112593
0.0400002
0.000112353
0.0400002
0.000112112
0.0400002
0.000111872
0.0400002
0.000111631
0.0400002
0.00011139
0.0400002
0.000111148
0.0400002
0.000110907
0.0400002
0.000110665
0.0400002
0.000110423
0.0400002
0.000110181
0.0400002
0.000109939
0.0400002
0.000109696
0.0400002
0.000109453
0.0400002
0.00010921
0.0400002
0.000108967
0.0400002
0.000108724
0.0400002
0.00010848
0.0400002
0.000108237
0.0400002
0.000107993
0.0400002
0.000107749
0.0400002
0.000107504
0.0400002
0.00010726
0.0400002
0.000107015
0.0400002
0.00010677
0.0400002
0.000106525
0.0400002
0.00010628
0.0400002
0.000106035
0.0400002
0.000105789
0.0400002
0.000105543
0.0400002
0.000105297
0.0400002
0.000105051
0.0400002
0.000104805
0.0400002
0.000104558
0.0400002
0.000104311
0.0400002
0.000104064
0.0400002
0.000103817
0.0400002
0.00010357
0.0400002
0.000103322
0.0400002
0.000103075
0.0400002
0.000102827
0.0400002
0.000102579
0.0400002
0.000102331
0.0400002
0.000102082
0.0400002
0.000101834
0.0400002
0.000101585
0.0400002
0.000101336
0.0400002
0.000101087
0.0400002
0.000100837
0.0400002
0.000100588
0.0400002
0.000100338
0.0400002
0.000100088
0.0400002
9.98383e-05
0.0400003
9.9588e-05
0.0400003
9.93376e-05
0.0400003
9.9087e-05
0.0400003
9.88362e-05
0.0400003
9.85853e-05
0.0400003
9.83341e-05
0.0400003
9.80828e-05
0.0400003
9.78313e-05
0.0400003
9.75796e-05
0.0400003
9.73277e-05
0.0400003
9.70757e-05
0.0400003
9.68234e-05
0.0400003
9.6571e-05
0.0400003
9.63184e-05
0.0400003
9.60656e-05
0.0400003
9.58126e-05
0.0400003
9.55595e-05
0.0400003
9.53061e-05
0.0400003
9.50526e-05
0.0400003
9.47989e-05
0.0400003
9.4545e-05
0.0400003
9.42908e-05
0.0400003
9.40365e-05
0.0400003
9.37821e-05
0.0400003
9.35274e-05
0.0400003
9.32725e-05
0.0400003
9.30174e-05
0.0400003
9.27621e-05
0.0400003
9.25067e-05
0.0400003
9.2251e-05
0.0400003
9.19951e-05
0.0400003
9.17391e-05
0.0400003
9.14828e-05
0.0400003
9.12263e-05
0.0400003
9.09696e-05
0.0400003
9.07127e-05
0.0400003
9.04555e-05
0.0400003
9.01982e-05
0.0400003
8.99406e-05
0.0400003
8.96828e-05
0.0400003
8.94248e-05
0.0400003
8.91666e-05
0.0400003
8.89081e-05
0.0400003
8.86494e-05
0.0400003
8.83905e-05
0.0400003
8.81313e-05
0.0400003
8.78719e-05
0.0400003
8.76123e-05
0.0400003
8.73524e-05
0.0400003
8.70922e-05
0.0400003
8.68318e-05
0.0400003
8.65711e-05
0.0400003
8.63102e-05
0.0400003
8.6049e-05
0.0400003
8.57875e-05
0.0400003
8.55257e-05
0.0400003
8.52636e-05
0.0400003
8.50013e-05
0.0400003
8.47386e-05
0.0400003
8.44757e-05
0.0400003
8.42124e-05
0.0400003
8.39488e-05
0.0400003
8.36849e-05
0.0400003
8.34207e-05
0.0400003
8.31561e-05
0.0400003
8.28912e-05
0.0400003
8.26259e-05
0.0400003
8.23602e-05
0.0400003
8.20942e-05
0.0400003
8.18278e-05
0.0400003
8.1561e-05
0.0400003
8.12938e-05
0.0400003
8.10261e-05
0.0400003
8.07581e-05
0.0400003
8.04896e-05
0.0400003
8.02207e-05
0.0400003
7.99513e-05
0.0400003
7.96814e-05
0.0400003
7.9411e-05
0.0400003
7.91402e-05
0.0400003
7.88688e-05
0.0400003
7.85968e-05
0.0400003
7.83243e-05
0.0400003
7.80513e-05
0.0400003
7.77776e-05
0.0400003
7.75034e-05
0.0400003
7.72285e-05
0.0400003
7.69529e-05
0.0400003
7.66767e-05
0.0400003
7.63997e-05
0.0400003
7.61221e-05
0.0400003
7.58437e-05
0.0400003
7.55645e-05
0.0400003
7.52844e-05
0.0400003
7.50036e-05
0.0400003
7.47218e-05
0.0400003
7.44392e-05
0.0400003
7.41555e-05
0.0400003
7.38709e-05
0.0400003
7.35852e-05
0.0400003
7.32985e-05
0.0400003
7.30106e-05
0.0400003
7.27215e-05
0.0400003
7.24312e-05
0.0400003
7.21396e-05
0.0400003
7.18466e-05
0.0400003
7.15521e-05
0.0400003
7.12562e-05
0.0400003
7.09586e-05
0.0400003
7.06593e-05
0.0400003
7.03583e-05
0.0400003
7.00553e-05
0.0400003
6.97504e-05
0.0400003
6.94433e-05
0.0400003
6.9134e-05
0.0400003
6.88222e-05
0.0400003
6.85079e-05
0.0400003
6.81908e-05
0.0400003
6.78707e-05
0.0400003
6.75475e-05
0.0400003
6.72208e-05
0.0400003
6.68904e-05
0.0400003
6.6556e-05
0.0400003
6.62172e-05
0.0400003
6.58737e-05
0.0400003
6.55249e-05
0.0400003
6.51703e-05
0.0400004
6.48094e-05
0.0400004
6.44414e-05
0.0400004
6.40656e-05
0.0400004
6.36809e-05
0.0400004
6.32862e-05
0.0400004
6.28802e-05
0.0400004
6.24612e-05
0.0400004
6.2027e-05
0.0400004
6.15753e-05
0.0400005
6.11028e-05
0.0400005
6.06053e-05
0.0400005
6.00775e-05
0.0400005
5.9512e-05
0.0400006
5.88983e-05
0.0400006
5.82211e-05
0.0400007
5.74577e-05
0.0400008
5.65685e-05
0.0400009
5.54752e-05
0.0400011
5.41132e-05
0.0400014
0.0400015
0.000324796
0.0400097
0.000341574
0.040002
0.000353756
0.0400179
0.000356957
0.040023
0.000354703
0.0400208
0.00035048
0.0400167
0.000346028
0.0400128
0.000341992
0.0400098
0.000338528
0.0400075
0.000335603
0.0400059
0.00033313
0.0400048
0.000331022
0.0400039
0.000329205
0.0400033
0.00032762
0.0400028
0.000326223
0.0400024
0.000324977
0.0400021
0.000323858
0.0400019
0.000322843
0.0400017
0.000321916
0.0400015
0.000321065
0.0400014
0.000320278
0.0400013
0.000319548
0.0400012
0.000318866
0.0400011
0.000318228
0.040001
0.000317627
0.0400009
0.000317061
0.0400009
0.000316525
0.0400008
0.000316016
0.0400008
0.000315532
0.0400007
0.000315071
0.0400007
0.00031463
0.0400006
0.000314208
0.0400006
0.000313803
0.0400006
0.000313414
0.0400005
0.000313041
0.0400005
0.000312682
0.0400005
0.000312337
0.0400005
0.000312005
0.0400004
0.000311686
0.0400004
0.000311378
0.0400004
0.000311081
0.0400004
0.000310793
0.0400004
0.000310515
0.0400003
0.000310245
0.0400003
0.000309984
0.0400003
0.00030973
0.0400003
0.000309484
0.0400003
0.000309245
0.0400003
0.000309013
0.0400003
0.000308787
0.0400002
0.000308567
0.0400002
0.000308354
0.0400002
0.000308147
0.0400002
0.000307945
0.0400002
0.000307749
0.0400002
0.000307559
0.0400002
0.000307373
0.0400002
0.000307193
0.0400002
0.000307017
0.0400002
0.000306847
0.0400001
0.00030668
0.0400001
0.000306518
0.0400001
0.00030636
0.0400001
0.000306207
0.0400001
0.000306057
0.0400001
0.00030591
0.0400001
0.000305767
0.0400001
0.000305627
0.0400001
0.000305489
0.0400001
0.000305352
0.0400001
0.000305215
0.0400001
0.000305077
0.0400001
0.000304935
0.0400001
0.000304788
0.0400001
0.000304633
0.0400001
0.000304471
0.0400001
0.0003043
0.0400002
0.000304121
0.0400002
0.000303935
0.0400002
0.000303744
0.0400002
0.000303548
0.0400002
0.000303348
0.0400002
0.000303146
0.0400002
0.000302941
0.0400002
0.000302733
0.0400002
0.000302524
0.0400002
0.000302313
0.0400002
0.000302101
0.0400002
0.000301888
0.0400002
0.000301674
0.0400002
0.000301459
0.0400002
0.000301243
0.0400002
0.000301027
0.0400002
0.00030081
0.0400002
0.000300593
0.0400002
0.000300377
0.0400002
0.00030016
0.0400002
0.000299943
0.0400002
0.000299727
0.0400002
0.000299511
0.0400002
0.000299296
0.0400002
0.000299082
0.0400002
0.000298868
0.0400002
0.000298655
0.0400002
0.000298443
0.0400002
0.000298232
0.0400002
0.000298022
0.0400002
0.000297814
0.0400002
0.000297606
0.0400002
0.0002974
0.0400002
0.000297194
0.0400002
0.000296989
0.0400002
0.000296784
0.0400002
0.000296578
0.0400002
0.00029637
0.0400002
0.00029616
0.0400002
0.000295948
0.0400002
0.000295733
0.0400002
0.000295516
0.0400002
0.000295298
0.0400002
0.000295077
0.0400003
0.000294856
0.0400003
0.000294634
0.0400003
0.00029441
0.0400003
0.000294186
0.0400003
0.000293961
0.0400003
0.000293736
0.0400003
0.00029351
0.0400003
0.000293285
0.0400003
0.000293058
0.0400003
0.000292832
0.0400003
0.000292606
0.0400003
0.000292379
0.0400003
0.000292153
0.0400003
0.000291926
0.0400003
0.0002917
0.0400003
0.000291475
0.0400003
0.000291249
0.0400003
0.000291024
0.0400003
0.0002908
0.0400003
0.000290576
0.0400003
0.000290352
0.0400003
0.000290129
0.0400003
0.000289907
0.0400003
0.000289685
0.0400003
0.000289463
0.0400003
0.000289242
0.0400003
0.00028902
0.0400003
0.000288799
0.0400003
0.000288577
0.0400003
0.000288355
0.0400003
0.000288132
0.0400003
0.000287908
0.0400003
0.000287685
0.0400003
0.000287461
0.0400003
0.000287236
0.0400003
0.000287012
0.0400003
0.000286787
0.0400003
0.000286562
0.0400003
0.000286336
0.0400003
0.000286111
0.0400003
0.000285886
0.0400003
0.00028566
0.0400003
0.000285434
0.0400003
0.000285209
0.0400003
0.000284983
0.0400003
0.000284757
0.0400003
0.000284531
0.0400003
0.000284306
0.0400003
0.00028408
0.0400003
0.000283855
0.0400003
0.000283629
0.0400003
0.000283404
0.0400003
0.000283179
0.0400003
0.000282954
0.0400003
0.00028273
0.0400003
0.000282505
0.0400003
0.000282281
0.0400003
0.000282056
0.0400003
0.000281832
0.0400003
0.000281607
0.0400003
0.000281382
0.0400003
0.000281157
0.0400003
0.000280931
0.0400003
0.000280705
0.0400003
0.000280478
0.0400003
0.000280251
0.0400003
0.000280024
0.0400003
0.000279797
0.0400003
0.00027957
0.0400003
0.000279342
0.0400003
0.000279115
0.0400003
0.000278887
0.0400003
0.00027866
0.0400003
0.000278432
0.0400003
0.000278205
0.0400003
0.000277978
0.0400003
0.000277752
0.0400003
0.000277525
0.0400003
0.000277299
0.0400003
0.000277073
0.0400003
0.000276847
0.0400003
0.000276621
0.0400003
0.000276395
0.0400003
0.000276169
0.0400003
0.000275943
0.0400003
0.000275717
0.0400003
0.000275491
0.0400003
0.000275266
0.0400003
0.00027504
0.0400003
0.000274813
0.0400003
0.000274587
0.0400003
0.000274361
0.0400003
0.000274134
0.0400003
0.000273907
0.0400003
0.00027368
0.0400003
0.000273452
0.0400003
0.000273224
0.0400003
0.000272996
0.0400003
0.000272768
0.0400003
0.00027254
0.0400003
0.000272312
0.0400003
0.000272083
0.0400003
0.000271855
0.0400003
0.000271626
0.0400003
0.000271398
0.0400003
0.000271169
0.0400003
0.00027094
0.0400003
0.000270711
0.0400003
0.000270482
0.0400003
0.000270253
0.0400003
0.000270024
0.0400003
0.000269795
0.0400003
0.000269566
0.0400003
0.000269337
0.0400003
0.000269108
0.0400003
0.000268879
0.0400003
0.00026865
0.0400003
0.00026842
0.0400003
0.000268191
0.0400003
0.000267962
0.0400003
0.000267732
0.0400003
0.000267503
0.0400003
0.000267273
0.0400003
0.000267043
0.0400003
0.000266813
0.0400003
0.000266583
0.0400003
0.000266353
0.0400003
0.000266123
0.0400003
0.000265893
0.0400003
0.000265663
0.0400003
0.000265433
0.0400003
0.000265203
0.0400003
0.000264972
0.0400003
0.000264742
0.0400003
0.000264512
0.0400003
0.000264281
0.0400003
0.000264051
0.0400003
0.00026382
0.0400003
0.000263589
0.0400003
0.000263359
0.0400003
0.000263128
0.0400003
0.000262897
0.0400003
0.000262666
0.0400003
0.000262435
0.0400003
0.000262203
0.0400003
0.000261972
0.0400003
0.000261741
0.0400003
0.000261509
0.0400003
0.000261277
0.0400003
0.000261046
0.0400003
0.000260814
0.0400003
0.000260582
0.0400003
0.00026035
0.0400003
0.000260117
0.0400003
0.000259885
0.0400003
0.000259653
0.0400003
0.00025942
0.0400003
0.000259188
0.0400003
0.000258955
0.0400003
0.000258722
0.0400003
0.00025849
0.0400003
0.000258257
0.0400003
0.000258024
0.0400003
0.00025779
0.0400003
0.000257557
0.0400003
0.000257324
0.0400003
0.00025709
0.0400003
0.000256857
0.0400003
0.000256623
0.0400003
0.000256389
0.0400003
0.000256155
0.0400003
0.000255921
0.0400003
0.000255687
0.0400003
0.000255453
0.0400003
0.000255218
0.0400003
0.000254984
0.0400003
0.000254749
0.0400003
0.000254515
0.0400003
0.00025428
0.0400003
0.000254045
0.0400003
0.00025381
0.0400003
0.000253574
0.0400003
0.000253339
0.0400003
0.000253104
0.0400003
0.000252868
0.0400003
0.000252632
0.0400003
0.000252396
0.0400003
0.00025216
0.0400003
0.000251924
0.0400003
0.000251688
0.0400003
0.000251452
0.0400003
0.000251215
0.0400003
0.000250979
0.0400003
0.000250742
0.0400003
0.000250505
0.0400003
0.000250268
0.0400003
0.000250031
0.0400003
0.000249794
0.0400003
0.000249557
0.0400003
0.000249319
0.0400003
0.000249082
0.0400003
0.000248844
0.0400003
0.000248606
0.0400003
0.000248369
0.0400003
0.000248131
0.0400003
0.000247892
0.0400003
0.000247654
0.0400003
0.000247416
0.0400003
0.000247177
0.0400003
0.000246938
0.0400003
0.0002467
0.0400003
0.000246461
0.0400003
0.000246222
0.0400003
0.000245982
0.0400003
0.000245743
0.0400003
0.000245504
0.0400003
0.000245264
0.0400003
0.000245024
0.0400003
0.000244785
0.0400003
0.000244545
0.0400003
0.000244304
0.0400003
0.000244064
0.0400003
0.000243824
0.0400003
0.000243583
0.0400003
0.000243343
0.0400003
0.000243102
0.0400003
0.000242861
0.0400003
0.00024262
0.0400003
0.000242379
0.0400003
0.000242138
0.0400003
0.000241896
0.0400003
0.000241655
0.0400003
0.000241413
0.0400003
0.000241171
0.0400003
0.000240929
0.0400003
0.000240687
0.0400003
0.000240445
0.0400003
0.000240203
0.0400003
0.00023996
0.0400003
0.000239718
0.0400003
0.000239475
0.0400003
0.000239232
0.0400003
0.000238989
0.0400003
0.000238746
0.0400003
0.000238503
0.0400003
0.000238259
0.0400003
0.000238016