/*--------------------------------*- C++ -*----------------------------------*\
| =========                 |                                                 |
| \\      /  F ield         | OpenFOAM: The Open Source CFD Toolbox           |
|  \\    /   O peration     | Version:  2512                                  |
|   \\  /    A nd           | Website:  www.openfoam.com                      |
|    \\/     M anipulation  |                                                 |
\*---------------------------------------------------------------------------*/
FoamFile
{
    version     2.0;
    format      ascii;
    arch        "LSB;label=32;scalar=64";
    class       volVectorField;
    location    "0.001";
    object      U;
}
// * * * * * * * * * * * * * * * * * * * * * * * * * * * * * * * * * * * * * //

dimensions      [0 1 -1 0 0 0 0];

internalField   nonuniform List<vector> 
100000
(
(0.753244 0.131962 0)
(0.649422 0.100524 0)
(0.483367 0.0486555 0)
(0.379969 0.0246541 0)
(0.322623 0.0132518 0)
(0.289373 0.00730346 0)
(0.26894 0.00420226 0)
(0.255689 0.00259248 0)
(0.246578 0.00172684 0)
(0.239953 0.00123121 0)
(0.234904 0.000926393 0)
(0.230915 0.000725502 0)
(0.227675 0.000584878 0)
(0.224985 0.000481536 0)
(0.222715 0.000402671 0)
(0.220773 0.000340696 0)
(0.219094 0.000290849 0)
(0.217627 0.000249975 0)
(0.216336 0.0002159 0)
(0.215193 0.000187114 0)
(0.214175 0.000162642 0)
(0.213262 0.000141802 0)
(0.212442 0.000124061 0)
(0.2117 0.000108948 0)
(0.211028 9.60513e-05 0)
(0.210418 8.50483e-05 0)
(0.209861 7.57235e-05 0)
(0.209352 6.78452e-05 0)
(0.208885 6.12112e-05 0)
(0.208457 5.55971e-05 0)
(0.208063 5.08798e-05 0)
(0.2077 4.70382e-05 0)
(0.207366 4.4044e-05 0)
(0.207057 4.18279e-05 0)
(0.206772 4.03789e-05 0)
(0.206509 3.98457e-05 0)
(0.206267 4.04736e-05 0)
(0.206043 4.1892e-05 0)
(0.205837 4.16588e-05 0)
(0.205649 3.90199e-05 0)
(0.205475 3.59411e-05 0)
(0.205315 3.25242e-05 0)
(0.205168 2.88602e-05 0)
(0.205032 2.44238e-05 0)
(0.204907 1.97979e-05 0)
(0.20479 1.57499e-05 0)
(0.204683 1.22748e-05 0)
(0.204585 9.25796e-06 0)
(0.204496 6.59849e-06 0)
(0.204414 4.22225e-06 0)
(0.204339 2.07538e-06 0)
(0.204272 1.17005e-07 0)
(0.204211 -1.68454e-06 0)
(0.204156 -3.35427e-06 0)
(0.204106 -4.91266e-06 0)
(0.204063 -6.3766e-06 0)
(0.204025 -7.7592e-06 0)
(0.203991 -9.06898e-06 0)
(0.203963 -1.03095e-05 0)
(0.203939 -1.14821e-05 0)
(0.20392 -1.25887e-05 0)
(0.203904 -1.36334e-05 0)
(0.203893 -1.46211e-05 0)
(0.203885 -1.55556e-05 0)
(0.20388 -1.6438e-05 0)
(0.203879 -1.72656e-05 0)
(0.20388 -1.803e-05 0)
(0.203884 -1.87137e-05 0)
(0.20389 -1.92851e-05 0)
(0.203897 -1.96925e-05 0)
(0.203904 -1.98619e-05 0)
(0.20391 -1.97064e-05 0)
(0.203913 -1.91553e-05 0)
(0.203912 -1.81995e-05 0)
(0.203905 -1.69245e-05 0)
(0.203891 -1.54963e-05 0)
(0.20387 -1.40989e-05 0)
(0.203843 -1.28659e-05 0)
(0.203809 -1.18532e-05 0)
(0.203771 -1.10545e-05 0)
(0.203728 -1.04323e-05 0)
(0.203682 -9.94364e-06 0)
(0.203633 -9.55196e-06 0)
(0.203582 -9.23097e-06 0)
(0.203528 -8.9634e-06 0)
(0.203472 -8.73845e-06 0)
(0.203414 -8.5495e-06 0)
(0.203355 -8.39248e-06 0)
(0.203294 -8.2649e-06 0)
(0.203232 -8.16518e-06 0)
(0.203168 -8.09227e-06 0)
(0.203104 -8.04536e-06 0)
(0.203038 -8.02375e-06 0)
(0.202972 -8.02672e-06 0)
(0.202905 -8.05354e-06 0)
(0.202837 -8.10352e-06 0)
(0.202769 -8.17601e-06 0)
(0.2027 -8.2705e-06 0)
(0.202631 -8.38656e-06 0)
(0.202561 -8.52381e-06 0)
(0.202492 -8.68189e-06 0)
(0.202422 -8.86038e-06 0)
(0.202352 -9.05856e-06 0)
(0.202282 -9.27539e-06 0)
(0.202213 -9.50944e-06 0)
(0.202143 -9.75875e-06 0)
(0.202074 -1.002e-05 0)
(0.202005 -1.02868e-05 0)
(0.201936 -1.05475e-05 0)
(0.201867 -1.07823e-05 0)
(0.201798 -1.09618e-05 0)
(0.201729 -1.10502e-05 0)
(0.201659 -1.10153e-05 0)
(0.201588 -1.0843e-05 0)
(0.201515 -1.05486e-05 0)
(0.201439 -1.01763e-05 0)
(0.201362 -9.78433e-06 0)
(0.201281 -9.42455e-06 0)
(0.201199 -9.12717e-06 0)
(0.201115 -8.89925e-06 0)
(0.201029 -8.73239e-06 0)
(0.200941 -8.61266e-06 0)
(0.200852 -8.52764e-06 0)
(0.200762 -8.46886e-06 0)
(0.20067 -8.4315e-06 0)
(0.200578 -8.41294e-06 0)
(0.200484 -8.41174e-06 0)
(0.20039 -8.42698e-06 0)
(0.200294 -8.45806e-06 0)
(0.200198 -8.50453e-06 0)
(0.200101 -8.56598e-06 0)
(0.200003 -8.64198e-06 0)
(0.199905 -8.73207e-06 0)
(0.199806 -8.83578e-06 0)
(0.199707 -8.9525e-06 0)
(0.199607 -9.08122e-06 0)
(0.199506 -9.22021e-06 0)
(0.199405 -9.367e-06 0)
(0.199304 -9.51879e-06 0)
(0.199202 -9.67332e-06 0)
(0.1991 -9.82993e-06 0)
(0.198997 -9.98941e-06 0)
(0.198894 -1.01522e-05 0)
(0.198791 -1.03165e-05 0)
(0.198687 -1.04777e-05 0)
(0.198582 -1.06282e-05 0)
(0.198478 -1.07592e-05 0)
(0.198372 -1.08612e-05 0)
(0.198266 -1.09281e-05 0)
(0.198159 -1.09606e-05 0)
(0.198051 -1.0969e-05 0)
(0.197941 -1.09696e-05 0)
(0.197831 -1.09782e-05 0)
(0.19772 -1.10039e-05 0)
(0.197608 -1.1048e-05 0)
(0.197494 -1.11072e-05 0)
(0.19738 -1.1177e-05 0)
(0.197265 -1.12543e-05 0)
(0.197149 -1.13372e-05 0)
(0.197033 -1.14251e-05 0)
(0.196915 -1.15177e-05 0)
(0.196797 -1.16153e-05 0)
(0.196678 -1.17181e-05 0)
(0.196558 -1.18264e-05 0)
(0.196437 -1.19402e-05 0)
(0.196316 -1.20596e-05 0)
(0.196194 -1.21845e-05 0)
(0.196071 -1.23151e-05 0)
(0.195948 -1.24514e-05 0)
(0.195823 -1.25939e-05 0)
(0.195699 -1.27433e-05 0)
(0.195573 -1.28976e-05 0)
(0.195447 -1.3055e-05 0)
(0.19532 -1.32188e-05 0)
(0.195193 -1.33854e-05 0)
(0.195065 -1.35501e-05 0)
(0.194936 -1.37099e-05 0)
(0.194807 -1.38618e-05 0)
(0.194677 -1.40018e-05 0)
(0.194546 -1.41264e-05 0)
(0.194414 -1.42331e-05 0)
(0.194281 -1.43228e-05 0)
(0.194148 -1.44001e-05 0)
(0.194013 -1.44726e-05 0)
(0.193877 -1.45482e-05 0)
(0.19374 -1.46326e-05 0)
(0.193603 -1.47289e-05 0)
(0.193464 -1.48378e-05 0)
(0.193324 -1.49588e-05 0)
(0.193184 -1.50909e-05 0)
(0.193043 -1.52334e-05 0)
(0.192901 -1.53857e-05 0)
(0.192758 -1.55472e-05 0)
(0.192614 -1.57177e-05 0)
(0.19247 -1.58965e-05 0)
(0.192325 -1.60825e-05 0)
(0.192179 -1.62743e-05 0)
(0.192032 -1.64697e-05 0)
(0.191885 -1.66666e-05 0)
(0.191738 -1.68633e-05 0)
(0.191589 -1.70582e-05 0)
(0.19144 -1.72506e-05 0)
(0.19129 -1.74401e-05 0)
(0.19114 -1.76268e-05 0)
(0.190988 -1.78109e-05 0)
(0.190836 -1.79922e-05 0)
(0.190684 -1.81702e-05 0)
(0.19053 -1.83439e-05 0)
(0.190376 -1.85126e-05 0)
(0.19022 -1.86758e-05 0)
(0.190064 -1.88336e-05 0)
(0.189907 -1.89868e-05 0)
(0.189749 -1.91369e-05 0)
(0.18959 -1.92861e-05 0)
(0.18943 -1.94368e-05 0)
(0.189269 -1.95909e-05 0)
(0.189107 -1.97494e-05 0)
(0.188944 -1.99126e-05 0)
(0.188781 -2.00807e-05 0)
(0.188616 -2.02532e-05 0)
(0.188451 -2.043e-05 0)
(0.188284 -2.06108e-05 0)
(0.188117 -2.07955e-05 0)
(0.187949 -2.0984e-05 0)
(0.18778 -2.11761e-05 0)
(0.18761 -2.13717e-05 0)
(0.187439 -2.15703e-05 0)
(0.187268 -2.17719e-05 0)
(0.187095 -2.19763e-05 0)
(0.186922 -2.21834e-05 0)
(0.186748 -2.23932e-05 0)
(0.186573 -2.26056e-05 0)
(0.186398 -2.28203e-05 0)
(0.186221 -2.30369e-05 0)
(0.186044 -2.32549e-05 0)
(0.185866 -2.34738e-05 0)
(0.185687 -2.36929e-05 0)
(0.185507 -2.39118e-05 0)
(0.185326 -2.41304e-05 0)
(0.185145 -2.43487e-05 0)
(0.184963 -2.45674e-05 0)
(0.184779 -2.47873e-05 0)
(0.184595 -2.5009e-05 0)
(0.18441 -2.5233e-05 0)
(0.184225 -2.54595e-05 0)
(0.184038 -2.56886e-05 0)
(0.183851 -2.59205e-05 0)
(0.183663 -2.61552e-05 0)
(0.183473 -2.63927e-05 0)
(0.183284 -2.66329e-05 0)
(0.183093 -2.68753e-05 0)
(0.182901 -2.71198e-05 0)
(0.182709 -2.73658e-05 0)
(0.182516 -2.76131e-05 0)
(0.182322 -2.78614e-05 0)
(0.182127 -2.81109e-05 0)
(0.181931 -2.83616e-05 0)
(0.181735 -2.86137e-05 0)
(0.181537 -2.88673e-05 0)
(0.181339 -2.91226e-05 0)
(0.18114 -2.93794e-05 0)
(0.18094 -2.96377e-05 0)
(0.18074 -2.98976e-05 0)
(0.180538 -3.01588e-05 0)
(0.180336 -3.04213e-05 0)
(0.180133 -3.06851e-05 0)
(0.179929 -3.09502e-05 0)
(0.179724 -3.12167e-05 0)
(0.179519 -3.14847e-05 0)
(0.179312 -3.17544e-05 0)
(0.179105 -3.2026e-05 0)
(0.178897 -3.22995e-05 0)
(0.178688 -3.25753e-05 0)
(0.178478 -3.28534e-05 0)
(0.178268 -3.31339e-05 0)
(0.178057 -3.34168e-05 0)
(0.177844 -3.37021e-05 0)
(0.177631 -3.39896e-05 0)
(0.177418 -3.4279e-05 0)
(0.177203 -3.45703e-05 0)
(0.176988 -3.48634e-05 0)
(0.176772 -3.51581e-05 0)
(0.176555 -3.54545e-05 0)
(0.176337 -3.57526e-05 0)
(0.176118 -3.60525e-05 0)
(0.175899 -3.63543e-05 0)
(0.175679 -3.66579e-05 0)
(0.175458 -3.69633e-05 0)
(0.175236 -3.72706e-05 0)
(0.175014 -3.75797e-05 0)
(0.174791 -3.78908e-05 0)
(0.174567 -3.82038e-05 0)
(0.174342 -3.85188e-05 0)
(0.174116 -3.88357e-05 0)
(0.17389 -3.91547e-05 0)
(0.173663 -3.94756e-05 0)
(0.173435 -3.97984e-05 0)
(0.173206 -4.01232e-05 0)
(0.172977 -4.045e-05 0)
(0.172746 -4.07789e-05 0)
(0.172515 -4.11099e-05 0)
(0.172284 -4.14431e-05 0)
(0.172051 -4.17784e-05 0)
(0.171818 -4.21157e-05 0)
(0.171584 -4.24552e-05 0)
(0.171349 -4.27966e-05 0)
(0.171114 -4.31402e-05 0)
(0.170878 -4.34858e-05 0)
(0.170641 -4.38336e-05 0)
(0.170403 -4.41836e-05 0)
(0.170165 -4.45358e-05 0)
(0.169926 -4.48901e-05 0)
(0.169686 -4.52465e-05 0)
(0.169446 -4.56051e-05 0)
(0.169204 -4.59657e-05 0)
(0.168962 -4.63284e-05 0)
(0.16872 -4.66932e-05 0)
(0.168477 -4.70603e-05 0)
(0.168233 -4.74296e-05 0)
(0.167988 -4.78011e-05 0)
(0.167742 -4.81748e-05 0)
(0.167496 -4.85505e-05 0)
(0.16725 -4.89284e-05 0)
(0.167002 -4.93083e-05 0)
(0.166754 -4.96904e-05 0)
(0.166505 -5.00746e-05 0)
(0.166256 -5.04611e-05 0)
(0.166006 -5.08497e-05 0)
(0.165755 -5.12405e-05 0)
(0.165504 -5.16335e-05 0)
(0.165252 -5.20286e-05 0)
(0.164999 -5.24257e-05 0)
(0.164746 -5.2825e-05 0)
(0.164492 -5.32265e-05 0)
(0.164238 -5.36303e-05 0)
(0.163982 -5.40365e-05 0)
(0.163727 -5.4445e-05 0)
(0.16347 -5.48557e-05 0)
(0.163213 -5.52687e-05 0)
(0.162956 -5.56839e-05 0)
(0.162698 -5.61012e-05 0)
(0.162439 -5.65208e-05 0)
(0.162179 -5.69425e-05 0)
(0.16192 -5.73665e-05 0)
(0.161659 -5.77927e-05 0)
(0.161398 -5.82211e-05 0)
(0.161136 -5.86517e-05 0)
(0.160874 -5.90846e-05 0)
(0.160611 -5.95197e-05 0)
(0.160348 -5.9957e-05 0)
(0.160084 -6.03966e-05 0)
(0.15982 -6.08384e-05 0)
(0.159555 -6.12824e-05 0)
(0.159289 -6.17288e-05 0)
(0.159023 -6.21774e-05 0)
(0.158757 -6.26284e-05 0)
(0.15849 -6.30816e-05 0)
(0.158222 -6.3537e-05 0)
(0.157954 -6.39947e-05 0)
(0.157686 -6.44546e-05 0)
(0.157417 -6.49167e-05 0)
(0.157147 -6.53812e-05 0)
(0.156877 -6.58481e-05 0)
(0.156607 -6.63173e-05 0)
(0.156336 -6.67887e-05 0)
(0.156065 -6.72622e-05 0)
(0.155793 -6.77379e-05 0)
(0.15552 -6.82158e-05 0)
(0.155248 -6.86959e-05 0)
(0.154975 -6.91784e-05 0)
(0.154701 -6.96633e-05 0)
(0.154427 -7.01505e-05 0)
(0.154153 -7.064e-05 0)
(0.153878 -7.11318e-05 0)
(0.153602 -7.16258e-05 0)
(0.153327 -7.2122e-05 0)
(0.153051 -7.26206e-05 0)
(0.152774 -7.31214e-05 0)
(0.152497 -7.36245e-05 0)
(0.15222 -7.41298e-05 0)
(0.151943 -7.46374e-05 0)
(0.151665 -7.51473e-05 0)
(0.151387 -7.56594e-05 0)
(0.151108 -7.61738e-05 0)
(0.150829 -7.66904e-05 0)
(0.15055 -7.72093e-05 0)
(0.15027 -7.77305e-05 0)
(0.14999 -7.8254e-05 0)
(0.14971 -7.87798e-05 0)
(0.149429 -7.9308e-05 0)
(0.149148 -7.98384e-05 0)
(0.148867 -8.03712e-05 0)
(0.148586 -8.09062e-05 0)
(0.148304 -8.14435e-05 0)
(0.148022 -8.19829e-05 0)
(0.14774 -8.25247e-05 0)
(0.147457 -8.30687e-05 0)
(0.147174 -8.36149e-05 0)
(0.146891 -8.41633e-05 0)
(0.146608 -8.47139e-05 0)
(0.146324 -8.52667e-05 0)
(0.146041 -8.58217e-05 0)
(0.145757 -8.63789e-05 0)
(0.145473 -8.69385e-05 0)
(0.145188 -8.75003e-05 0)
(0.144904 -8.80645e-05 0)
(0.144619 -8.8631e-05 0)
(0.144334 -8.91997e-05 0)
(0.144049 -8.97706e-05 0)
(0.143763 -9.03437e-05 0)
(0.143478 -9.0919e-05 0)
(0.143192 -9.14965e-05 0)
(0.142907 -9.20762e-05 0)
(0.142621 -9.26582e-05 0)
(0.142335 -9.32423e-05 0)
(0.142049 -9.38287e-05 0)
(0.141762 -9.44173e-05 0)
(0.141476 -9.50081e-05 0)
(0.14119 -9.56011e-05 0)
(0.140903 -9.61962e-05 0)
(0.140616 -9.67936e-05 0)
(0.14033 -9.73931e-05 0)
(0.140043 -9.79948e-05 0)
(0.139756 -9.85987e-05 0)
(0.139469 -9.92047e-05 0)
(0.139182 -9.9813e-05 0)
(0.138895 -0.000100423 0)
(0.138608 -0.000101036 0)
(0.138321 -0.000101651 0)
(0.138034 -0.000102268 0)
(0.137747 -0.000102887 0)
(0.13746 -0.000103508 0)
(0.137173 -0.000104131 0)
(0.136886 -0.000104757 0)
(0.136599 -0.000105384 0)
(0.136312 -0.000106014 0)
(0.136026 -0.000106645 0)
(0.135739 -0.000107279 0)
(0.135452 -0.000107915 0)
(0.135165 -0.000108553 0)
(0.134879 -0.000109193 0)
(0.134592 -0.000109835 0)
(0.134306 -0.00011048 0)
(0.134019 -0.000111126 0)
(0.133733 -0.000111774 0)
(0.133447 -0.000112425 0)
(0.133161 -0.000113077 0)
(0.132875 -0.000113732 0)
(0.132589 -0.000114389 0)
(0.132304 -0.000115047 0)
(0.132018 -0.000115708 0)
(0.131733 -0.000116371 0)
(0.131448 -0.000117035 0)
(0.131163 -0.000117702 0)
(0.130878 -0.000118371 0)
(0.130594 -0.000119041 0)
(0.13031 -0.000119714 0)
(0.130026 -0.000120388 0)
(0.129742 -0.000121065 0)
(0.129458 -0.000121743 0)
(0.129175 -0.000122424 0)
(0.128892 -0.000123106 0)
(0.128609 -0.000123791 0)
(0.128326 -0.000124477 0)
(0.128044 -0.000125165 0)
(0.127762 -0.000125855 0)
(0.12748 -0.000126548 0)
(0.127199 -0.000127242 0)
(0.126918 -0.000127937 0)
(0.126637 -0.000128635 0)
(0.126356 -0.000129334 0)
(0.126076 -0.000130035 0)
(0.125796 -0.000130738 0)
(0.125517 -0.000131443 0)
(0.125238 -0.00013215 0)
(0.124959 -0.000132859 0)
(0.124681 -0.00013357 0)
(0.124403 -0.000134282 0)
(0.124126 -0.000134996 0)
(0.123849 -0.000135712 0)
(0.123572 -0.00013643 0)
(0.123296 -0.000137149 0)
(0.12302 -0.000137871 0)
(0.122744 -0.000138594 0)
(0.122469 -0.000139318 0)
(0.122195 -0.000140045 0)
(0.121921 -0.000140773 0)
(0.121647 -0.000141503 0)
(0.121374 -0.000142234 0)
(0.121102 -0.000142967 0)
(0.12083 -0.000143702 0)
(0.120558 -0.000144439 0)
(0.120287 -0.000145177 0)
(0.120017 -0.000145917 0)
(0.119747 -0.000146658 0)
(0.119478 -0.000147401 0)
(0.119209 -0.000148146 0)
(0.118941 -0.000148892 0)
(0.118673 -0.00014964 0)
(0.118406 -0.00015039 0)
(0.118139 -0.000151141 0)
(0.117874 -0.000151893 0)
(0.117608 -0.000152647 0)
(0.117344 -0.000153403 0)
(0.11708 -0.00015416 0)
(0.116816 -0.000154919 0)
(0.116553 -0.000155678 0)
(0.116291 -0.00015644 0)
(0.11603 -0.000157203 0)
(0.115769 -0.000157967 0)
(0.115509 -0.000158733 0)
(0.11525 -0.000159501 0)
(0.114991 -0.00016027 0)
(0.114733 -0.00016104 0)
(0.114476 -0.000161812 0)
(0.114219 -0.000162585 0)
(0.113964 -0.000163359 0)
(0.113709 -0.000164135 0)
(0.113454 -0.000164912 0)
(0.113201 -0.00016569 0)
(0.112948 -0.00016647 0)
(0.112696 -0.000167251 0)
(0.112445 -0.000168033 0)
(0.112195 -0.000168817 0)
(0.111945 -0.000169602 0)
(0.111696 -0.000170388 0)
(0.111448 -0.000171175 0)
(0.111201 -0.000171964 0)
(0.110955 -0.000172754 0)
(0.11071 -0.000173544 0)
(0.110465 -0.000174337 0)
(0.110221 -0.00017513 0)
(0.109979 -0.000175924 0)
(0.109737 -0.00017672 0)
(0.109496 -0.000177517 0)
(0.109256 -0.000178315 0)
(0.109016 -0.000179114 0)
(0.108778 -0.000179914 0)
(0.108541 -0.000180715 0)
(0.108304 -0.000181517 0)
(0.108069 -0.00018232 0)
(0.107834 -0.000183124 0)
(0.107601 -0.000183929 0)
(0.107368 -0.000184735 0)
(0.107136 -0.000185543 0)
(0.106906 -0.000186351 0)
(0.106676 -0.00018716 0)
(0.106448 -0.00018797 0)
(0.10622 -0.000188781 0)
(0.105993 -0.000189593 0)
(0.105768 -0.000190406 0)
(0.105543 -0.000191219 0)
(0.10532 -0.000192034 0)
(0.105097 -0.000192849 0)
(0.104876 -0.000193665 0)
(0.104656 -0.000194482 0)
(0.104437 -0.0001953 0)
(0.104219 -0.000196119 0)
(0.104002 -0.000196938 0)
(0.103786 -0.000197758 0)
(0.103571 -0.000198579 0)
(0.103357 -0.000199401 0)
(0.103145 -0.000200223 0)
(0.102933 -0.000201046 0)
(0.102723 -0.000201869 0)
(0.102514 -0.000202694 0)
(0.102306 -0.000203518 0)
(0.102099 -0.000204344 0)
(0.101894 -0.00020517 0)
(0.101689 -0.000205997 0)
(0.101486 -0.000206824 0)
(0.101284 -0.000207652 0)
(0.101084 -0.00020848 0)
(0.100884 -0.000209309 0)
(0.100686 -0.000210139 0)
(0.100489 -0.000210969 0)
(0.100293 -0.000211799 0)
(0.100098 -0.000212629 0)
(0.0999049 -0.000213461 0)
(0.0997128 -0.000214292 0)
(0.099522 -0.000215124 0)
(0.0993325 -0.000215957 0)
(0.0991443 -0.00021679 0)
(0.0989574 -0.000217623 0)
(0.0987718 -0.000218457 0)
(0.0985875 -0.000219291 0)
(0.0984046 -0.000220125 0)
(0.0982229 -0.000220959 0)
(0.0980426 -0.000221794 0)
(0.0978637 -0.000222629 0)
(0.0976861 -0.000223464 0)
(0.0975098 -0.0002243 0)
(0.0973349 -0.000225136 0)
(0.0971614 -0.000225971 0)
(0.0969893 -0.000226807 0)
(0.0968186 -0.000227644 0)
(0.0966492 -0.00022848 0)
(0.0964813 -0.000229316 0)
(0.0963148 -0.000230153 0)
(0.0961497 -0.000230989 0)
(0.095986 -0.000231826 0)
(0.0958237 -0.000232663 0)
(0.0956629 -0.000233499 0)
(0.0955035 -0.000234336 0)
(0.0953456 -0.000235173 0)
(0.0951892 -0.000236009 0)
(0.0950342 -0.000236846 0)
(0.0948807 -0.000237683 0)
(0.0947286 -0.000238519 0)
(0.0945781 -0.000239356 0)
(0.094429 -0.000240192 0)
(0.0942815 -0.000241028 0)
(0.0941354 -0.000241864 0)
(0.0939909 -0.0002427 0)
(0.0938479 -0.000243535 0)
(0.0937064 -0.000244371 0)
(0.0935664 -0.000245206 0)
(0.093428 -0.000246041 0)
(0.0932911 -0.000246876 0)
(0.0931558 -0.00024771 0)
(0.0930221 -0.000248544 0)
(0.0928899 -0.000249378 0)
(0.0927593 -0.000250212 0)
(0.0926302 -0.000251045 0)
(0.0925028 -0.000251878 0)
(0.0923769 -0.00025271 0)
(0.0922526 -0.000253542 0)
(0.09213 -0.000254374 0)
(0.0920089 -0.000255205 0)
(0.0918895 -0.000256036 0)
(0.0917717 -0.000256865 0)
(0.0916555 -0.000257695 0)
(0.0915409 -0.000258525 0)
(0.091428 -0.000259353 0)
(0.0913167 -0.000260181 0)
(0.0912071 -0.000261009 0)
(0.0910991 -0.000261836 0)
(0.0909928 -0.000262662 0)
(0.0908881 -0.000263488 0)
(0.0907851 -0.000264313 0)
(0.0906838 -0.000265138 0)
(0.0905842 -0.000265961 0)
(0.0904863 -0.000266785 0)
(0.0903901 -0.000267607 0)
(0.0902955 -0.000268429 0)
(0.0902027 -0.00026925 0)
(0.0901115 -0.00027007 0)
(0.0900221 -0.000270889 0)
(0.0899344 -0.000271707 0)
(0.0898485 -0.000272525 0)
(0.0897642 -0.000273342 0)
(0.0896817 -0.000274158 0)
(0.0896009 -0.000274973 0)
(0.0895219 -0.000275788 0)
(0.0894446 -0.000276601 0)
(0.0893691 -0.000277414 0)
(0.0892953 -0.000278225 0)
(0.0892233 -0.000279036 0)
(0.0891531 -0.000279845 0)
(0.0890846 -0.000280654 0)
(0.0890179 -0.000281461 0)
(0.088953 -0.000282268 0)
(0.0888899 -0.000283074 0)
(0.0888286 -0.000283878 0)
(0.088769 -0.000284681 0)
(0.0887113 -0.000285484 0)
(0.0886553 -0.000286285 0)
(0.0886012 -0.000287085 0)
(0.0885488 -0.000287884 0)
(0.0884983 -0.000288681 0)
(0.0884496 -0.000289478 0)
(0.0884027 -0.000290273 0)
(0.0883577 -0.000291067 0)
(0.0883144 -0.00029186 0)
(0.088273 -0.000292651 0)
(0.0882335 -0.000293442 0)
(0.0881958 -0.000294231 0)
(0.0881599 -0.000295018 0)
(0.0881258 -0.000295805 0)
(0.0880937 -0.00029659 0)
(0.0880633 -0.000297373 0)
(0.0880348 -0.000298156 0)
(0.0880082 -0.000298936 0)
(0.0879835 -0.000299716 0)
(0.0879606 -0.000300493 0)
(0.0879395 -0.00030127 0)
(0.0879204 -0.000302045 0)
(0.0879031 -0.000302819 0)
(0.0878877 -0.000303591 0)
(0.0878742 -0.000304362 0)
(0.0878625 -0.000305131 0)
(0.0878528 -0.000305899 0)
(0.0878449 -0.000306665 0)
(0.0878389 -0.000307429 0)
(0.0878348 -0.000308192 0)
(0.0878326 -0.000308953 0)
(0.0878324 -0.000309713 0)
(0.087834 -0.000310471 0)
(0.0878375 -0.000311227 0)
(0.0878429 -0.000311982 0)
(0.0878502 -0.000312735 0)
(0.0878594 -0.000313486 0)
(0.0878706 -0.000314235 0)
(0.0878836 -0.000314983 0)
(0.0878986 -0.000315729 0)
(0.0879154 -0.000316473 0)
(0.0879342 -0.000317216 0)
(0.0879549 -0.000317957 0)
(0.0879776 -0.000318695 0)
(0.0880021 -0.000319432 0)
(0.0880286 -0.000320168 0)
(0.088057 -0.000320901 0)
(0.0880874 -0.000321632 0)
(0.0881196 -0.000322362 0)
(0.0881538 -0.00032309 0)
(0.0881899 -0.000323815 0)
(0.088228 -0.000324539 0)
(0.088268 -0.000325261 0)
(0.0883099 -0.00032598 0)
(0.0883537 -0.000326698 0)
(0.0883995 -0.000327414 0)
(0.0884472 -0.000328128 0)
(0.0884969 -0.00032884 0)
(0.0885484 -0.00032955 0)
(0.088602 -0.000330258 0)
(0.0886574 -0.000330964 0)
(0.0887148 -0.000331667 0)
(0.0887742 -0.000332369 0)
(0.0888355 -0.000333069 0)
(0.0888987 -0.000333766 0)
(0.0889639 -0.000334461 0)
(0.089031 -0.000335154 0)
(0.0891 -0.000335845 0)
(0.089171 -0.000336534 0)
(0.0892439 -0.000337221 0)
(0.0893188 -0.000337905 0)
(0.0893955 -0.000338587 0)
(0.0894743 -0.000339267 0)
(0.089555 -0.000339945 0)
(0.0896376 -0.00034062 0)
(0.0897221 -0.000341293 0)
(0.0898086 -0.000341964 0)
(0.089897 -0.000342633 0)
(0.0899874 -0.000343299 0)
(0.0900797 -0.000343963 0)
(0.0901739 -0.000344625 0)
(0.0902701 -0.000345285 0)
(0.0903682 -0.000345942 0)
(0.0904682 -0.000346596 0)
(0.0905702 -0.000347248 0)
(0.090674 -0.000347898 0)
(0.0907798 -0.000348545 0)
(0.0908876 -0.00034919 0)
(0.0909972 -0.000349833 0)
(0.0911088 -0.000350474 0)
(0.0912223 -0.000351112 0)
(0.0913378 -0.000351747 0)
(0.0914551 -0.00035238 0)
(0.0915744 -0.000353011 0)
(0.0916956 -0.000353639 0)
(0.0918187 -0.000354264 0)
(0.0919437 -0.000354887 0)
(0.0920706 -0.000355508 0)
(0.0921994 -0.000356126 0)
(0.0923301 -0.000356741 0)
(0.0924628 -0.000357354 0)
(0.0925973 -0.000357964 0)
(0.0927337 -0.000358572 0)
(0.0928721 -0.000359177 0)
(0.0930123 -0.00035978 0)
(0.0931544 -0.00036038 0)
(0.0932984 -0.000360977 0)
(0.0934443 -0.000361572 0)
(0.0935921 -0.000362165 0)
(0.0937417 -0.000362754 0)
(0.0938933 -0.000363341 0)
(0.0940467 -0.000363925 0)
(0.094202 -0.000364507 0)
(0.0943591 -0.000365085 0)
(0.0945181 -0.000365662 0)
(0.094679 -0.000366236 0)
(0.0948418 -0.000366807 0)
(0.0950064 -0.000367375 0)
(0.0951728 -0.000367941 0)
(0.0953411 -0.000368504 0)
(0.0955112 -0.000369064 0)
(0.0956832 -0.000369621 0)
(0.0958571 -0.000370176 0)
(0.0960327 -0.000370728 0)
(0.0962102 -0.000371277 0)
(0.0963895 -0.000371824 0)
(0.0965707 -0.000372368 0)
(0.0967537 -0.000372909 0)
(0.0969384 -0.000373447 0)
(0.097125 -0.000373982 0)
(0.0973134 -0.000374515 0)
(0.0975036 -0.000375045 0)
(0.0976956 -0.000375572 0)
(0.0978894 -0.000376096 0)
(0.098085 -0.000376617 0)
(0.0982824 -0.000377136 0)
(0.0984816 -0.000377652 0)
(0.0986825 -0.000378165 0)
(0.0988852 -0.000378675 0)
(0.0990897 -0.000379183 0)
(0.0992959 -0.000379687 0)
(0.0995039 -0.000380189 0)
(0.0997136 -0.000380688 0)
(0.0999251 -0.000381184 0)
(0.100138 -0.000381677 0)
(0.100353 -0.000382167 0)
(0.10057 -0.000382654 0)
(0.100788 -0.000383139 0)
(0.101009 -0.000383621 0)
(0.10123 -0.000384099 0)
(0.101454 -0.000384575 0)
(0.101679 -0.000385048 0)
(0.101906 -0.000385518 0)
(0.102135 -0.000385985 0)
(0.102365 -0.000386449 0)
(0.102597 -0.000386911 0)
(0.102831 -0.000387369 0)
(0.103067 -0.000387825 0)
(0.103304 -0.000388278 0)
(0.103542 -0.000388727 0)
(0.103783 -0.000389174 0)
(0.104025 -0.000389618 0)
(0.104268 -0.000390059 0)
(0.104514 -0.000390497 0)
(0.104761 -0.000390932 0)
(0.105009 -0.000391365 0)
(0.105259 -0.000391794 0)
(0.105511 -0.000392221 0)
(0.105764 -0.000392644 0)
(0.106019 -0.000393065 0)
(0.106276 -0.000393484 0)
(0.106534 -0.000393899 0)
(0.106794 -0.000394312 0)
(0.107055 -0.000394723 0)
(0.107318 -0.00039513 0)
(0.107582 -0.000395535 0)
(0.107848 -0.000395937 0)
(0.108116 -0.000396336 0)
(0.108385 -0.000396733 0)
(0.108655 -0.000397127 0)
(0.108927 -0.000397519 0)
(0.109201 -0.000397908 0)
(0.109476 -0.000398295 0)
(0.109753 -0.000398678 0)
(0.110031 -0.000399059 0)
(0.11031 -0.000399438 0)
(0.110591 -0.000399813 0)
(0.110874 -0.000400186 0)
(0.111158 -0.000400555 0)
(0.111443 -0.000400923 0)
(0.11173 -0.000401288 0)
(0.112018 -0.00040165 0)
(0.112308 -0.00040201 0)
(0.112599 -0.000402368 0)
(0.112891 -0.000402723 0)
(0.113185 -0.000403075 0)
(0.113481 -0.000403424 0)
(0.113777 -0.000403771 0)
(0.114076 -0.000404115 0)
(0.114375 -0.000404456 0)
(0.114676 -0.000404794 0)
(0.114978 -0.00040513 0)
(0.115282 -0.000405463 0)
(0.115586 -0.000405794 0)
(0.115893 -0.000406123 0)
(0.1162 -0.00040645 0)
(0.116509 -0.000406773 0)
(0.116819 -0.000407095 0)
(0.11713 -0.000407413 0)
(0.117443 -0.000407729 0)
(0.117757 -0.000408042 0)
(0.118072 -0.000408352 0)
(0.118389 -0.000408659 0)
(0.118706 -0.000408963 0)
(0.119025 -0.000409265 0)
(0.119346 -0.000409563 0)
(0.119667 -0.000409859 0)
(0.11999 -0.000410152 0)
(0.120313 -0.000410442 0)
(0.120638 -0.000410729 0)
(0.120965 -0.000411013 0)
(0.121292 -0.000411294 0)
(0.12162 -0.000411573 0)
(0.12195 -0.000411848 0)
(0.122281 -0.000412121 0)
(0.122613 -0.000412392 0)
(0.122946 -0.000412662 0)
(0.12328 -0.000412928 0)
(0.123615 -0.000413192 0)
(0.123952 -0.000413453 0)
(0.124289 -0.000413712 0)
(0.124628 -0.000413967 0)
(0.124967 -0.000414219 0)
(0.125308 -0.000414468 0)
(0.125649 -0.000414714 0)
(0.125992 -0.000414957 0)
(0.126336 -0.000415197 0)
(0.12668 -0.000415433 0)
(0.127026 -0.000415667 0)
(0.127373 -0.000415897 0)
(0.12772 -0.000416124 0)
(0.128069 -0.000416348 0)
(0.128419 -0.000416568 0)
(0.128769 -0.000416785 0)
(0.12912 -0.000416999 0)
(0.129473 -0.00041721 0)
(0.129826 -0.000417416 0)
(0.13018 -0.00041762 0)
(0.130535 -0.000417819 0)
(0.130891 -0.000418016 0)
(0.131247 -0.000418208 0)
(0.131605 -0.000418397 0)
(0.131963 -0.000418582 0)
(0.132322 -0.000418763 0)
(0.132682 -0.00041894 0)
(0.133043 -0.000419113 0)
(0.133405 -0.000419282 0)
(0.133767 -0.000419447 0)
(0.13413 -0.000419608 0)
(0.134494 -0.000419764 0)
(0.134858 -0.000419917 0)
(0.135223 -0.000420065 0)
(0.135589 -0.00042021 0)
(0.135955 -0.000420351 0)
(0.136322 -0.000420487 0)
(0.13669 -0.000420618 0)
(0.137058 -0.000420744 0)
(0.137427 -0.000420864 0)
(0.137797 -0.000420979 0)
(0.138167 -0.000421088 0)
(0.138537 -0.000421191 0)
(0.138908 -0.000421287 0)
(0.13928 -0.000421376 0)
(0.139652 -0.000421459 0)
(0.140025 -0.000421534 0)
(0.140397 -0.000421602 0)
(0.140771 -0.000421662 0)
(0.141144 -0.000421714 0)
(0.141518 -0.000421756 0)
(0.141893 -0.00042179 0)
(0.142267 -0.000421814 0)
(0.142642 -0.000421828 0)
(0.143017 -0.000421832 0)
(0.143393 -0.000421824 0)
(0.143768 -0.000421804 0)
(0.144144 -0.000421772 0)
(0.14452 -0.000421726 0)
(0.144895 -0.000421666 0)
(0.145271 -0.00042159 0)
(0.145647 -0.000421499 0)
(0.146022 -0.00042139 0)
(0.146398 -0.000421263 0)
(0.146773 -0.000421116 0)
(0.147148 -0.000420948 0)
(0.147523 -0.000420757 0)
(0.147897 -0.000420542 0)
(0.148271 -0.0004203 0)
(0.148644 -0.000420029 0)
(0.149016 -0.000419727 0)
(0.149388 -0.000419392 0)
(0.149759 -0.00041902 0)
(0.150129 -0.000418608 0)
(0.150498 -0.000418153 0)
(0.150866 -0.000417651 0)
(0.151233 -0.000417098 0)
(0.151598 -0.000416487 0)
(0.151961 -0.000415815 0)
(0.152323 -0.000415075 0)
(0.152682 -0.000414259 0)
(0.153039 -0.00041336 0)
(0.153394 -0.00041237 0)
(0.153746 -0.000411277 0)
(0.154095 -0.000410071 0)
(0.15444 -0.000408739 0)
(0.154782 -0.000407265 0)
(0.155119 -0.000405634 0)
(0.155452 -0.000403825 0)
(0.155779 -0.000401816 0)
(0.1561 -0.000399583 0)
(0.156415 -0.000397093 0)
(0.156722 -0.000394313 0)
(0.157021 -0.000391199 0)
(0.157311 -0.000387701 0)
(0.15759 -0.000383751 0)
(0.157858 -0.000379267 0)
(0.158111 -0.000374132 0)
(0.158349 -0.000368184 0)
(0.158568 -0.000361181 0)
(0.158765 -0.000352725 0)
(0.158935 -0.000342069 0)
(0.15907 -0.000327766 0)
(0.159165 -0.000308884 0)
(0.159202 -0.000290421 0)
(0.159061 -0.000260787 0)
(0.158672 -0.00011163 0)
(0.99621 0.270196 0)
(0.982731 0.285159 0)
(0.886569 0.196572 0)
(0.796226 0.123259 0)
(0.729957 0.0755117 0)
(0.683603 0.0467527 0)
(0.651097 0.0299878 0)
(0.627857 0.020201 0)
(0.610756 0.0143213 0)
(0.597775 0.0106255 0)
(0.587633 0.00818163 0)
(0.579512 0.00648524 0)
(0.572876 0.00525674 0)
(0.567358 0.00433508 0)
(0.562707 0.00362333 0)
(0.55874 0.00306045 0)
(0.555324 0.00260642 0)
(0.552358 0.00223404 0)
(0.549764 0.00192424 0)
(0.547483 0.00166337 0)
(0.545468 0.00144153 0)
(0.543679 0.00125135 0)
(0.542085 0.00108714 0)
(0.540662 0.000944378 0)
(0.539387 0.000819549 0)
(0.538242 0.000709995 0)
(0.537214 0.000613615 0)
(0.536288 0.000528469 0)
(0.535454 0.000452869 0)
(0.534702 0.000385346 0)
(0.534025 0.000324789 0)
(0.533416 0.000270277 0)
(0.532867 0.00022098 0)
(0.532376 0.000176112 0)
(0.531936 0.000134914 0)
(0.531544 9.66739e-05 0)
(0.531197 6.08602e-05 0)
(0.530887 2.75263e-05 0)
(0.530614 -1.81457e-06 0)
(0.530378 -2.8725e-05 0)
(0.530177 -5.54483e-05 0)
(0.530006 -8.1261e-05 0)
(0.529864 -0.000105986 0)
(0.529747 -0.000130006 0)
(0.529655 -0.000152936 0)
(0.529585 -0.000174253 0)
(0.529537 -0.000193993 0)
(0.529509 -0.000212316 0)
(0.529499 -0.000229386 0)
(0.529507 -0.000245349 0)
(0.529531 -0.00026033 0)
(0.529571 -0.00027444 0)
(0.529625 -0.000287776 0)
(0.529694 -0.000300425 0)
(0.529776 -0.000312466 0)
(0.529871 -0.000323966 0)
(0.529978 -0.000334975 0)
(0.530097 -0.000345516 0)
(0.530227 -0.000355589 0)
(0.530367 -0.00036518 0)
(0.530518 -0.000374282 0)
(0.530678 -0.000382896 0)
(0.530847 -0.000391026 0)
(0.531024 -0.000398664 0)
(0.531209 -0.00040578 0)
(0.531401 -0.000412307 0)
(0.531599 -0.000418127 0)
(0.531803 -0.000423049 0)
(0.53201 -0.000426777 0)
(0.53222 -0.000428877 0)
(0.53243 -0.000428786 0)
(0.532638 -0.000425896 0)
(0.53284 -0.000419777 0)
(0.533032 -0.000410475 0)
(0.533211 -0.000398706 0)
(0.533376 -0.000385734 0)
(0.533524 -0.000372937 0)
(0.533658 -0.000361344 0)
(0.533779 -0.000351437 0)
(0.533888 -0.000343235 0)
(0.533987 -0.000336511 0)
(0.534079 -0.000330968 0)
(0.534163 -0.000326341 0)
(0.534241 -0.000322423 0)
(0.534313 -0.00031907 0)
(0.534381 -0.00031618 0)
(0.534445 -0.000313687 0)
(0.534505 -0.000311542 0)
(0.534561 -0.000309714 0)
(0.534615 -0.00030818 0)
(0.534665 -0.000306921 0)
(0.534714 -0.000305923 0)
(0.53476 -0.000305175 0)
(0.534804 -0.000304666 0)
(0.534847 -0.000304385 0)
(0.534889 -0.000304325 0)
(0.534929 -0.000304475 0)
(0.534969 -0.000304829 0)
(0.535009 -0.000305378 0)
(0.535048 -0.000306116 0)
(0.535087 -0.000307034 0)
(0.535125 -0.000308123 0)
(0.535165 -0.000309373 0)
(0.535204 -0.000310768 0)
(0.535245 -0.000312291 0)
(0.535285 -0.000313917 0)
(0.535327 -0.000315606 0)
(0.53537 -0.000317297 0)
(0.535413 -0.00031889 0)
(0.535456 -0.000320228 0)
(0.5355 -0.000321099 0)
(0.535544 -0.000321256 0)
(0.535586 -0.000320487 0)
(0.535625 -0.000318712 0)
(0.535661 -0.000316049 0)
(0.535692 -0.000312806 0)
(0.535719 -0.000309392 0)
(0.53574 -0.000306169 0)
(0.535757 -0.000303362 0)
(0.535769 -0.000301041 0)
(0.535778 -0.000299167 0)
(0.535784 -0.000297658 0)
(0.535786 -0.000296434 0)
(0.535787 -0.000295437 0)
(0.535784 -0.00029463 0)