/*--------------------------------*- C++ -*----------------------------------*\
| =========                 |                                                 |
| \\      /  F ield         | OpenFOAM: The Open Source CFD Toolbox           |
|  \\    /   O peration     | Version:  2512                                  |
|   \\  /    A nd           | Website:  www.openfoam.com                      |
|    \\/     M anipulation  |                                                 |
\*---------------------------------------------------------------------------*/
FoamFile
{
    version     2.0;
    format      ascii;
    arch        "LSB;label=32;scalar=64";
    class       volScalarField;
    location    "0.001";
    object      Ux;
}
// * * * * * * * * * * * * * * * * * * * * * * * * * * * * * * * * * * * * * //

dimensions      [0 1 -1 0 0 0 0];

internalField   nonuniform List<scalar> 
100000
(
0.753244
0.649422
0.483367
0.379969
0.322623
0.289373
0.26894
0.255689
0.246578
0.239953
0.234904
0.230915
0.227675
0.224985
0.222715
0.220773
0.219094
0.217627
0.216336
0.215193
0.214175
0.213262
0.212442
0.2117
0.211028
0.210418
0.209861
0.209352
0.208885
0.208457
0.208063
0.2077
0.207366
0.207057
0.206772
0.206509
0.206267
0.206043
0.205837
0.205649
0.205475
0.205315
0.205168
0.205032
0.204907
0.20479
0.204683
0.204585
0.204496
0.204414
0.204339
0.204272
0.204211
0.204156
0.204106
0.204063
0.204025
0.203991
0.203963
0.203939
0.20392
0.203904
0.203893
0.203885
0.20388
0.203879
0.20388
0.203884
0.20389
0.203897
0.203904
0.20391
0.203913
0.203912
0.203905
0.203891
0.20387
0.203843
0.203809
0.203771
0.203728
0.203682
0.203633
0.203582
0.203528
0.203472
0.203414
0.203355
0.203294
0.203232
0.203168
0.203104
0.203038
0.202972
0.202905
0.202837
0.202769
0.2027
0.202631
0.202561
0.202492
0.202422
0.202352
0.202282
0.202213
0.202143
0.202074
0.202005
0.201936
0.201867
0.201798
0.201729
0.201659
0.201588
0.201515
0.201439
0.201362
0.201281
0.201199
0.201115
0.201029
0.200941
0.200852
0.200762
0.20067
0.200578
0.200484
0.20039
0.200294
0.200198
0.200101
0.200003
0.199905
0.199806
0.199707
0.199607
0.199506
0.199405
0.199304
0.199202
0.1991
0.198997
0.198894
0.198791
0.198687
0.198582
0.198478
0.198372
0.198266
0.198159
0.198051
0.197941
0.197831
0.19772
0.197608
0.197494
0.19738
0.197265
0.197149
0.197033
0.196915
0.196797
0.196678
0.196558
0.196437
0.196316
0.196194
0.196071
0.195948
0.195823
0.195699
0.195573
0.195447
0.19532
0.195193
0.195065
0.194936
0.194807
0.194677
0.194546
0.194414
0.194281
0.194148
0.194013
0.193877
0.19374
0.193603
0.193464
0.193324
0.193184
0.193043
0.192901
0.192758
0.192614
0.19247
0.192325
0.192179
0.192032
0.191885
0.191738
0.191589
0.19144
0.19129
0.19114
0.190988
0.190836
0.190684
0.19053
0.190376
0.19022
0.190064
0.189907
0.189749
0.18959
0.18943
0.189269
0.189107
0.188944
0.188781
0.188616
0.188451
0.188284
0.188117
0.187949
0.18778
0.18761
0.187439
0.187268
0.187095
0.186922
0.186748
0.186573
0.186398
0.186221
0.186044
0.185866
0.185687
0.185507
0.185326
0.185145
0.184963
0.184779
0.184595
0.18441
0.184225
0.184038
0.183851
0.183663
0.183473
0.183284
0.183093
0.182901
0.182709
0.182516
0.182322
0.182127
0.181931
0.181735
0.181537
0.181339
0.18114
0.18094
0.18074
0.180538
0.180336
0.180133
0.179929
0.179724
0.179519
0.179312
0.179105
0.178897
0.178688
0.178478
0.178268
0.178057
0.177844
0.177631
0.177418
0.177203
0.176988
0.176772
0.176555
0.176337
0.176118
0.175899
0.175679
0.175458
0.175236
0.175014
0.174791
0.174567
0.174342
0.174116
0.17389
0.173663
0.173435
0.173206
0.172977
0.172746
0.172515
0.172284
0.172051
0.171818
0.171584
0.171349
0.171114
0.170878
0.170641
0.170403
0.170165
0.169926
0.169686
0.169446
0.169204
0.168962
0.16872
0.168477
0.168233
0.167988
0.167742
0.167496
0.16725
0.167002
0.166754
0.166505
0.166256
0.166006
0.165755
0.165504
0.165252
0.164999
0.164746
0.164492
0.164238
0.163982
0.163727
0.16347
0.163213
0.162956
0.162698
0.162439
0.162179
0.16192
0.161659
0.161398
0.161136
0.160874
0.160611
0.160348
0.160084
0.15982
0.159555
0.159289
0.159023
0.158757
0.15849
0.158222
0.157954
0.157686
0.157417
0.157147
0.156877
0.156607
0.156336
0.156065
0.155793
0.15552
0.155248
0.154975
0.154701
0.154427
0.154153
0.153878
0.153602
0.153327
0.153051
0.152774
0.152497
0.15222
0.151943
0.151665
0.151387
0.151108
0.150829
0.15055
0.15027
0.14999
0.14971
0.149429
0.149148
0.148867
0.148586
0.148304
0.148022
0.14774
0.147457
0.147174
0.146891
0.146608
0.146324
0.146041
0.145757
0.145473
0.145188
0.144904
0.144619
0.144334
0.144049
0.143763
0.143478
0.143192
0.142907
0.142621
0.142335
0.142049
0.141762
0.141476
0.14119
0.140903
0.140616
0.14033
0.140043
0.139756
0.139469
0.139182
0.138895
0.138608
0.138321
0.138034
0.137747
0.13746
0.137173
0.136886
0.136599
0.136312
0.136026
0.135739
0.135452
0.135165
0.134879
0.134592
0.134306
0.134019
0.133733
0.133447
0.133161
0.132875
0.132589
0.132304
0.132018
0.131733
0.131448
0.131163
0.130878
0.130594
0.13031
0.130026
0.129742
0.129458
0.129175
0.128892
0.128609
0.128326
0.128044
0.127762
0.12748
0.127199
0.126918
0.126637
0.126356
0.126076
0.125796
0.125517
0.125238
0.124959
0.124681
0.124403
0.124126
0.123849
0.123572
0.123296
0.12302
0.122744
0.122469
0.122195
0.121921
0.121647
0.121374
0.121102
0.12083
0.120558
0.120287
0.120017
0.119747
0.119478
0.119209
0.118941
0.118673
0.118406
0.118139
0.117874
0.117608
0.117344
0.11708
0.116816
0.116553
0.116291
0.11603
0.115769
0.115509
0.11525
0.114991
0.114733
0.114476
0.114219
0.113964
0.113709
0.113454
0.113201
0.112948
0.112696
0.112445
0.112195
0.111945
0.111696
0.111448
0.111201
0.110955
0.11071
0.110465
0.110221
0.109979
0.109737
0.109496
0.109256
0.109016
0.108778
0.108541
0.108304
0.108069
0.107834
0.107601
0.107368
0.107136
0.106906
0.106676
0.106448
0.10622
0.105993
0.105768
0.105543
0.10532
0.105097
0.104876
0.104656
0.104437
0.104219
0.104002
0.103786
0.103571
0.103357
0.103145
0.102933
0.102723
0.102514
0.102306
0.102099
0.101894
0.101689
0.101486
0.101284
0.101084
0.100884
0.100686
0.100489
0.100293
0.100098
0.0999049
0.0997128
0.099522
0.0993325
0.0991443
0.0989574
0.0987718
0.0985875
0.0984046
0.0982229
0.0980426
0.0978637
0.0976861
0.0975098
0.0973349
0.0971614
0.0969893
0.0968186
0.0966492
0.0964813
0.0963148
0.0961497
0.095986
0.0958237
0.0956629
0.0955035
0.0953456
0.0951892
0.0950342
0.0948807
0.0947286
0.0945781
0.094429
0.0942815
0.0941354
0.0939909
0.0938479
0.0937064
0.0935664
0.093428
0.0932911
0.0931558
0.0930221
0.0928899
0.0927593
0.0926302
0.0925028
0.0923769
0.0922526
0.09213
0.0920089
0.0918895
0.0917717
0.0916555
0.0915409
0.091428
0.0913167
0.0912071
0.0910991
0.0909928
0.0908881
0.0907851
0.0906838
0.0905842
0.0904863
0.0903901
0.0902955
0.0902027
0.0901115
0.0900221
0.0899344
0.0898485
0.0897642
0.0896817
0.0896009
0.0895219
0.0894446
0.0893691
0.0892953
0.0892233
0.0891531
0.0890846
0.0890179
0.088953
0.0888899
0.0888286
0.088769
0.0887113
0.0886553
0.0886012
0.0885488
0.0884983
0.0884496
0.0884027
0.0883577
0.0883144
0.088273
0.0882335
0.0881958
0.0881599
0.0881258
0.0880937
0.0880633
0.0880348
0.0880082
0.0879835
0.0879606
0.0879395
0.0879204
0.0879031
0.0878877
0.0878742
0.0878625
0.0878528
0.0878449
0.0878389
0.0878348
0.0878326
0.0878324
0.087834
0.0878375
0.0878429
0.0878502
0.0878594
0.0878706
0.0878836
0.0878986
0.0879154
0.0879342
0.0879549
0.0879776
0.0880021
0.0880286
0.088057
0.0880874
0.0881196
0.0881538
0.0881899
0.088228
0.088268
0.0883099
0.0883537
0.0883995
0.0884472
0.0884969
0.0885484
0.088602
0.0886574
0.0887148
0.0887742
0.0888355
0.0888987
0.0889639
0.089031
0.0891
0.089171
0.0892439
0.0893188
0.0893955
0.0894743
0.089555
0.0896376
0.0897221
0.0898086
0.089897
0.0899874
0.0900797
0.0901739
0.0902701
0.0903682
0.0904682
0.0905702
0.090674
0.0907798
0.0908876
0.0909972
0.0911088
0.0912223
0.0913378
0.0914551
0.0915744
0.0916956
0.0918187
0.0919437
0.0920706
0.0921994
0.0923301
0.0924628
0.0925973
0.0927337
0.0928721
0.0930123
0.0931544
0.0932984
0.0934443
0.0935921
0.0937417
0.0938933
0.0940467
0.094202
0.0943591
0.0945181
0.094679
0.0948418
0.0950064
0.0951728
0.0953411
0.0955112
0.0956832
0.0958571
0.0960327
0.0962102
0.0963895
0.0965707
0.0967537
0.0969384
0.097125
0.0973134
0.0975036
0.0976956
0.0978894
0.098085
0.0982824
0.0984816
0.0986825
0.0988852
0.0990897
0.0992959
0.0995039
0.0997136
0.0999251
0.100138
0.100353
0.10057
0.100788
0.101009
0.10123
0.101454
0.101679
0.101906
0.102135
0.102365
0.102597
0.102831
0.103067
0.103304
0.103542
0.103783
0.104025
0.104268
0.104514
0.104761
0.105009
0.105259
0.105511
0.105764
0.106019
0.106276
0.106534
0.106794
0.107055
0.107318
0.107582
0.107848
0.108116
0.108385
0.108655
0.108927
0.109201
0.109476
0.109753
0.110031
0.11031
0.110591
0.110874
0.111158
0.111443
0.11173
0.112018
0.112308
0.112599
0.112891
0.113185
0.113481
0.113777
0.114076
0.114375
0.114676
0.114978
0.115282
0.115586
0.115893
0.1162
0.116509
0.116819
0.11713
0.117443
0.117757
0.118072
0.118389
0.118706
0.119025
0.119346
0.119667
0.11999
0.120313
0.120638
0.120965
0.121292
0.12162
0.12195
0.122281
0.122613
0.122946
0.12328
0.123615
0.123952
0.124289
0.124628
0.124967
0.125308
0.125649
0.125992
0.126336
0.12668
0.127026
0.127373
0.12772
0.128069
0.128419
0.128769
0.12912
0.129473
0.129826
0.13018
0.130535
0.130891
0.131247
0.131605
0.131963
0.132322
0.132682
0.133043
0.133405
0.133767
0.13413
0.134494
0.134858
0.135223
0.135589
0.135955
0.136322
0.13669
0.137058
0.137427
0.137797
0.138167
0.138537
0.138908
0.13928
0.139652
0.140025
0.140397
0.140771
0.141144
0.141518
0.141893
0.142267
0.142642
0.143017
0.143393
0.143768
0.144144
0.14452
0.144895
0.145271
0.145647
0.146022
0.146398
0.146773
0.147148
0.147523
0.147897
0.148271
0.148644
0.149016
0.149388
0.149759
0.150129
0.150498
0.150866
0.151233
0.151598
0.151961
0.152323
0.152682
0.153039
0.153394
0.153746
0.154095
0.15444
0.154782
0.155119
0.155452
0.155779
0.1561
0.156415
0.156722
0.157021
0.157311
0.15759
0.157858
0.158111
0.158349
0.158568
0.158765
0.158935
0.15907
0.159165
0.159202
0.159061
0.158672
0.99621
0.982731
0.886569
0.796226
0.729957
0.683603
0.651097
0.627857
0.610756
0.597775
0.587633
0.579512
0.572876
0.567358
0.562707
0.55874
0.555324
0.552358
0.549764
0.547483
0.545468
0.543679
0.542085
0.540662
0.539387
0.538242
0.537214
0.536288
0.535454
0.534702
0.534025
0.533416
0.532867
0.532376
0.531936
0.531544
0.531197
0.530887
0.530614
0.530378
0.530177
0.530006
0.529864
0.529747
0.529655
0.529585
0.529537
0.529509
0.529499
0.529507
0.529531
0.529571
0.529625
0.529694
0.529776
0.529871
0.529978
0.530097
0.530227
0.530367
0.530518
0.530678
0.530847
0.531024
0.531209
0.531401
0.531599
0.531803
0.53201
0.53222
0.53243
0.532638
0.53284
0.533032
0.533211
0.533376
0.533524
0.533658
0.533779
0.533888
0.533987
0.534079
0.534163
0.534241
0.534313
0.534381
0.534445
0.534505
0.534561
0.534615
0.534665
0.534714
0.53476
0.534804
0.534847
0.534889
0.534929
0.534969
0.535009
0.535048
0.535087
0.535125
0.535165
0.535204
0.535245
0.535285
0.535327
0.53537
0.535413
0.535456
0.5355
0.535544
0.535586
0.535625
0.535661
0.535692
0.535719
0.53574
0.535757
0.535769
0.535778
0.535784
0.535786
0.535787
0.535784
0.53578
0.535774
0.535766
0.535756
0.535745
0.535732
0.535719
0.535704
0.535688
0.535672
0.535654
0.535636
0.535618
0.535599
0.53558
0.53556
0.53554
0.535519
0.535498
0.535476
0.535454
0.535432
0.535408
0.535383
0.535357
0.535328
0.535298
0.535266
0.535233
0.535197
0.53516
0.535121
0.535081
0.535039
0.534996
0.534952
0.534906
0.534859
0.534811
0.534762
0.534711
0.534659
0.534606
0.534552
0.534497
0.534441
0.534384
0.534327
0.534268
0.534208
0.534148
0.534086
0.534023
0.53396
0.533895
0.533828
0.53376
0.533691
0.533619
0.533546
0.533471
0.533394
0.533316
0.533236
0.533154
0.533071
0.532987
0.532902
0.532815
0.532728
0.532639
0.532549
0.532458
0.532367
0.532274
0.53218
0.532086
0.53199
0.531893
0.531795
0.531696
0.531595
0.531493
0.53139
0.531285
0.531179
0.531072
0.530962
0.530851
0.530739
0.530624
0.530509
0.530391
0.530272
0.530151
0.530029
0.529905
0.52978
0.529653
0.529525
0.529395
0.529264
0.529131
0.528997
0.528861
0.528725
0.528586
0.528447
0.528305
0.528163
0.528019
0.527874
0.527727
0.527579
0.527429
0.527278
0.527126
0.526972
0.526816
0.526659
0.5265
0.52634
0.526179
0.526016
0.525852
0.525686
0.525518
0.52535
0.525179
0.525008
0.524835
0.52466
0.524484
0.524306
0.524127
0.523947
0.523765
0.523581
0.523396
0.523209
0.523021
0.522831
0.52264
0.522448
0.522253
0.522058
0.52186
0.521661
0.521461
0.521259
0.521056
0.520851
0.520644
0.520436
0.520226
0.520015
0.519803
0.519589
0.519373
0.519156
0.518937
0.518717
0.518495
0.518272
0.518047
0.51782
0.517592
0.517363
0.517132
0.516899
0.516665
0.51643
0.516192
0.515954
0.515713
0.515471
0.515228
0.514983
0.514737
0.514489
0.514239
0.513988
0.513736
0.513482
0.513226
0.512969
0.512711
0.51245
0.512189
0.511926
0.511661
0.511395
0.511127
0.510858
0.510587
0.510315
0.510041
0.509766
0.509489
0.509211
0.508931
0.50865
0.508367
0.508083
0.507797
0.50751
0.507222
0.506932
0.50664
0.506347
0.506053
0.505757
0.505459
0.50516
0.50486
0.504558
0.504255
0.503951
0.503645
0.503337
0.503028
0.502718
0.502406
0.502093
0.501778
0.501462
0.501145
0.500826
0.500506
0.500184
0.499861
0.499537
0.499211
0.498884
0.498555
0.498225
0.497894
0.497561
0.497227
0.496892
0.496555
0.496217
0.495877
0.495537
0.495195
0.494851
0.494506
0.49416
0.493813
0.493464
0.493114
0.492763
0.492411
0.492057
0.491702
0.491345
0.490988
0.490629
0.490269
0.489907
0.489544
0.48918
0.488815
0.488449
0.488081
0.487712
0.487342
0.486971
0.486598
0.486225
0.48585
0.485474
0.485097
0.484718
0.484339
0.483958
0.483576
0.483193
0.482809
0.482423
0.482037
0.481649
0.481261
0.480871
0.48048
0.480088
0.479695
0.479301
0.478905
0.478509
0.478112
0.477713
0.477314
0.476913
0.476511
0.476109
0.475705
0.4753
0.474895
0.474488
0.47408
0.473672
0.473262
0.472851
0.47244
0.472027
0.471614
0.471199
0.470784
0.470367
0.46995
0.469532
0.469113
0.468693
0.468272
0.46785
0.467428
0.467004
0.46658
0.466155
0.465729
0.465302
0.464874
0.464445
0.464016
0.463586
0.463155
0.462723
0.46229
0.461857
0.461423
0.460988
0.460553
0.460116
0.459679
0.459241
0.458803
0.458364
0.457924
0.457483
0.457042
0.4566
0.456157
0.455714
0.45527
0.454825
0.45438
0.453934
0.453488
0.45304
0.452593
0.452144
0.451696
0.451246
0.450796
0.450346
0.449894
0.449443
0.448991
0.448538
0.448085
0.447631
0.447177
0.446722
0.446267
0.445811
0.445355
0.444898
0.444441
0.443984
0.443526
0.443068
0.442609
0.44215
0.441691
0.441231
0.44077
0.44031
0.439849
0.439388
0.438926
0.438464
0.438002
0.437539
0.437076
0.436613
0.43615
0.435686
0.435222
0.434758
0.434293
0.433829
0.433364
0.432899
0.432433
0.431968
0.431502
0.431036
0.43057
0.430104
0.429637
0.429171
0.428704
0.428237
0.427771
0.427304
0.426836
0.426369
0.425902
0.425435
0.424967
0.4245
0.424032
0.423565
0.423097
0.42263
0.422162
0.421695
0.421227
0.42076
0.420292
0.419825
0.419357
0.41889
0.418423
0.417956
0.417489
0.417022
0.416555
0.416088
0.415621
0.415155
0.414688
0.414222
0.413756
0.41329
0.412825
0.412359
0.411894
0.411429
0.410964
0.410499
0.410035
0.409571
0.409107
0.408643
0.40818
0.407716
0.407254
0.406791
0.406329
0.405867
0.405405
0.404944
0.404483
0.404023
0.403562
0.403102
0.402643
0.402184
0.401725
0.401267
0.400809
0.400352
0.399895
0.399438
0.398982
0.398526
0.398071
0.397616
0.397162
0.396708
0.396255
0.395802
0.39535
0.394898
0.394447
0.393996
0.393546
0.393096
0.392647
0.392199
0.391751
0.391304
0.390857
0.390411
0.389966
0.389521
0.389077
0.388633
0.38819
0.387748
0.387306
0.386865
0.386425
0.385985
0.385546
0.385108
0.384671
0.384234
0.383798
0.383363
0.382928
0.382494
0.382061
0.381629
0.381197
0.380766
0.380336
0.379907
0.379479
0.379051
0.378624
0.378198
0.377773
0.377349
0.376925
0.376503
0.376081
0.37566
0.37524
0.37482
0.374402
0.373985
0.373568
0.373152
0.372738
0.372324
0.371911
0.371499
0.371088
0.370678
0.370269
0.36986
0.369453
0.369047
0.368642
0.368237
0.367834
0.367432
0.36703
0.36663
0.36623
0.365832
0.365435
0.365038
0.364643
0.364249
0.363856
0.363463
0.363072
0.362682
0.362293
0.361905
0.361518
0.361133
0.360748
0.360364
0.359982
0.3596
0.35922
0.358841
0.358463
0.358086
0.35771
0.357335
0.356962
0.356589
0.356218
0.355848
0.355479
0.355111
0.354744
0.354378
0.354014
0.353651
0.353289
0.352928
0.352568
0.35221
0.351852
0.351496
0.351141
0.350788
0.350435
0.350084
0.349734
0.349385
0.349037
0.348691
0.348346
0.348002
0.347659
0.347317
0.346977
0.346638
0.3463
0.345964
0.345629
0.345295
0.344962
0.34463
0.3443
0.343971
0.343643
0.343317
0.342992
0.342668
0.342345
0.342024
0.341704
0.341385
0.341067
0.340751
0.340436
0.340122
0.33981
0.339499
0.339189
0.338881
0.338573
0.338268
0.337963
0.33766
0.337358
0.337057
0.336758
0.336459
0.336163
0.335867
0.335573
0.33528
0.334989
0.334698
0.334409
0.334122
0.333835
0.33355
0.333267
0.332984
0.332703
0.332423
0.332145
0.331868
0.331592
0.331317
0.331044
0.330772
0.330502
0.330232
0.329964
0.329698
0.329432
0.329168
0.328906
0.328644
0.328384
0.328125
0.327868
0.327611
0.327357
0.327103
0.326851
0.3266
0.32635
0.326101
0.325854
0.325608
0.325364
0.325121
0.324879
0.324638
0.324399
0.32416
0.323924
0.323688
0.323454
0.323221
0.322989
0.322758
0.322529
0.322301
0.322074
0.321849
0.321625
0.321402
0.32118
0.32096
0.320741
0.320523
0.320306
0.32009
0.319876
0.319663
0.319451
0.319241
0.319032
0.318823
0.318616
0.318411
0.318206
0.318003
0.317801
0.3176
0.3174
0.317202
0.317004
0.316808
0.316613
0.316419
0.316227
0.316035
0.315845
0.315656
0.315468
0.315281
0.315095
0.31491
0.314727
0.314545
0.314363
0.314183
0.314004
0.313826
0.31365
0.313474
0.313299
0.313126
0.312953
0.312782
0.312612
0.312442
0.312274
0.312107
0.311941
0.311776
0.311612
0.311449
0.311287
0.311126
0.310966
0.310807
0.310649
0.310493
0.310337
0.310182
0.310028
0.309875
0.309723
0.309572
0.309422
0.309273
0.309124
0.308977
0.308831
0.308685
0.308541
0.308397
0.308254
0.308112
0.307971
0.307831
0.307692
0.307554
0.307416
0.30728
0.307144
0.307009
0.306874
0.306741
0.306609
0.306477
0.306346
0.306216
0.306086
0.305957
0.305829
0.305702
0.305576
0.30545
0.305325
0.305201
0.305077
0.304954
0.304832
0.30471
0.304589
0.304469
0.304349
0.30423
0.304112
0.303994
0.303877
0.30376
0.303644
0.303528
0.303413
0.303299
0.303185
0.303071
0.302958
0.302846
0.302734
0.302622
0.302511
0.3024
0.302289
0.302179
0.302069
0.301959
0.30185
0.301741
0.301632
0.301524
0.301416
0.301307
0.301199
0.301091
0.300983
0.300876
0.300768
0.30066
0.300552
0.300444
0.300335
0.300227
0.300118
0.300009
0.299899
0.299789
0.299679
0.299568
0.299456
0.299343
0.29923
0.299115
0.299
0.298883
0.298765
0.298646
0.298525
0.298402
0.298277
0.29815
0.298021
0.297889
0.297754
0.297616
0.297474
0.297329
0.297179
0.297025
0.296865
0.2967
0.296528
0.29635
0.296163
0.295967
0.295762
0.295546
0.295318
0.295075
0.294818
0.294542
0.294247
0.293928
0.293583
0.293208
0.292795
0.292339
0.291831
0.291264
0.290619
0.289737
0.288586
1.01454
1.06031
1.04235
1.00228
0.960185
0.923619
0.894021
0.870621
0.852135
0.837384
0.825448
0.815648
0.807486
0.800603
0.794733
0.789676
0.785283
0.781438
0.77805
0.775049
0.772377
0.769987
0.767841
0.765909
0.764163
0.762582
0.761147
0.759841
0.758652
0.757567
0.756577
0.755672
0.754845
0.754089
0.753398
0.752767
0.752193
0.751673
0.751203
0.750775
0.750388
0.750041
0.74973
0.749452
0.749206
0.74899
0.7488
0.748636
0.748496
0.748379
0.748283
0.748207
0.748151
0.748114
0.748093
0.748089
0.748102
0.748129
0.74817
0.748225
0.748294
0.748374
0.748466
0.748568
0.74868
0.748801
0.74893
0.749066
0.749207
0.74935
0.749495
0.749636
0.749771
0.749895
0.750004
0.750096
0.750169
0.750225
0.750264
0.750289
0.750302
0.750305
0.750298
0.750284
0.750263
0.750236
0.750203
0.750166
0.750124
0.750079
0.75003
0.749978
0.749924
0.749867
0.749809
0.749749
0.749688
0.749626
0.749564
0.749501
0.749438
0.749375
0.749313
0.749251
0.749191
0.749131
0.749072
0.749014
0.748957
0.748901
0.748846
0.74879
0.748732
0.748672
0.748608
0.748538
0.748463
0.748382
0.748295
0.748203
0.748106
0.748006
0.747901
0.747794
0.747684
0.74757
0.747455
0.747337
0.747218
0.747097
0.746974
0.746849
0.746724
0.746597
0.74647
0.746342
0.746213
0.746084
0.745954
0.745824
0.745694
0.745563
0.745432
0.745301
0.74517
0.745038
0.744905
0.744772
0.744637
0.744501
0.744363
0.744222
0.74408
0.743935
0.743788
0.74364
0.74349
0.743338
0.743185
0.74303
0.742873
0.742715
0.742556
0.742395
0.742233
0.74207
0.741905
0.74174
0.741573
0.741405
0.741236
0.741066
0.740895
0.740724
0.740551
0.740377
0.740203
0.740027
0.73985
0.739672
0.739492
0.739311
0.739127
0.738942
0.738755
0.738565
0.738374
0.73818
0.737986
0.737789
0.737591
0.737392
0.737191
0.736989
0.736786
0.736582
0.736377
0.736171
0.735964
0.735756
0.735547
0.735337
0.735126
0.734914
0.7347
0.734486
0.73427
0.734052
0.733833
0.733613
0.733391
0.733167
0.732942
0.732715
0.732485
0.732255
0.732022
0.731787
0.731551
0.731313
0.731073
0.730831
0.730588
0.730343
0.730097
0.729849
0.729599
0.729348
0.729096
0.728842
0.728586
0.728329
0.72807
0.72781
0.727549
0.727285
0.727021
0.726755
0.726487
0.726218
0.725947
0.725675
0.725401
0.725125
0.724848
0.724569
0.724289
0.724006
0.723723
0.723438
0.723151
0.722863
0.722573
0.722282
0.721989
0.721694
0.721398
0.7211
0.720801
0.7205
0.720197
0.719893
0.719587
0.71928
0.718971
0.71866
0.718348
0.718033
0.717718
0.7174
0.717081
0.71676
0.716438
0.716114
0.715788
0.71546
0.715131
0.7148
0.714468
0.714134
0.713798
0.713461
0.713121
0.712781
0.712438
0.712094
0.711748
0.711401
0.711052
0.710701
0.710348
0.709994
0.709638
0.70928
0.708921
0.70856
0.708197
0.707832
0.707466
0.707098
0.706729
0.706358
0.705985
0.70561
0.705234
0.704856
0.704476
0.704095
0.703712
0.703327
0.70294
0.702552
0.702163
0.701771
0.701378
0.700983
0.700587
0.700188
0.699788
0.699387
0.698984
0.698579
0.698172
0.697764
0.697354
0.696943
0.696529
0.696114
0.695698
0.69528
0.69486
0.694438
0.694015
0.693591
0.693164
0.692736
0.692306
0.691875
0.691442
0.691008
0.690571
0.690134
0.689694
0.689253
0.68881
0.688366
0.68792
0.687473
0.687024
0.686573
0.686121
0.685667
0.685211
0.684754
0.684296
0.683836
0.683374
0.682911
0.682446
0.681979
0.681511
0.681042
0.680571
0.680098
0.679624
0.679148
0.678671
0.678192
0.677712
0.67723
0.676746
0.676262
0.675775
0.675287
0.674798
0.674307
0.673815
0.673321
0.672826
0.672329
0.671831
0.671331
0.67083
0.670327
0.669823
0.669317
0.66881
0.668302
0.667792
0.667281
0.666768
0.666254
0.665739
0.665222
0.664704
0.664184
0.663663
0.66314
0.662617
0.662091
0.661565
0.661037
0.660508
0.659977
0.659445
0.658912
0.658377
0.657841
0.657304
0.656766
0.656226
0.655685
0.655142
0.654598
0.654053
0.653507
0.65296
0.652411
0.651861
0.651309
0.650757
0.650203
0.649648
0.649092
0.648535
0.647976
0.647416
0.646855
0.646293
0.645729
0.645165
0.644599
0.644032
0.643464
0.642895
0.642325
0.641753
0.641181
0.640607
0.640032
0.639456
0.63888
0.638301
0.637722
0.637142
0.636561
0.635979
0.635395
0.634811
0.634225
0.633639
0.633051
0.632463
0.631873
0.631283
0.630691
0.630099
0.629506
0.628911
0.628316
0.627719
0.627122
0.626524
0.625925
0.625325
0.624724
0.624122
0.62352
0.622916
0.622312
0.621706
0.6211
0.620493
0.619885
0.619276
0.618667
0.618057
0.617445
0.616834
0.616221
0.615607
0.614993
0.614378
0.613762
0.613145
0.612528
0.61191
0.611291
0.610672
0.610052
0.609431
0.608809
0.608187
0.607564
0.60694
0.606316
0.605691
0.605066
0.60444
0.603813
0.603185
0.602558
0.601929
0.6013
0.60067
0.60004
0.599409
0.598777
0.598146
0.597513
0.59688
0.596247
0.595613
0.594978
0.594343
0.593708
0.593072
0.592435
0.591798
0.591161
0.590523
0.589885
0.589247
0.588608
0.587968
0.587329
0.586689
0.586048
0.585407
0.584766
0.584125
0.583483
0.582841
0.582198
0.581555
0.580912
0.580269
0.579625
0.578981
0.578337
0.577693
0.577048
0.576403
0.575758
0.575112
0.574467
0.573821
0.573175
0.572529
0.571883
0.571236
0.57059
0.569943
0.569296
0.568649
0.568002
0.567355
0.566708
0.56606
0.565413
0.564765
0.564118
0.56347
0.562823
0.562175
0.561527
0.560879
0.560232
0.559584
0.558936
0.558289
0.557641
0.556993
0.556346
0.555698
0.555051
0.554403
0.553756
0.553109
0.552462
0.551815
0.551168
0.550521
0.549875
0.549228
0.548582
0.547936
0.54729
0.546644
0.545998
0.545353
0.544708
0.544063
0.543418
0.542774
0.542129
0.541485
0.540842
0.540198
0.539555
0.538912
0.538269
0.537627
0.536985
0.536343
0.535702
0.535061
0.53442
0.53378
0.53314
0.5325
0.531861
0.531222
0.530583
0.529945
0.529308
0.52867
0.528033
0.527397
0.526761
0.526126
0.52549
0.524856
0.524222
0.523588
0.522955
0.522322
0.52169
0.521058
0.520427
0.519797
0.519166
0.518537
0.517908
0.517279
0.516652
0.516024
0.515397
0.514771
0.514146
0.513521
0.512896
0.512273
0.51165
0.511027
0.510405
0.509784
0.509163
0.508543
0.507924
0.507306
0.506688
0.50607
0.505454
0.504838
0.504223
0.503608
0.502995
0.502382
0.501769
0.501158
0.500547
0.499937
0.499328
0.498719
0.498111
0.497504
0.496898
0.496293
0.495688
0.495084
0.494481
0.493879
0.493277
0.492677
0.492077
0.491478
0.49088
0.490283
0.489686
0.489091
0.488496
0.487902
0.487309
0.486717
0.486126
0.485536
0.484946
0.484358
0.48377
0.483184
0.482598
0.482013
0.481429
0.480846
0.480264
0.479683
0.479102
0.478523
0.477945
0.477367
0.476791
0.476215
0.475641
0.475067
0.474495
0.473923
0.473353
0.472783
0.472215
0.471647
0.47108
0.470515
0.46995
0.469387
0.468824
0.468263
0.467702
0.467143
0.466584
0.466027
0.46547
0.464915
0.464361
0.463807
0.463255
0.462704
0.462154
0.461605
0.461057
0.46051
0.459964
0.459419
0.458876
0.458333
0.457792
0.457251
0.456712
0.456173
0.455636
0.4551
0.454565
0.454031
0.453498
0.452967
0.452436
0.451906
0.451378
0.450851
0.450324
0.449799
0.449275
0.448752
0.448231
0.44771
0.44719
0.446672
0.446155
0.445639
0.445123
0.44461
0.444097
0.443585
0.443074
0.442565
0.442057
0.44155
0.441043
0.440539
0.440035
0.439532
0.43903
0.43853
0.438031
0.437533
0.437036
0.43654
0.436045
0.435551
0.435059
0.434568
0.434077
0.433588
0.4331
0.432613
0.432128
0.431643
0.43116
0.430677
0.430196
0.429716
0.429237
0.428759
0.428283
0.427807
0.427332
0.426859
0.426387
0.425916
0.425446
0.424977
0.424509
0.424043
0.423577
0.423113
0.422649
0.422187
0.421726
0.421266
0.420807
0.420349
0.419892
0.419437
0.418982
0.418529
0.418077
0.417625
0.417175
0.416726
0.416278
0.415831
0.415385
0.41494
0.414497
0.414054
0.413612
0.413172
0.412732
0.412294
0.411856
0.41142
0.410985
0.41055
0.410117
0.409685
0.409254
0.408824
0.408395
0.407967
0.407539
0.407113
0.406688
0.406264
0.405841
0.405419
0.404998
0.404578
0.404159
0.403741
0.403324
0.402908
0.402492
0.402078
0.401665
0.401253
0.400841
0.400431
0.400021
0.399613
0.399205
0.398798
0.398393
0.397988
0.397584
0.397181
0.396779
0.396378
0.395977
0.395578
0.395179
0.394782
0.394385
0.393989
0.393594
0.393199
0.392806
0.392413
0.392022
0.391631
0.391241
0.390851
0.390463
0.390075
0.389689
0.389303
0.388917
0.388533
0.388149
0.387766
0.387384
0.387002
0.386622
0.386242
0.385863
0.385484
0.385106
0.384729
0.384353
0.383977
0.383602
0.383228
0.382854
0.382481
0.382109
0.381737
0.381366
0.380996
0.380626
0.380257
0.379888
0.37952
0.379152
0.378785
0.378419
0.378053
0.377688
0.377323
0.376959
0.376595
0.376232
0.375869
0.375507
0.375145
0.374783
0.374422
0.374061
0.373701
0.373341
0.372982
0.372622
0.372263
0.371905
0.371546
0.371188
0.37083
0.370472
0.370115
0.369757
0.3694
0.369043
0.368685
0.368328
0.367971
0.367614
0.367256
0.366899
0.366541
0.366183
0.365825
0.365467
0.365108
0.364748
0.364388
0.364028
0.363667
0.363305
0.362942
0.362579
0.362214
0.361848
0.361481
0.361113
0.360743
0.360372
0.359998
0.359623
0.359245
0.358865
0.358482
0.358097
0.357708
0.357315
0.356919
0.356518
0.356113
0.355703
0.355286
0.354864
0.354435
0.353998
0.353552
0.353097
0.352631
0.352154
0.351663
0.351158
0.350636
0.350095
0.349533
0.348948
0.348334
0.34769
0.347009
0.346286
0.345514
0.344686
0.343803
0.342863
0.341722
0.34034
1.01313
1.06842
1.08888
1.08548
1.06892
1.04801
1.02742
1.00897
0.993073
0.979582
0.968163
0.958466
0.950182
0.943055
0.936878
0.931486
0.92675
0.922563
0.918842
0.915518
0.912535
0.909846
0.907415
0.905208
0.903198
0.901363
0.899684
0.898142
0.896725
0.89542
0.894215
0.893102
0.892072
0.891119
0.890236
0.889418
0.88866
0.887959
0.88731
0.886709
0.886152
0.885636
0.885159
0.884718
0.884309
0.883932
0.883584
0.883264
0.882969
0.882698
0.882451
0.882226
0.882021
0.881836
0.881669
0.881521
0.881388
0.881272
0.881171
0.881084
0.88101
0.880949
0.8809
0.880862
0.880834
0.880815
0.880804
0.880799
0.880801
0.880805
0.880811
0.880815
0.880814
0.880804
0.880783
0.880746
0.880693
0.880624
0.88054
0.880443
0.880334
0.880215
0.880087
0.879952
0.87981
0.879662
0.879509
0.87935
0.879188
0.879022
0.878853
0.87868
0.878506
0.878329
0.87815
0.87797
0.877788
0.877606
0.877423
0.877239
0.877056
0.876873
0.87669
0.876507
0.876326
0.876145
0.875965
0.875786
0.875608
0.87543
0.875253
0.875076
0.874898
0.874718
0.874535
0.874346
0.874152
0.873953
0.873748
0.873538
0.873323
0.873104
0.872881
0.872655
0.872426
0.872194
0.871959
0.871723
0.871484
0.871243
0.871001
0.870757
0.870512
0.870266
0.870019
0.869771
0.869522
0.869273
0.869023
0.868773
0.868523
0.868272
0.868022
0.867771
0.86752
0.867269
0.867017
0.866764
0.86651
0.866254
0.865997
0.865737
0.865476
0.865212
0.864947
0.86468
0.864411
0.86414
0.863868
0.863594
0.863319
0.863042
0.862763
0.862484
0.862203
0.86192
0.861637
0.861352
0.861066
0.860779
0.860491
0.860202
0.859912
0.859621
0.859328
0.859035
0.858741
0.858446
0.85815
0.857852
0.857553
0.857252
0.856949
0.856645
0.856338
0.856029
0.855718
0.855405
0.855091
0.854775
0.854458
0.854139
0.853819
0.853497
0.853175
0.852851
0.852527
0.852202
0.851875
0.851548
0.85122
0.850891
0.850561
0.850229
0.849897
0.849563
0.849228
0.848891
0.848553
0.848213
0.847872
0.847529
0.847185
0.846838
0.84649
0.84614
0.845787
0.845434
0.845078
0.84472
0.844361
0.844
0.843638
0.843273
0.842907
0.84254
0.842171
0.8418
0.841428
0.841055
0.840679
0.840303
0.839925
0.839545
0.839164
0.838782
0.838398
0.838012
0.837625
0.837236
0.836846
0.836454
0.836061
0.835666
0.835269
0.834871
0.834471
0.834069
0.833666