/*--------------------------------*- C++ -*----------------------------------*\
| =========                 |                                                 |
| \\      /  F ield         | OpenFOAM: The Open Source CFD Toolbox           |
|  \\    /   O peration     | Version:  2512                                  |
|   \\  /    A nd           | Website:  www.openfoam.com                      |
|    \\/     M anipulation  |                                                 |
\*---------------------------------------------------------------------------*/
FoamFile
{
    version     2.0;
    format      ascii;
    arch        "LSB;label=32;scalar=64";
    class       volScalarField;
    location    "0.001";
    object      Uy;
}
// * * * * * * * * * * * * * * * * * * * * * * * * * * * * * * * * * * * * * //

dimensions      [0 1 -1 0 0 0 0];

internalField   nonuniform List<scalar> 
100000
(
0.131962
0.100524
0.0486555
0.0246541
0.0132518
0.00730346
0.00420226
0.00259248
0.00172684
0.00123121
0.000926393
0.000725502
0.000584878
0.000481536
0.000402671
0.000340696
0.000290849
0.000249975
0.0002159
0.000187114
0.000162642
0.000141802
0.000124061
0.000108948
9.60513e-05
8.50483e-05
7.57235e-05
6.78452e-05
6.12112e-05
5.55971e-05
5.08798e-05
4.70382e-05
4.4044e-05
4.18279e-05
4.03789e-05
3.98457e-05
4.04736e-05
4.1892e-05
4.16588e-05
3.90199e-05
3.59411e-05
3.25242e-05
2.88602e-05
2.44238e-05
1.97979e-05
1.57499e-05
1.22748e-05
9.25796e-06
6.59849e-06
4.22225e-06
2.07538e-06
1.17005e-07
-1.68454e-06
-3.35427e-06
-4.91266e-06
-6.3766e-06
-7.7592e-06
-9.06898e-06
-1.03095e-05
-1.14821e-05
-1.25887e-05
-1.36334e-05
-1.46211e-05
-1.55556e-05
-1.6438e-05
-1.72656e-05
-1.803e-05
-1.87137e-05
-1.92851e-05
-1.96925e-05
-1.98619e-05
-1.97064e-05
-1.91553e-05
-1.81995e-05
-1.69245e-05
-1.54963e-05
-1.40989e-05
-1.28659e-05
-1.18532e-05
-1.10545e-05
-1.04323e-05
-9.94364e-06
-9.55196e-06
-9.23097e-06
-8.9634e-06
-8.73845e-06
-8.5495e-06
-8.39248e-06
-8.2649e-06
-8.16518e-06
-8.09227e-06
-8.04536e-06
-8.02375e-06
-8.02672e-06
-8.05354e-06
-8.10352e-06
-8.17601e-06
-8.2705e-06
-8.38656e-06
-8.52381e-06
-8.68189e-06
-8.86038e-06
-9.05856e-06
-9.27539e-06
-9.50944e-06
-9.75875e-06
-1.002e-05
-1.02868e-05
-1.05475e-05
-1.07823e-05
-1.09618e-05
-1.10502e-05
-1.10153e-05
-1.0843e-05
-1.05486e-05
-1.01763e-05
-9.78433e-06
-9.42455e-06
-9.12717e-06
-8.89925e-06
-8.73239e-06
-8.61266e-06
-8.52764e-06
-8.46886e-06
-8.4315e-06
-8.41294e-06
-8.41174e-06
-8.42698e-06
-8.45806e-06
-8.50453e-06
-8.56598e-06
-8.64198e-06
-8.73207e-06
-8.83578e-06
-8.9525e-06
-9.08122e-06
-9.22021e-06
-9.367e-06
-9.51879e-06
-9.67332e-06
-9.82993e-06
-9.98941e-06
-1.01522e-05
-1.03165e-05
-1.04777e-05
-1.06282e-05
-1.07592e-05
-1.08612e-05
-1.09281e-05
-1.09606e-05
-1.0969e-05
-1.09696e-05
-1.09782e-05
-1.10039e-05
-1.1048e-05
-1.11072e-05
-1.1177e-05
-1.12543e-05
-1.13372e-05
-1.14251e-05
-1.15177e-05
-1.16153e-05
-1.17181e-05
-1.18264e-05
-1.19402e-05
-1.20596e-05
-1.21845e-05
-1.23151e-05
-1.24514e-05
-1.25939e-05
-1.27433e-05
-1.28976e-05
-1.3055e-05
-1.32188e-05
-1.33854e-05
-1.35501e-05
-1.37099e-05
-1.38618e-05
-1.40018e-05
-1.41264e-05
-1.42331e-05
-1.43228e-05
-1.44001e-05
-1.44726e-05
-1.45482e-05
-1.46326e-05
-1.47289e-05
-1.48378e-05
-1.49588e-05
-1.50909e-05
-1.52334e-05
-1.53857e-05
-1.55472e-05
-1.57177e-05
-1.58965e-05
-1.60825e-05
-1.62743e-05
-1.64697e-05
-1.66666e-05
-1.68633e-05
-1.70582e-05
-1.72506e-05
-1.74401e-05
-1.76268e-05
-1.78109e-05
-1.79922e-05
-1.81702e-05
-1.83439e-05
-1.85126e-05
-1.86758e-05
-1.88336e-05
-1.89868e-05
-1.91369e-05
-1.92861e-05
-1.94368e-05
-1.95909e-05
-1.97494e-05
-1.99126e-05
-2.00807e-05
-2.02532e-05
-2.043e-05
-2.06108e-05
-2.07955e-05
-2.0984e-05
-2.11761e-05
-2.13717e-05
-2.15703e-05
-2.17719e-05
-2.19763e-05
-2.21834e-05
-2.23932e-05
-2.26056e-05
-2.28203e-05
-2.30369e-05
-2.32549e-05
-2.34738e-05
-2.36929e-05
-2.39118e-05
-2.41304e-05
-2.43487e-05
-2.45674e-05
-2.47873e-05
-2.5009e-05
-2.5233e-05
-2.54595e-05
-2.56886e-05
-2.59205e-05
-2.61552e-05
-2.63927e-05
-2.66329e-05
-2.68753e-05
-2.71198e-05
-2.73658e-05
-2.76131e-05
-2.78614e-05
-2.81109e-05
-2.83616e-05
-2.86137e-05
-2.88673e-05
-2.91226e-05
-2.93794e-05
-2.96377e-05
-2.98976e-05
-3.01588e-05
-3.04213e-05
-3.06851e-05
-3.09502e-05
-3.12167e-05
-3.14847e-05
-3.17544e-05
-3.2026e-05
-3.22995e-05
-3.25753e-05
-3.28534e-05
-3.31339e-05
-3.34168e-05
-3.37021e-05
-3.39896e-05
-3.4279e-05
-3.45703e-05
-3.48634e-05
-3.51581e-05
-3.54545e-05
-3.57526e-05
-3.60525e-05
-3.63543e-05
-3.66579e-05
-3.69633e-05
-3.72706e-05
-3.75797e-05
-3.78908e-05
-3.82038e-05
-3.85188e-05
-3.88357e-05
-3.91547e-05
-3.94756e-05
-3.97984e-05
-4.01232e-05
-4.045e-05
-4.07789e-05
-4.11099e-05
-4.14431e-05
-4.17784e-05
-4.21157e-05
-4.24552e-05
-4.27966e-05
-4.31402e-05
-4.34858e-05
-4.38336e-05
-4.41836e-05
-4.45358e-05
-4.48901e-05
-4.52465e-05
-4.56051e-05
-4.59657e-05
-4.63284e-05
-4.66932e-05
-4.70603e-05
-4.74296e-05
-4.78011e-05
-4.81748e-05
-4.85505e-05
-4.89284e-05
-4.93083e-05
-4.96904e-05
-5.00746e-05
-5.04611e-05
-5.08497e-05
-5.12405e-05
-5.16335e-05
-5.20286e-05
-5.24257e-05
-5.2825e-05
-5.32265e-05
-5.36303e-05
-5.40365e-05
-5.4445e-05
-5.48557e-05
-5.52687e-05
-5.56839e-05
-5.61012e-05
-5.65208e-05
-5.69425e-05
-5.73665e-05
-5.77927e-05
-5.82211e-05
-5.86517e-05
-5.90846e-05
-5.95197e-05
-5.9957e-05
-6.03966e-05
-6.08384e-05
-6.12824e-05
-6.17288e-05
-6.21774e-05
-6.26284e-05
-6.30816e-05
-6.3537e-05
-6.39947e-05
-6.44546e-05
-6.49167e-05
-6.53812e-05
-6.58481e-05
-6.63173e-05
-6.67887e-05
-6.72622e-05
-6.77379e-05
-6.82158e-05
-6.86959e-05
-6.91784e-05
-6.96633e-05
-7.01505e-05
-7.064e-05
-7.11318e-05
-7.16258e-05
-7.2122e-05
-7.26206e-05
-7.31214e-05
-7.36245e-05
-7.41298e-05
-7.46374e-05
-7.51473e-05
-7.56594e-05
-7.61738e-05
-7.66904e-05
-7.72093e-05
-7.77305e-05
-7.8254e-05
-7.87798e-05
-7.9308e-05
-7.98384e-05
-8.03712e-05
-8.09062e-05
-8.14435e-05
-8.19829e-05
-8.25247e-05
-8.30687e-05
-8.36149e-05
-8.41633e-05
-8.47139e-05
-8.52667e-05
-8.58217e-05
-8.63789e-05
-8.69385e-05
-8.75003e-05
-8.80645e-05
-8.8631e-05
-8.91997e-05
-8.97706e-05
-9.03437e-05
-9.0919e-05
-9.14965e-05
-9.20762e-05
-9.26582e-05
-9.32423e-05
-9.38287e-05
-9.44173e-05
-9.50081e-05
-9.56011e-05
-9.61962e-05
-9.67936e-05
-9.73931e-05
-9.79948e-05
-9.85987e-05
-9.92047e-05
-9.9813e-05
-0.000100423
-0.000101036
-0.000101651
-0.000102268
-0.000102887
-0.000103508
-0.000104131
-0.000104757
-0.000105384
-0.000106014
-0.000106645
-0.000107279
-0.000107915
-0.000108553
-0.000109193
-0.000109835
-0.00011048
-0.000111126
-0.000111774
-0.000112425
-0.000113077
-0.000113732
-0.000114389
-0.000115047
-0.000115708
-0.000116371
-0.000117035
-0.000117702
-0.000118371
-0.000119041
-0.000119714
-0.000120388
-0.000121065
-0.000121743
-0.000122424
-0.000123106
-0.000123791
-0.000124477
-0.000125165
-0.000125855
-0.000126548
-0.000127242
-0.000127937
-0.000128635
-0.000129334
-0.000130035
-0.000130738
-0.000131443
-0.00013215
-0.000132859
-0.00013357
-0.000134282
-0.000134996
-0.000135712
-0.00013643
-0.000137149
-0.000137871
-0.000138594
-0.000139318
-0.000140045
-0.000140773
-0.000141503
-0.000142234
-0.000142967
-0.000143702
-0.000144439
-0.000145177
-0.000145917
-0.000146658
-0.000147401
-0.000148146
-0.000148892
-0.00014964
-0.00015039
-0.000151141
-0.000151893
-0.000152647
-0.000153403
-0.00015416
-0.000154919
-0.000155678
-0.00015644
-0.000157203
-0.000157967
-0.000158733
-0.000159501
-0.00016027
-0.00016104
-0.000161812
-0.000162585
-0.000163359
-0.000164135
-0.000164912
-0.00016569
-0.00016647
-0.000167251
-0.000168033
-0.000168817
-0.000169602
-0.000170388
-0.000171175
-0.000171964
-0.000172754
-0.000173544
-0.000174337
-0.00017513
-0.000175924
-0.00017672
-0.000177517
-0.000178315
-0.000179114
-0.000179914
-0.000180715
-0.000181517
-0.00018232
-0.000183124
-0.000183929
-0.000184735
-0.000185543
-0.000186351
-0.00018716
-0.00018797
-0.000188781
-0.000189593
-0.000190406
-0.000191219
-0.000192034
-0.000192849
-0.000193665
-0.000194482
-0.0001953
-0.000196119
-0.000196938
-0.000197758
-0.000198579
-0.000199401
-0.000200223
-0.000201046
-0.000201869
-0.000202694
-0.000203518
-0.000204344
-0.00020517
-0.000205997
-0.000206824
-0.000207652
-0.00020848
-0.000209309
-0.000210139
-0.000210969
-0.000211799
-0.000212629
-0.000213461
-0.000214292
-0.000215124
-0.000215957
-0.00021679
-0.000217623
-0.000218457
-0.000219291
-0.000220125
-0.000220959
-0.000221794
-0.000222629
-0.000223464
-0.0002243
-0.000225136
-0.000225971
-0.000226807
-0.000227644
-0.00022848
-0.000229316
-0.000230153
-0.000230989
-0.000231826
-0.000232663
-0.000233499
-0.000234336
-0.000235173
-0.000236009
-0.000236846
-0.000237683
-0.000238519
-0.000239356
-0.000240192
-0.000241028
-0.000241864
-0.0002427
-0.000243535
-0.000244371
-0.000245206
-0.000246041
-0.000246876
-0.00024771
-0.000248544
-0.000249378
-0.000250212
-0.000251045
-0.000251878
-0.00025271
-0.000253542
-0.000254374
-0.000255205
-0.000256036
-0.000256865
-0.000257695
-0.000258525
-0.000259353
-0.000260181
-0.000261009
-0.000261836
-0.000262662
-0.000263488
-0.000264313
-0.000265138
-0.000265961
-0.000266785
-0.000267607
-0.000268429
-0.00026925
-0.00027007
-0.000270889
-0.000271707
-0.000272525
-0.000273342
-0.000274158
-0.000274973
-0.000275788
-0.000276601
-0.000277414
-0.000278225
-0.000279036
-0.000279845
-0.000280654
-0.000281461
-0.000282268
-0.000283074
-0.000283878
-0.000284681
-0.000285484
-0.000286285
-0.000287085
-0.000287884
-0.000288681
-0.000289478
-0.000290273
-0.000291067
-0.00029186
-0.000292651
-0.000293442
-0.000294231
-0.000295018
-0.000295805
-0.00029659
-0.000297373
-0.000298156
-0.000298936
-0.000299716
-0.000300493
-0.00030127
-0.000302045
-0.000302819
-0.000303591
-0.000304362
-0.000305131
-0.000305899
-0.000306665
-0.000307429
-0.000308192
-0.000308953
-0.000309713
-0.000310471
-0.000311227
-0.000311982
-0.000312735
-0.000313486
-0.000314235
-0.000314983
-0.000315729
-0.000316473
-0.000317216
-0.000317957
-0.000318695
-0.000319432
-0.000320168
-0.000320901
-0.000321632
-0.000322362
-0.00032309
-0.000323815
-0.000324539
-0.000325261
-0.00032598
-0.000326698
-0.000327414
-0.000328128
-0.00032884
-0.00032955
-0.000330258
-0.000330964
-0.000331667
-0.000332369
-0.000333069
-0.000333766
-0.000334461
-0.000335154
-0.000335845
-0.000336534
-0.000337221
-0.000337905
-0.000338587
-0.000339267
-0.000339945
-0.00034062
-0.000341293
-0.000341964
-0.000342633
-0.000343299
-0.000343963
-0.000344625
-0.000345285
-0.000345942
-0.000346596
-0.000347248
-0.000347898
-0.000348545
-0.00034919
-0.000349833
-0.000350474
-0.000351112
-0.000351747
-0.00035238
-0.000353011
-0.000353639
-0.000354264
-0.000354887
-0.000355508
-0.000356126
-0.000356741
-0.000357354
-0.000357964
-0.000358572
-0.000359177
-0.00035978
-0.00036038
-0.000360977
-0.000361572
-0.000362165
-0.000362754
-0.000363341
-0.000363925
-0.000364507
-0.000365085
-0.000365662
-0.000366236
-0.000366807
-0.000367375
-0.000367941
-0.000368504
-0.000369064
-0.000369621
-0.000370176
-0.000370728
-0.000371277
-0.000371824
-0.000372368
-0.000372909
-0.000373447
-0.000373982
-0.000374515
-0.000375045
-0.000375572
-0.000376096
-0.000376617
-0.000377136
-0.000377652
-0.000378165
-0.000378675
-0.000379183
-0.000379687
-0.000380189
-0.000380688
-0.000381184
-0.000381677
-0.000382167
-0.000382654
-0.000383139
-0.000383621
-0.000384099
-0.000384575
-0.000385048
-0.000385518
-0.000385985
-0.000386449
-0.000386911
-0.000387369
-0.000387825
-0.000388278
-0.000388727
-0.000389174
-0.000389618
-0.000390059
-0.000390497
-0.000390932
-0.000391365
-0.000391794
-0.000392221
-0.000392644
-0.000393065
-0.000393484
-0.000393899
-0.000394312
-0.000394723
-0.00039513
-0.000395535
-0.000395937
-0.000396336
-0.000396733
-0.000397127
-0.000397519
-0.000397908
-0.000398295
-0.000398678
-0.000399059
-0.000399438
-0.000399813
-0.000400186
-0.000400555
-0.000400923
-0.000401288
-0.00040165
-0.00040201
-0.000402368
-0.000402723
-0.000403075
-0.000403424
-0.000403771
-0.000404115
-0.000404456
-0.000404794
-0.00040513
-0.000405463
-0.000405794
-0.000406123
-0.00040645
-0.000406773
-0.000407095
-0.000407413
-0.000407729
-0.000408042
-0.000408352
-0.000408659
-0.000408963
-0.000409265
-0.000409563
-0.000409859
-0.000410152
-0.000410442
-0.000410729
-0.000411013
-0.000411294
-0.000411573
-0.000411848
-0.000412121
-0.000412392
-0.000412662
-0.000412928
-0.000413192
-0.000413453
-0.000413712
-0.000413967
-0.000414219
-0.000414468
-0.000414714
-0.000414957
-0.000415197
-0.000415433
-0.000415667
-0.000415897
-0.000416124
-0.000416348
-0.000416568
-0.000416785
-0.000416999
-0.00041721
-0.000417416
-0.00041762
-0.000417819
-0.000418016
-0.000418208
-0.000418397
-0.000418582
-0.000418763
-0.00041894
-0.000419113
-0.000419282
-0.000419447
-0.000419608
-0.000419764
-0.000419917
-0.000420065
-0.00042021
-0.000420351
-0.000420487
-0.000420618
-0.000420744
-0.000420864
-0.000420979
-0.000421088
-0.000421191
-0.000421287
-0.000421376
-0.000421459
-0.000421534
-0.000421602
-0.000421662
-0.000421714
-0.000421756
-0.00042179
-0.000421814
-0.000421828
-0.000421832
-0.000421824
-0.000421804
-0.000421772
-0.000421726
-0.000421666
-0.00042159
-0.000421499
-0.00042139
-0.000421263
-0.000421116
-0.000420948
-0.000420757
-0.000420542
-0.0004203
-0.000420029
-0.000419727
-0.000419392
-0.00041902
-0.000418608
-0.000418153
-0.000417651
-0.000417098
-0.000416487
-0.000415815
-0.000415075
-0.000414259
-0.00041336
-0.00041237
-0.000411277
-0.000410071
-0.000408739
-0.000407265
-0.000405634
-0.000403825
-0.000401816
-0.000399583
-0.000397093
-0.000394313
-0.000391199
-0.000387701
-0.000383751
-0.000379267
-0.000374132
-0.000368184
-0.000361181
-0.000352725
-0.000342069
-0.000327766
-0.000308884
-0.000290421
-0.000260787
-0.00011163
0.270196
0.285159
0.196572
0.123259
0.0755117
0.0467527
0.0299878
0.020201
0.0143213
0.0106255
0.00818163
0.00648524
0.00525674
0.00433508
0.00362333
0.00306045
0.00260642
0.00223404
0.00192424
0.00166337
0.00144153
0.00125135
0.00108714
0.000944378
0.000819549
0.000709995
0.000613615
0.000528469
0.000452869
0.000385346
0.000324789
0.000270277
0.00022098
0.000176112
0.000134914
9.66739e-05
6.08602e-05
2.75263e-05
-1.81457e-06
-2.8725e-05
-5.54483e-05
-8.1261e-05
-0.000105986
-0.000130006
-0.000152936
-0.000174253
-0.000193993
-0.000212316
-0.000229386
-0.000245349
-0.00026033
-0.00027444
-0.000287776
-0.000300425
-0.000312466
-0.000323966
-0.000334975
-0.000345516
-0.000355589
-0.00036518
-0.000374282
-0.000382896
-0.000391026
-0.000398664
-0.00040578
-0.000412307
-0.000418127
-0.000423049
-0.000426777
-0.000428877
-0.000428786
-0.000425896
-0.000419777
-0.000410475
-0.000398706
-0.000385734
-0.000372937
-0.000361344
-0.000351437
-0.000343235
-0.000336511
-0.000330968
-0.000326341
-0.000322423
-0.00031907
-0.00031618
-0.000313687
-0.000311542
-0.000309714
-0.00030818
-0.000306921
-0.000305923
-0.000305175
-0.000304666
-0.000304385
-0.000304325
-0.000304475
-0.000304829
-0.000305378
-0.000306116
-0.000307034
-0.000308123
-0.000309373
-0.000310768
-0.000312291
-0.000313917
-0.000315606
-0.000317297
-0.00031889
-0.000320228
-0.000321099
-0.000321256
-0.000320487
-0.000318712
-0.000316049
-0.000312806
-0.000309392
-0.000306169
-0.000303362
-0.000301041
-0.000299167
-0.000297658
-0.000296434
-0.000295437
-0.00029463
-0.000293991
-0.000293506
-0.000293166
-0.000292962
-0.00029289
-0.000292943
-0.000293117
-0.000293405
-0.000293804
-0.000294305
-0.000294899
-0.000295573
-0.000296306
-0.000297079
-0.000297875
-0.000298686
-0.000299509
-0.000300343
-0.00030117
-0.000301954
-0.000302643
-0.000303174
-0.000303486
-0.000303544
-0.000303356
-0.000302992
-0.00030256
-0.000302166
-0.000301873
-0.000301697
-0.00030162
-0.000301617
-0.000301669
-0.000301763
-0.000301895
-0.000302063
-0.000302267
-0.000302509
-0.00030279
-0.00030311
-0.00030347
-0.000303868
-0.000304305
-0.00030478
-0.000305294
-0.000305846
-0.000306433
-0.000307046
-0.000307682
-0.000308321
-0.000308939
-0.000309513
-0.000310017
-0.000310425
-0.000310712
-0.000310866
-0.000310893
-0.000310826
-0.000310716
-0.000310617
-0.00031057
-0.000310599
-0.000310713
-0.000310908
-0.000311182
-0.000311529
-0.000311945
-0.000312427
-0.000312972
-0.000313573
-0.000314224
-0.00031491
-0.000315616
-0.000316328
-0.000317031
-0.000317713
-0.000318369
-0.000318995
-0.000319589
-0.000320152
-0.000320682
-0.000321175
-0.000321624
-0.000322025
-0.000322375
-0.000322676
-0.000322934
-0.000323159
-0.000323368
-0.000323577
-0.000323799
-0.000324044
-0.000324315
-0.000324611
-0.000324933
-0.000325279
-0.000325647
-0.000326036
-0.000326446
-0.000326874
-0.00032732
-0.000327781
-0.000328257
-0.000328745
-0.000329245
-0.000329757
-0.000330279
-0.000330808
-0.000331342
-0.000331877
-0.000332409
-0.000332933
-0.000333447
-0.00033395
-0.000334442
-0.000334927
-0.00033541
-0.000335896
-0.000336388
-0.000336889
-0.000337399
-0.000337919
-0.00033845
-0.000338991
-0.000339541
-0.000340098
-0.000340659
-0.000341223
-0.000341785
-0.000342346
-0.000342904
-0.000343461
-0.000344017
-0.000344573
-0.00034513
-0.000345687
-0.000346245
-0.000346802
-0.000347358
-0.000347912
-0.000348465
-0.000349016
-0.000349567
-0.000350118
-0.00035067
-0.000351224
-0.000351783
-0.000352346
-0.000352915
-0.000353491
-0.000354073
-0.000354661
-0.000355254
-0.000355851
-0.00035645
-0.00035705
-0.000357652
-0.000358254
-0.000358857
-0.000359461
-0.000360066
-0.000360673
-0.000361282
-0.000361893
-0.000362505
-0.00036312
-0.000363737
-0.000364356
-0.000364979
-0.000365603
-0.000366231
-0.000366861
-0.000367493
-0.000368128
-0.000368766
-0.000369408
-0.000370053
-0.000370702
-0.000371353
-0.000372008
-0.000372665
-0.000373326
-0.00037399
-0.000374658
-0.000375329
-0.000376003
-0.000376681
-0.000377361
-0.000378045
-0.000378732
-0.000379422
-0.000380116
-0.000380813
-0.000381514
-0.000382219
-0.000382926
-0.000383637
-0.000384351
-0.000385068
-0.000385788
-0.000386512
-0.000387239
-0.000387969
-0.000388703
-0.00038944
-0.00039018
-0.000390923
-0.000391669
-0.000392418
-0.000393171
-0.000393929
-0.00039469
-0.000395455
-0.000396223
-0.000396995
-0.00039777
-0.000398548
-0.00039933
-0.000400114
-0.000400903
-0.000401694
-0.000402489
-0.000403288
-0.00040409
-0.000404895
-0.000405703
-0.000406515
-0.000407331
-0.00040815
-0.000408973
-0.000409799
-0.000410629
-0.000411463
-0.000412299
-0.000413139
-0.000413982
-0.00041483
-0.00041568
-0.000416535
-0.000417392
-0.000418253
-0.000419116
-0.000419982
-0.000420852
-0.000421726
-0.000422603
-0.000423484
-0.000424369
-0.000425257
-0.000426148
-0.000427043
-0.000427942
-0.000428843
-0.000429749
-0.000430657
-0.000431569
-0.000432484
-0.000433403
-0.000434325
-0.00043525
-0.000436179
-0.000437111
-0.000438047
-0.000438986
-0.000439929
-0.000440876
-0.000441826
-0.00044278
-0.000443737
-0.000444697
-0.00044566
-0.000446627
-0.000447597
-0.00044857
-0.000449547
-0.000450526
-0.000451508
-0.000452493
-0.000453483
-0.000454476
-0.000455473
-0.000456473
-0.000457477
-0.000458484
-0.000459494
-0.000460508
-0.000461524
-0.000462544
-0.000463567
-0.000464593
-0.000465623
-0.000466656
-0.000467692
-0.000468732
-0.000469774
-0.000470821
-0.00047187
-0.000472922
-0.000473978
-0.000475037
-0.0004761
-0.000477165
-0.000478235
-0.000479307
-0.000480383
-0.000481461
-0.000482543
-0.000483628
-0.000484716
-0.000485806
-0.000486899
-0.000487996
-0.000489095
-0.000490198
-0.000491304
-0.000492414
-0.000493527
-0.000494643
-0.000495762
-0.000496884
-0.000498009
-0.000499137
-0.000500268
-0.000501403
-0.00050254
-0.00050368
-0.000504823
-0.00050597
-0.000507119
-0.000508271
-0.000509426
-0.000510584
-0.000511744
-0.000512907
-0.000514074
-0.000515243
-0.000516415
-0.000517591
-0.00051877
-0.000519951
-0.000521136
-0.000522323
-0.000523513
-0.000524705
-0.000525899
-0.000527096
-0.000528296
-0.000529498
-0.000530704
-0.000531913
-0.000533124
-0.000534339
-0.000535556
-0.000536776
-0.000537999
-0.000539224
-0.000540452
-0.000541682
-0.000542915
-0.00054415
-0.000545388
-0.000546629
-0.000547872
-0.000549117
-0.000550365
-0.000551616
-0.000552869
-0.000554125
-0.000555383
-0.000556643
-0.000557906
-0.000559172
-0.00056044
-0.00056171
-0.000562984
-0.000564259
-0.000565537
-0.000566816
-0.000568098
-0.000569382
-0.000570667
-0.000571955
-0.000573245
-0.000574537
-0.000575833
-0.00057713
-0.00057843
-0.000579733
-0.000581037
-0.000582343
-0.000583652
-0.000584962
-0.000586275
-0.000587589
-0.000588906
-0.000590224
-0.000591545
-0.000592867
-0.000594192
-0.000595518
-0.000596847
-0.000598177
-0.000599509
-0.000600843
-0.000602179
-0.000603517
-0.000604856
-0.000606197
-0.000607541
-0.000608886
-0.000610233
-0.000611582
-0.000612933
-0.000614285
-0.000615638
-0.000616993
-0.000618348
-0.000619706
-0.000621065
-0.000622426
-0.000623789
-0.000625154
-0.00062652
-0.000627888
-0.000629257
-0.000630627
-0.000631999
-0.000633373
-0.000634747
-0.000636123
-0.000637501
-0.000638879
-0.000640259
-0.00064164
-0.000643023
-0.000644407
-0.000645792
-0.000647178
-0.000648565
-0.000649953
-0.000651343
-0.000652733
-0.000654125
-0.000655518
-0.000656912
-0.000658307
-0.000659703
-0.0006611
-0.000662498
-0.000663897
-0.000665296
-0.000666695
-0.000668096
-0.000669497
-0.0006709
-0.000672303
-0.000673708
-0.000675114
-0.000676521
-0.000677927
-0.000679335
-0.000680743
-0.000682152
-0.000683561
-0.000684971
-0.000686382
-0.000687792
-0.000689204
-0.000690616
-0.000692028
-0.000693441
-0.000694854
-0.000696268
-0.000697682
-0.000699096
-0.00070051
-0.000701925
-0.000703341
-0.000704756
-0.000706172
-0.000707588
-0.000709004
-0.00071042
-0.000711837
-0.000713253
-0.00071467
-0.000716085
-0.000717501
-0.000718917
-0.000720333
-0.000721749
-0.000723166
-0.000724583
-0.000726
-0.000727416
-0.000728832
-0.000730248
-0.000731663
-0.000733079
-0.000734494
-0.000735908
-0.000737323
-0.000738737
-0.000740151
-0.000741564
-0.000742976
-0.000744389
-0.000745801
-0.000747213
-0.000748624
-0.000750034
-0.000751444
-0.000752853
-0.000754261
-0.000755669
-0.000757076
-0.000758483
-0.000759889
-0.000761294
-0.000762698
-0.000764101
-0.000765504
-0.000766905
-0.000768305
-0.000769704
-0.000771103
-0.000772501
-0.000773899
-0.000775296
-0.000776691
-0.000778085
-0.000779478
-0.00078087
-0.000782261
-0.000783651
-0.000785039
-0.000786426
-0.000787812
-0.000789197
-0.00079058
-0.000791962
-0.000793343
-0.000794723
-0.000796101
-0.000797477
-0.000798852
-0.000800226
-0.000801598
-0.000802969
-0.000804338
-0.000805706
-0.000807072
-0.000808437
-0.000809799
-0.00081116
-0.000812519
-0.000813876
-0.000815231
-0.000816584
-0.000817936
-0.000819286
-0.000820635
-0.000821982
-0.000823328
-0.000824671
-0.000826013
-0.000827352
-0.000828689
-0.000830024
-0.000831357
-0.000832688
-0.000834017
-0.000835344
-0.000836669
-0.000837991
-0.000839311
-0.000840629
-0.000841945
-0.000843259
-0.00084457
-0.000845879
-0.000847186
-0.00084849
-0.000849792
-0.000851092
-0.000852389
-0.000853683
-0.000854976
-0.000856265
-0.000857552
-0.000858836
-0.000860117
-0.000861395
-0.000862671
-0.000863944
-0.000865216
-0.000866485
-0.000867752
-0.000869016
-0.000870277
-0.000871534
-0.000872789
-0.000874041
-0.000875291
-0.000876537
-0.00087778
-0.000879021
-0.000880258
-0.000881493
-0.000882725
-0.000883953
-0.000885179
-0.000886402
-0.000887621
-0.000888837
-0.000890051
-0.000891261
-0.000892468
-0.000893672
-0.000894872
-0.00089607
-0.000897263
-0.000898454
-0.00089964
-0.000900823
-0.000902002
-0.000903178
-0.000904352
-0.000905524
-0.000906692
-0.000907856
-0.000909017
-0.000910175
-0.000911328
-0.000912479
-0.000913625
-0.000914768
-0.000915907
-0.000917043
-0.000918175
-0.000919303
-0.000920428
-0.000921549
-0.000922666
-0.00092378
-0.000924889
-0.000925995
-0.000927098
-0.000928196
-0.00092929
-0.00093038
-0.000931466
-0.000932548
-0.000933626
-0.000934701
-0.000935773
-0.000936841
-0.000937905
-0.000938965
-0.00094002
-0.000941072
-0.00094212
-0.000943164
-0.000944203
-0.000945239
-0.00094627
-0.000947297
-0.00094832
-0.000949339
-0.000950354
-0.000951364
-0.00095237
-0.000953372
-0.000954369
-0.000955361
-0.00095635
-0.000957335
-0.000958316
-0.000959293
-0.000960266
-0.000961234
-0.000962198
-0.000963157
-0.000964112
-0.000965062
-0.000966008
-0.00096695
-0.000967887
-0.00096882
-0.000969748
-0.000970671
-0.000971589
-0.000972503
-0.000973413
-0.000974319
-0.00097522
-0.000976117
-0.00097701
-0.000977897
-0.000978781
-0.000979659
-0.000980533
-0.000981402
-0.000982266
-0.000983125
-0.00098398
-0.00098483
-0.000985675
-0.000986516
-0.000987352
-0.000988185
-0.000989012
-0.000989836
-0.000990655
-0.000991469
-0.000992279
-0.000993084
-0.000993884
-0.00099468
-0.000995471
-0.000996258
-0.000997039
-0.000997817
-0.000998589
-0.000999357
-0.00100012
-0.00100088
-0.00100163
-0.00100238
-0.00100312
-0.00100386
-0.00100459
-0.00100532
-0.00100605
-0.00100677
-0.00100748
-0.0010082
-0.0010089
-0.0010096
-0.0010103
-0.00101099
-0.00101167
-0.00101235
-0.00101303
-0.0010137
-0.00101437
-0.00101503
-0.00101569
-0.00101634
-0.00101698
-0.00101763
-0.00101826
-0.00101889
-0.00101952
-0.00102014
-0.00102075
-0.00102136
-0.00102196
-0.00102256
-0.00102315
-0.00102374
-0.00102432
-0.0010249
-0.00102547
-0.00102603
-0.00102659
-0.00102714
-0.00102769
-0.00102823
-0.00102877
-0.0010293
-0.00102982
-0.00103034
-0.00103085
-0.00103136
-0.00103185
-0.00103234
-0.00103283
-0.0010333
-0.00103377
-0.00103424
-0.00103469
-0.00103514
-0.00103558
-0.00103601
-0.00103644
-0.00103685
-0.00103726
-0.00103766
-0.00103805
-0.00103843
-0.0010388
-0.00103916
-0.00103951
-0.00103985
-0.00104018
-0.0010405
-0.0010408
-0.0010411
-0.00104138
-0.00104165
-0.0010419
-0.00104215
-0.00104237
-0.00104258
-0.00104278
-0.00104296
-0.00104312
-0.00104326
-0.00104338
-0.00104348
-0.00104356
-0.00104362
-0.00104365
-0.00104366
-0.00104364
-0.00104359
-0.00104351
-0.00104339
-0.00104325
-0.00104306
-0.00104284
-0.00104258
-0.00104227
-0.00104191
-0.0010415
-0.00104104
-0.00104052
-0.00103994
-0.00103929
-0.00103856
-0.00103776
-0.00103687
-0.0010359
-0.00103482
-0.00103363
-0.00103233
-0.0010309
-0.00102933
-0.00102761
-0.00102573
-0.00102366
-0.0010214
-0.00101892
-0.0010162
-0.00101322
-0.00100995
-0.00100636
-0.00100241
-0.000998077
-0.000993303
-0.000988041
-0.000982236
-0.000975822
-0.000968726
-0.000960861
-0.000952131
-0.000942423
-0.000931604
-0.000919522
-0.000905996
-0.000890812
-0.000873706
-0.000854351
-0.000832325
-0.000807065
-0.000777782
-0.000743296
-0.000701758
-0.000650213
-0.000584136
-0.000497092
-0.000379794
-0.000209293
1.5577e-05
0.215207
0.297263
0.248692
0.179802
0.123312
0.0838475
0.0580187
0.0414043
0.0305854
0.0233364
0.0183073
0.0146946
0.012016
0.00997417
0.00838029
0.00711054
0.00608121
0.00523414
0.00452793
0.00393244
0.00342532
0.0029897
0.00261257
0.00228373
0.00199526
0.00174095
0.00151578
0.00131544
0.00113626
0.000975116
0.000829366
0.00069674
0.000575364
0.000463604
0.000359942
0.000263045
0.000171811
8.62694e-05
9.08611e-06
-6.03711e-05
-0.000124727
-0.000184731
-0.000240717
-0.000292713
-0.000341231
-0.000386824
-0.000429721
-0.000470117
-0.00050821
-0.00054419
-0.000578235
-0.000610514
-0.000641185
-0.000670398
-0.00069829
-0.000724984
-0.000750567
-0.000775081
-0.000798522
-0.00082086
-0.000842074
-0.000862153
-0.000881083
-0.000898821
-0.000915268
-0.000930248
-0.000943472
-0.000954492
-0.000962644
-0.000966988
-0.000966325
-0.000959388
-0.00094529
-0.000924145
-0.000897471
-0.000867957
-0.000838577
-0.000811623
-0.000788242
-0.000768587
-0.000752243
-0.000738617
-0.000727147
-0.000717386
-0.000709006
-0.000701773
-0.000695525
-0.000690146
-0.000685553
-0.000681685
-0.000678495
-0.000675946
-0.000674006
-0.000672647
-0.000671845
-0.000671575
-0.000671816
-0.000672546
-0.000673745
-0.000675392
-0.000677464
-0.000679936
-0.000682777
-0.000685951
-0.000689411
-0.000693093
-0.000696904
-0.000700701
-0.000704257
-0.000707233
-0.000709169
-0.000709532
-0.000707861
-0.000703961
-0.000698062
-0.000690817
-0.000683099
-0.000675716
-0.000669182
-0.000663684
-0.00065917
-0.000655483
-0.000652463
-0.000649985
-0.000647969
-0.000646362
-0.000645131
-0.000644249
-0.000643699
-0.000643464
-0.00064353
-0.000643884
-0.000644513
-0.000645403
-0.000646536
-0.000647892
-0.00064944
-0.00065114
-0.00065295
-0.00065483
-0.000656757
-0.000658719
-0.000660696
-0.000662643
-0.000664476
-0.000666079
-0.000667319
-0.000668066
-0.000668245
-0.000667879
-0.000667118
-0.000666195
-0.000665338
-0.000664688
-0.000664282
-0.000664089
-0.00066406
-0.000664154
-0.000664347
-0.00066463
-0.000664998
-0.000665454
-0.000666
-0.000666637
-0.000667366
-0.000668187
-0.000669099
-0.0006701
-0.000671189
-0.000672364
-0.000673623
-0.000674958
-0.000676356
-0.000677795
-0.000679234
-0.000680623
-0.000681911
-0.00068304
-0.000683952
-0.000684594
-0.000684936
-0.000684992
-0.000684832
-0.000684569
-0.000684322
-0.000684187
-0.000684218
-0.000684438
-0.000684847
-0.000685435
-0.000686194
-0.000687114
-0.00068819
-0.000689413
-0.000690769
-0.000692238
-0.000693789
-0.000695385
-0.000696989
-0.000698568
-0.000700098
-0.000701563
-0.000702956
-0.000704274
-0.000705517
-0.00070668
-0.000707752
-0.000708723
-0.00070958
-0.000710318
-0.000710938
-0.000711452
-0.000711886
-0.000712276
-0.000712661
-0.000713073
-0.000713533
-0.000714047
-0.00071462
-0.000715249
-0.000715932
-0.000716665
-0.000717446
-0.000718272
-0.00071914
-0.000720046
-0.000720988
-0.000721962
-0.000722966
-0.000723996
-0.000725051
-0.000726126
-0.000727217
-0.000728316
-0.000729415
-0.000730504
-0.000731574
-0.000732618
-0.000733632
-0.000734619
-0.000735588
-0.000736548
-0.000737511
-0.000738485
-0.000739474
-0.000740482
-0.000741511
-0.000742562
-0.000743633
-0.000744722
-0.000745825
-0.000746934
-0.000748044
-0.000749149
-0.000750245
-0.000751333
-0.000752414
-0.00075349
-0.000754562
-0.000755632
-0.000756701
-0.000757765
-0.000758826
-0.000759879
-0.000760925
-0.000761964
-0.000762995
-0.000764021
-0.000765043
-0.000766064
-0.000767087
-0.000768115
-0.000769151
-0.000770197
-0.000771254
-0.000772323
-0.000773402
-0.000774489
-0.000775581
-0.000776675
-0.000777768
-0.000778859
-0.000779947
-0.000781033