/*--------------------------------*- C++ -*----------------------------------*\
| =========                 |                                                 |
| \\      /  F ield         | OpenFOAM: The Open Source CFD Toolbox           |
|  \\    /   O peration     | Version:  2512                                  |
|   \\  /    A nd           | Website:  www.openfoam.com                      |
|    \\/     M anipulation  |                                                 |
\*---------------------------------------------------------------------------*/
FoamFile
{
    version     2.0;
    format      ascii;
    arch        "LSB;label=32;scalar=64";
    class       volVectorField;
    location    "0.1";
    object      B;
}
// * * * * * * * * * * * * * * * * * * * * * * * * * * * * * * * * * * * * * //

dimensions      [1 0 -2 0 0 -1 0];

internalField   nonuniform List<vector> 
100000
(
(0.000218955 20 6.50567e-21)
(0.000223615 20 7.68678e-21)
(0.000219357 20 1.29658e-20)
(0.000216547 20 1.42918e-20)
(0.00021563 20 1.56738e-20)
(0.000214955 20 9.01277e-21)
(0.000214396 20 4.55631e-21)
(0.000214174 20 -4.60444e-21)
(0.0002142 20 -8.14966e-21)
(0.000214278 20 -7.75454e-21)
(0.000214367 20 -3.09427e-21)
(0.000214486 20 1.97693e-21)
(0.000214625 20 1.10422e-20)
(0.000214769 20 8.94821e-21)
(0.000214911 20 2.49175e-20)
(0.000215049 20 7.45646e-21)
(0.000215181 20 3.78566e-20)
(0.000215308 20 -3.82126e-21)
(0.000215428 20 1.44048e-20)
(0.000215542 20 -5.64354e-21)
(0.00021565 20 2.57985e-20)
(0.000215752 20 -1.36852e-20)
(0.000215848 20 5.59302e-21)
(0.000215939 20 -1.14354e-20)
(0.000216025 20 1.82727e-20)
(0.000216106 20 -1.34053e-20)
(0.000216183 20 -5.23585e-21)
(0.000216256 20 -3.20121e-21)
(0.000216326 20 1.10849e-21)
(0.000216392 20 4.12271e-21)
(0.000216455 20 1.12227e-20)
(0.000216516 20 7.94808e-21)
(0.000216574 20 2.29427e-20)
(0.000216631 20 6.28167e-21)
(0.000216685 20 3.4635e-20)
(0.000216738 20 -8.19721e-22)
(0.000216789 20 3.27544e-21)
(0.000216839 20 2.33037e-21)
(0.000216887 20 6.26578e-21)
(0.000216935 20 6.92839e-21)
(0.000216982 20 1.59776e-20)
(0.000217028 20 1.49681e-20)
(0.000217073 20 2.05057e-20)
(0.000217117 20 2.22586e-20)
(0.000217162 20 2.33795e-20)
(0.000217205 20 2.19633e-20)
(0.000217248 20 2.28805e-20)
(0.000217291 20 1.8173e-20)
(0.000217334 20 2.1701e-20)
(0.000217376 20 1.6589e-20)
(0.000217418 20 1.97426e-20)
(0.00021746 20 1.9793e-20)
(0.000217501 20 2.13358e-20)
(0.000217543 20 1.69284e-20)
(0.000217584 20 2.40512e-20)
(0.000217625 20 7.19344e-21)
(0.000217666 20 2.97153e-20)
(0.000217707 20 -1.84737e-21)
(0.000217748 20 3.79158e-20)
(0.000217789 20 3.63966e-20)
(0.00021783 20 3.72371e-20)
(0.00021787 20 3.52654e-20)
(0.000217911 20 3.04311e-20)
(0.000217951 20 2.55653e-20)
(0.000217992 20 2.15166e-20)
(0.000218032 20 2.07272e-20)
(0.000218072 20 1.78156e-20)
(0.000218113 20 2.20539e-20)
(0.000218153 20 1.75618e-20)
(0.000218193 20 2.30438e-20)
(0.000218233 20 1.94545e-20)
(0.000218274 20 1.82826e-20)
(0.000218314 20 1.76786e-20)
(0.000218354 20 1.81958e-20)
(0.000218394 20 1.9645e-20)
(0.000218434 20 2.11188e-20)
(0.000218474 20 2.20834e-20)
(0.000218513 20 2.2416e-20)
(0.000218553 20 2.26523e-20)
(0.000218593 20 2.2191e-20)
(0.000218633 20 2.33041e-20)
(0.000218673 20 2.11065e-20)
(0.000218712 20 2.54863e-20)
(0.000218752 20 2.05476e-20)
(0.000218792 20 2.5952e-20)
(0.000218831 20 2.20243e-20)
(0.000218871 20 2.02975e-20)
(0.00021891 20 1.92482e-20)
(0.00021895 20 1.96084e-20)
(0.000218989 20 2.09812e-20)
(0.000219028 20 2.23442e-20)
(0.000219068 20 2.30896e-20)
(0.000219107 20 2.32752e-20)
(0.000219146 20 2.31371e-20)
(0.000219186 20 2.31057e-20)
(0.000219225 20 2.25288e-20)
(0.000219264 20 2.35261e-20)
(0.000219303 20 2.13397e-20)
(0.000219342 20 2.56878e-20)
(0.000219381 20 2.07506e-20)
(0.00021942 20 2.61079e-20)
(0.000219459 20 2.21967e-20)
(0.000219498 20 2.03612e-20)
(0.000219537 20 1.91726e-20)
(0.000219575 20 1.94109e-20)
(0.000219614 20 2.06858e-20)
(0.000219653 20 2.19948e-20)
(0.000219691 20 2.27502e-20)
(0.00021973 20 2.28924e-20)
(0.000219769 20 2.26036e-20)
(0.000219807 20 2.22196e-20)
(0.000219845 20 2.17011e-20)
(0.000219884 20 2.14514e-20)
(0.000219922 20 2.06609e-20)
(0.00021996 20 2.09241e-20)
(0.000219999 20 1.93811e-20)
(0.000220037 20 1.89297e-20)
(0.000220075 20 1.67824e-20)
(0.000220113 20 1.44762e-20)
(0.000220151 20 1.28458e-20)
(0.000220189 20 1.25244e-20)
(0.000220227 20 1.35925e-20)
(0.000220265 20 1.53318e-20)
(0.000220303 20 1.70215e-20)
(0.00022034 20 1.83472e-20)
(0.000220378 20 1.92533e-20)
(0.000220416 20 1.98387e-20)
(0.000220453 20 2.02183e-20)
(0.000220491 20 2.03933e-20)
(0.000220528 20 2.04919e-20)
(0.000220565 20 2.05554e-20)
(0.000220603 20 2.05983e-20)
(0.00022064 20 2.06852e-20)
(0.000220677 20 2.03677e-20)
(0.000220714 20 2.11266e-20)
(0.000220751 20 1.85416e-20)
(0.000220788 20 2.41046e-20)
(0.000220825 20 1.23421e-20)
(0.000220862 20 3.07988e-20)
(0.000220899 20 3.69964e-21)
(0.000220935 20 4.06151e-20)
(0.000220972 20 3.77008e-20)
(0.000221008 20 3.76336e-20)
(0.000221045 20 3.53994e-20)
(0.00022108 20 3.11732e-20)
(0.000221118 20 2.69167e-20)
(0.000221148 20 2.38433e-20)
(0.000221191 20 2.20403e-20)
(0.000221212 20 2.11562e-20)
(0.000221258 20 2.07752e-20)
(0.000221302 20 2.06491e-20)
(0.00022134 20 2.06921e-20)
(0.000221379 20 2.08156e-20)
(0.000221418 20 2.10015e-20)
(0.000221457 20 2.11699e-20)
(0.000221496 20 2.12909e-20)
(0.000221535 20 2.13839e-20)
(0.000221573 20 2.15243e-20)
(0.000221611 20 2.16457e-20)
(0.000221649 20 2.17795e-20)
(0.000221686 20 2.18865e-20)
(0.000221724 20 2.19772e-20)
(0.000221762 20 2.2106e-20)
(0.000221799 20 2.20908e-20)
(0.000221836 20 2.24967e-20)
(0.000221873 20 2.17262e-20)
(0.00022191 20 2.42522e-20)
(0.000221947 20 1.84887e-20)
(0.000221984 20 3.07322e-20)
(0.00022202 20 1.0949e-20)
(0.000222057 20 3.88802e-20)
(0.000222093 20 1.73205e-21)
(0.00022213 20 2.15749e-21)
(0.000222166 20 1.24361e-21)
(0.000222202 20 3.78689e-21)
(0.000222238 20 9.03481e-21)
(0.000222274 20 1.44052e-20)
(0.000222309 20 1.83395e-20)
(0.000222345 20 2.06397e-20)
(0.00022238 20 2.17638e-20)
(0.000222415 20 2.21964e-20)
(0.00022245 20 2.23923e-20)
(0.000222485 20 2.24217e-20)
(0.000222519 20 2.23755e-20)
(0.000222554 20 2.23191e-20)
(0.000222588 20 2.23082e-20)
(0.000222622 20 2.22878e-20)
(0.000222656 20 2.22498e-20)
(0.00022269 20 2.22312e-20)
(0.000222724 20 2.22905e-20)
(0.000222757 20 2.23347e-20)
(0.00022279 20 2.23242e-20)
(0.000222824 20 2.22745e-20)
(0.000222857 20 2.2245e-20)
(0.00022289 20 2.22136e-20)
(0.000222923 20 2.21463e-20)
(0.000222956 20 2.20342e-20)
(0.000222988 20 2.19155e-20)
(0.000223021 20 2.20009e-20)
(0.000223053 20 2.18527e-20)
(0.000223086 20 2.20928e-20)
(0.000223118 20 2.16261e-20)
(0.00022315 20 2.18214e-20)
(0.000223182 20 2.13078e-20)
(0.000223214 20 2.07093e-20)
(0.000223246 20 2.03406e-20)
(0.000223278 20 2.04136e-20)
(0.000223309 20 2.08192e-20)
(0.000223341 20 2.13474e-20)
(0.000223372 20 2.17179e-20)
(0.000223404 20 2.19084e-20)
(0.000223435 20 2.20767e-20)
(0.000223466 20 2.21466e-20)
(0.000223497 20 2.21572e-20)
(0.000223528 20 2.21776e-20)
(0.000223559 20 2.22481e-20)
(0.00022359 20 2.23313e-20)
(0.000223621 20 2.23845e-20)
(0.000223651 20 2.2424e-20)
(0.000223682 20 2.2437e-20)
(0.000223712 20 2.24132e-20)
(0.000223743 20 2.23882e-20)
(0.000223773 20 2.23305e-20)
(0.000223803 20 2.22839e-20)
(0.000223833 20 2.22821e-20)
(0.000223863 20 2.22299e-20)
(0.000223893 20 2.21669e-20)
(0.000223923 20 2.212e-20)
(0.000223952 20 2.20201e-20)
(0.000223982 20 2.1968e-20)
(0.000224011 20 2.17573e-20)
(0.000224041 20 2.19905e-20)
(0.00022407 20 2.15278e-20)
(0.000224099 20 2.16654e-20)
(0.000224128 20 2.11052e-20)
(0.000224157 20 2.04189e-20)
(0.000224186 20 1.99584e-20)
(0.000224215 20 1.99332e-20)
(0.000224243 20 2.02809e-20)
(0.000224272 20 2.07524e-20)
(0.0002243 20 2.1219e-20)
(0.000224329 20 2.14866e-20)
(0.000224357 20 2.15748e-20)
(0.000224385 20 2.16156e-20)
(0.000224413 20 2.17107e-20)
(0.000224441 20 2.18276e-20)
(0.000224469 20 2.19211e-20)
(0.000224496 20 2.20112e-20)
(0.000224524 20 2.20984e-20)
(0.000224552 20 2.21167e-20)
(0.000224579 20 2.21414e-20)
(0.000224606 20 2.22236e-20)
(0.000224633 20 2.22825e-20)
(0.00022466 20 2.22485e-20)
(0.000224687 20 2.22481e-20)
(0.000224714 20 2.22202e-20)
(0.000224741 20 2.22044e-20)
(0.000224768 20 2.22493e-20)
(0.000224794 20 2.23183e-20)
(0.00022482 20 2.23564e-20)
(0.000224847 20 2.23614e-20)
(0.000224873 20 2.23533e-20)
(0.000224899 20 2.23648e-20)
(0.000224925 20 2.23534e-20)
(0.000224951 20 2.23203e-20)
(0.000224976 20 2.23025e-20)
(0.000225002 20 2.23135e-20)
(0.000225028 20 2.23308e-20)
(0.000225053 20 2.2313e-20)
(0.000225078 20 2.23193e-20)
(0.000225103 20 2.23058e-20)
(0.000225128 20 2.23303e-20)
(0.000225153 20 2.23467e-20)
(0.000225178 20 2.22311e-20)
(0.000225203 20 2.22833e-20)
(0.000225227 20 2.20344e-20)
(0.000225252 20 2.29181e-20)
(0.000225276 20 2.10781e-20)
(0.000225301 20 2.50974e-20)
(0.000225325 20 1.96554e-20)
(0.000225349 20 2.53477e-20)
(0.000225372 20 2.07805e-20)
(0.000225396 20 1.7897e-20)
(0.00022542 20 1.65131e-20)
(0.000225443 20 1.72329e-20)
(0.000225467 20 1.91377e-20)
(0.00022549 20 2.09199e-20)
(0.000225513 20 2.19932e-20)
(0.000225536 20 2.24393e-20)
(0.000225559 20 2.25588e-20)
(0.000225582 20 2.24891e-20)
(0.000225605 20 2.24483e-20)
(0.000225627 20 2.23596e-20)
(0.00022565 20 2.22994e-20)
(0.000225672 20 2.23161e-20)
(0.000225694 20 2.2341e-20)
(0.000225716 20 2.23311e-20)
(0.000225738 20 2.2356e-20)
(0.00022576 20 2.23791e-20)
(0.000225782 20 2.23576e-20)
(0.000225803 20 2.24136e-20)
(0.000225825 20 2.24647e-20)
(0.000225846 20 2.25142e-20)
(0.000225867 20 2.25501e-20)
(0.000225888 20 2.25276e-20)
(0.000225909 20 2.25101e-20)
(0.00022593 20 2.24956e-20)
(0.00022595 20 2.24946e-20)
(0.000225971 20 2.25024e-20)
(0.000225991 20 2.25277e-20)
(0.000226012 20 2.24948e-20)
(0.000226032 20 2.2468e-20)
(0.000226052 20 2.24665e-20)
(0.000226072 20 2.24648e-20)
(0.000226092 20 2.2477e-20)
(0.000226111 20 2.24983e-20)
(0.000226131 20 2.25257e-20)
(0.00022615 20 2.25725e-20)
(0.000226169 20 2.26112e-20)
(0.000226188 20 2.26325e-20)
(0.000226207 20 2.26353e-20)
(0.000226226 20 2.26153e-20)
(0.000226245 20 2.26291e-20)
(0.000226264 20 2.26527e-20)
(0.000226282 20 2.2688e-20)
(0.0002263 20 2.26552e-20)
(0.000226319 20 2.26106e-20)
(0.000226337 20 2.25807e-20)
(0.000226355 20 2.25761e-20)
(0.000226373 20 2.25834e-20)
(0.00022639 20 2.25362e-20)
(0.000226408 20 2.25862e-20)
(0.000226424 20 2.26711e-20)
(0.000226445 20 2.26912e-20)
(0.000226464 20 2.2654e-20)
(0.00022648 20 2.2593e-20)
(0.000226496 20 2.2587e-20)
(0.000226514 20 2.2622e-20)
(0.000226532 20 2.2549e-20)
(0.000226548 20 2.26234e-20)
(0.000226564 20 2.24052e-20)
(0.00022658 20 2.2462e-20)
(0.000226596 20 2.24697e-20)
(0.000226612 20 1.93677e-20)
(0.000226628 20 2.17086e-20)
(0.000226643 20 1.22463e-20)
(0.000226659 20 1.24375e-20)
(0.000226674 20 8.40682e-21)
(0.000226689 20 9.67406e-21)
(0.000226704 20 -5.25286e-22)
(0.000226719 20 -2.42751e-22)
(0.000226734 20 -3.02278e-21)
(0.000226749 20 3.03193e-22)
(0.000226763 20 -7.86239e-21)
(0.000226778 20 -5.86648e-21)
(0.000226792 20 -7.16972e-21)
(0.000226806 20 -2.77049e-21)
(0.00022682 20 -1.01223e-20)
(0.000226833 20 -7.57165e-21)
(0.000226847 20 -8.62011e-21)
(0.000226861 20 -3.96633e-21)
(0.000226874 20 -1.11988e-20)
(0.000226887 20 -8.35007e-21)
(0.0002269 20 -9.17821e-21)
(0.000226913 20 -4.42637e-21)
(0.000226926 20 -1.16163e-20)
(0.000226938 20 -8.79206e-21)
(0.000226951 20 -9.36459e-21)
(0.000226963 20 -4.57454e-21)
(0.000226975 20 -1.18154e-20)
(0.000226988 20 -8.83328e-21)
(0.000226999 20 -9.48709e-21)
(0.000227011 20 -4.65004e-21)
(0.000227023 20 -1.18575e-20)
(0.000227034 20 -9.10385e-21)
(0.000227046 20 -9.55181e-21)
(0.000227057 20 -4.65297e-21)
(0.000227068 20 -1.18513e-20)
(0.000227079 20 -8.91421e-21)
(0.000227089 20 -9.49191e-21)
(0.0002271 20 -4.78767e-21)
(0.00022711 20 -1.20261e-20)
(0.000227121 20 -9.05547e-21)
(0.000227131 20 -9.58733e-21)
(0.000227141 20 -4.67314e-21)
(0.00022715 20 -1.19086e-20)
(0.00022716 20 -9.05954e-21)
(0.00022717 20 -9.50107e-21)
(0.000227179 20 -4.71939e-21)
(0.000227188 20 -1.1928e-20)
(0.000227197 20 -8.88881e-21)
(0.000227206 20 -9.37606e-21)
(0.000227215 20 -4.55567e-21)
(0.000227224 20 -1.1916e-20)
(0.000227232 20 -8.85274e-21)
(0.00022724 20 -9.01277e-21)
(0.000227249 20 -4.18538e-21)
(0.000227257 20 -1.13351e-20)
(0.000227265 20 -8.12164e-21)
(0.000227272 20 -8.13102e-21)
(0.00022728 20 -3.48031e-21)
(0.000227287 20 -9.20719e-21)
(0.000227294 20 -8.4116e-21)
(0.000227302 20 -1.18164e-21)
(0.000227308 20 -5.66011e-21)
(0.000227315 20 7.37542e-22)
(0.000227322 20 -3.81374e-21)
(0.000227328 20 -4.60069e-21)
(0.000227335 20 -1.60555e-21)
(0.000227341 20 3.97712e-21)
(0.000227347 20 9.79087e-21)
(0.000227353 20 1.41857e-20)
(0.000227358 20 1.70338e-20)
(0.000227364 20 1.87238e-20)
(0.000227369 20 1.97006e-20)
(0.000227375 20 2.03119e-20)
(0.00022738 20 2.07482e-20)
(0.000227385 20 2.10865e-20)
(0.000227389 20 2.13195e-20)
(0.000227394 20 2.15049e-20)
(0.000227398 20 2.16715e-20)
(0.000227403 20 2.18131e-20)
(0.000227407 20 2.19336e-20)
(0.000227411 20 2.20104e-20)
(0.000227415 20 2.20611e-20)
(0.000227418 20 2.21135e-20)
(0.000227422 20 2.21709e-20)
(0.000227425 20 2.22072e-20)
(0.000227428 20 2.21702e-20)
(0.000227431 20 2.21721e-20)
(0.000227434 20 2.22239e-20)
(0.000227437 20 2.22735e-20)
(0.00022744 20 2.23051e-20)
(0.000227442 20 2.23301e-20)
(0.000227444 20 2.23562e-20)
(0.000227446 20 2.23933e-20)
(0.000227448 20 2.24156e-20)
(0.00022745 20 2.24548e-20)
(0.000227452 20 2.24535e-20)
(0.000227453 20 2.24949e-20)
(0.000227454 20 2.25223e-20)
(0.000227455 20 2.25086e-20)
(0.000227456 20 2.24948e-20)
(0.000227457 20 2.25079e-20)
(0.000227458 20 2.24615e-20)
(0.000227458 20 2.24327e-20)
(0.000227459 20 2.24448e-20)
(0.000227459 20 2.24523e-20)
(0.000227459 20 2.24876e-20)
(0.000227458 20 2.24934e-20)
(0.000227458 20 2.24903e-20)
(0.000227458 20 2.24735e-20)
(0.000227457 20 2.24416e-20)
(0.000227456 20 2.24602e-20)
(0.000227455 20 2.25295e-20)
(0.000227454 20 2.25475e-20)
(0.000227453 20 2.25911e-20)
(0.000227451 20 2.26036e-20)
(0.000227449 20 2.26072e-20)
(0.000227448 20 2.25883e-20)
(0.000227446 20 2.25474e-20)
(0.000227444 20 2.25563e-20)
(0.000227441 20 2.2505e-20)
(0.000227439 20 2.23717e-20)
(0.000227436 20 2.23551e-20)
(0.000227433 20 2.21348e-20)
(0.00022743 20 2.22105e-20)
(0.000227427 20 2.19636e-20)
(0.000227424 20 1.92457e-20)
(0.000227421 20 2.1556e-20)
(0.000227417 20 1.10895e-20)
(0.000227413 20 1.14021e-20)
(0.000227409 20 8.21178e-21)
(0.000227405 20 9.38839e-21)
(0.000227401 20 -1.69518e-21)
(0.000227396 20 -1.60469e-21)
(0.000227392 20 -3.4629e-21)
(0.000227387 20 1.60008e-24)
(0.000227382 20 -9.05638e-21)
(0.000227377 20 -6.73725e-21)
(0.000227372 20 -7.1943e-21)
(0.000227367 20 -2.90262e-21)
(0.00022736 20 -1.14478e-20)
(0.000227357 20 -8.86032e-21)
(0.000227351 20 -8.9359e-21)
(0.00022734 20 -4.34488e-21)
(0.000227333 20 -1.27805e-20)
(0.000227327 20 -9.92706e-21)
(0.000227321 20 -9.66018e-21)
(0.000227314 20 -5.22221e-21)
(0.000227307 20 -1.36979e-20)
(0.000227299 20 -1.11518e-20)
(0.000227291 20 -1.12339e-20)
(0.000227284 20 -6.99225e-21)
(0.000227276 20 -1.57175e-20)
(0.000227267 20 -1.30688e-20)
(0.000227259 20 -1.46555e-20)
(0.00022725 20 -9.10325e-21)
(0.000227242 20 -2.39587e-20)
(0.000227233 20 -1.58246e-20)
(0.000227224 20 -2.89821e-20)
(0.000227214 20 -2.09186e-20)
(0.000227205 20 -3.54085e-20)
(0.000227195 20 -2.83754e-20)
(0.000227186 20 -4.3087e-20)
(0.000227176 20 -3.49527e-20)
(0.000227166 20 -4.81585e-20)
(0.000227156 20 -3.88822e-20)
(0.000227145 20 -5.12244e-20)
(0.000227135 20 -4.12136e-20)
(0.000227124 20 -5.27097e-20)
(0.000227113 20 -4.25265e-20)
(0.000227102 20 -5.3963e-20)
(0.000227091 20 -4.35539e-20)
(0.00022708 20 -5.50927e-20)
(0.000227068 20 -4.42067e-20)
(0.000227057 20 -5.525e-20)
(0.000227045 20 -4.44035e-20)
(0.000227033 20 -5.55984e-20)
(0.000227021 20 -4.46397e-20)
(0.000227009 20 -5.58228e-20)
(0.000226996 20 -4.52498e-20)
(0.000226984 20 -5.61777e-20)
(0.000226971 20 -4.52311e-20)
(0.000226959 20 -5.62141e-20)
(0.000226946 20 -4.51944e-20)
(0.000226933 20 -5.63565e-20)
(0.000226919 20 -4.5486e-20)
(0.000226906 20 -5.63425e-20)
(0.000226892 20 -4.52662e-20)
(0.000226879 20 -5.63146e-20)
(0.000226865 20 -4.5234e-20)
(0.000226851 20 -5.61674e-20)
(0.000226837 20 -4.55332e-20)
(0.000226822 20 -5.65476e-20)
(0.000226808 20 -4.53645e-20)
(0.000226793 20 -5.6429e-20)
(0.000226778 20 -4.5525e-20)
(0.000226763 20 -5.65378e-20)
(0.000226748 20 -4.53271e-20)
(0.000226733 20 -5.62086e-20)
(0.000226717 20 -4.51302e-20)
(0.000226701 20 -5.63606e-20)
(0.000226685 20 -4.52685e-20)
(0.000226669 20 -5.64264e-20)
(0.000226653 20 -4.53435e-20)
(0.000226637 20 -5.64843e-20)
(0.00022662 20 -4.55656e-20)
(0.000226604 20 -5.63758e-20)
(0.000226587 20 -4.5628e-20)
(0.00022657 20 -5.65788e-20)
(0.000226552 20 -4.57109e-20)
(0.000226535 20 -5.67677e-20)
(0.000226517 20 -4.56902e-20)
(0.0002265 20 -5.65793e-20)
(0.000226482 20 -4.53193e-20)
(0.000226464 20 -5.63289e-20)
(0.000226445 20 -4.55409e-20)
(0.000226427 20 -5.54653e-20)
(0.000226408 20 -4.6326e-20)
(0.00022639 20 -5.16712e-20)
(0.000226371 20 -5.18217e-20)
(0.000226352 20 -4.39105e-20)
(0.000226332 20 -5.77646e-20)
(0.000226313 20 -4.86216e-20)
(0.000226293 20 -5.94447e-20)
(0.000226274 20 -4.70786e-20)
(0.000226254 20 -5.69571e-20)
(0.000226233 20 -4.53356e-20)
(0.000226213 20 -5.61732e-20)
(0.000226193 20 -4.5181e-20)
(0.000226172 20 -5.60623e-20)
(0.000226151 20 -4.51817e-20)
(0.00022613 20 -5.62891e-20)
(0.000226109 20 -4.55204e-20)
(0.000226088 20 -5.671e-20)
(0.000226067 20 -4.57354e-20)
(0.000226045 20 -5.68876e-20)
(0.000226023 20 -4.58601e-20)
(0.000226001 20 -5.68144e-20)
(0.000225979 20 -4.58337e-20)
(0.000225957 20 -5.69722e-20)
(0.000225934 20 -4.592e-20)
(0.000225912 20 -5.69572e-20)
(0.000225889 20 -4.59483e-20)
(0.000225866 20 -5.7011e-20)
(0.000225843 20 -4.57173e-20)
(0.000225819 20 -5.68058e-20)
(0.000225796 20 -4.59888e-20)
(0.000225772 20 -5.68849e-20)
(0.000225749 20 -4.57713e-20)
(0.000225725 20 -5.6687e-20)
(0.0002257 20 -4.55647e-20)
(0.000225676 20 -5.66223e-20)
(0.000225652 20 -4.57451e-20)
(0.000225627 20 -5.66283e-20)
(0.000225602 20 -4.56828e-20)
(0.000225577 20 -5.67599e-20)
(0.000225552 20 -4.58909e-20)
(0.000225527 20 -5.67496e-20)
(0.000225501 20 -4.55767e-20)
(0.000225476 20 -5.69137e-20)
(0.00022545 20 -4.60563e-20)
(0.000225424 20 -5.66776e-20)
(0.000225398 20 -4.56641e-20)
(0.000225371 20 -5.68915e-20)
(0.000225345 20 -4.61662e-20)
(0.000225318 20 -5.70743e-20)
(0.000225291 20 -4.60914e-20)
(0.000225265 20 -5.69366e-20)
(0.000225237 20 -4.61149e-20)
(0.00022521 20 -5.70583e-20)
(0.000225183 20 -4.63042e-20)
(0.000225155 20 -5.73027e-20)
(0.000225127 20 -4.62117e-20)
(0.000225099 20 -5.72448e-20)
(0.000225071 20 -4.60883e-20)
(0.000225043 20 -5.68326e-20)
(0.000225014 20 -4.59817e-20)
(0.000224986 20 -5.68818e-20)
(0.000224957 20 -4.59654e-20)
(0.000224928 20 -5.69402e-20)
(0.000224899 20 -4.59393e-20)
(0.00022487 20 -5.67851e-20)
(0.00022484 20 -4.58453e-20)
(0.000224811 20 -5.67521e-20)
(0.000224781 20 -4.58558e-20)
(0.000224751 20 -5.66079e-20)
(0.000224721 20 -4.55981e-20)
(0.000224691 20 -5.65328e-20)
(0.00022466 20 -4.56966e-20)
(0.00022463 20 -5.65658e-20)
(0.000224599 20 -4.54922e-20)
(0.000224568 20 -5.64972e-20)
(0.000224537 20 -4.54601e-20)
(0.000224506 20 -5.63324e-20)
(0.000224474 20 -4.52378e-20)
(0.000224443 20 -5.62372e-20)
(0.000224411 20 -4.52716e-20)
(0.000224379 20 -5.62476e-20)
(0.000224347 20 -4.52695e-20)
(0.000224315 20 -5.6252e-20)
(0.000224283 20 -4.51226e-20)
(0.00022425 20 -5.60905e-20)
(0.000224217 20 -4.5066e-20)
(0.000224185 20 -5.59842e-20)
(0.000224152 20 -4.52222e-20)
(0.000224118 20 -5.62662e-20)
(0.000224085 20 -4.50439e-20)
(0.000224052 20 -5.58099e-20)
(0.000224018 20 -4.49012e-20)
(0.000223984 20 -5.56711e-20)
(0.00022395 20 -4.47208e-20)
(0.000223916 20 -5.56843e-20)
(0.000223882 20 -4.43573e-20)
(0.000223847 20 -5.48531e-20)
(0.000223813 20 -4.34235e-20)
(0.000223778 20 -5.42084e-20)
(0.000223743 20 -4.30227e-20)
(0.000223708 20 -5.3317e-20)
(0.000223673 20 -4.16832e-20)
(0.000223637 20 -5.17623e-20)
(0.000223602 20 -4.149e-20)
(0.000223566 20 -4.88189e-20)
(0.00022353 20 -4.3597e-20)
(0.000223493 20 -4.67786e-20)
(0.000223456 20 -4.33433e-20)
(0.000223417 20 -5.93185e-20)
(0.000223377 20 -4.94476e-20)
(0.000223339 20 -5.67528e-20)
(0.000223303 20 -4.2754e-20)
(0.000223267 20 -4.70892e-20)
(0.00022323 20 -4.0181e-20)
(0.000223192 20 -4.26869e-20)
(0.000223155 20 -3.90186e-20)
(0.000223117 20 -5.55501e-20)
(0.000223079 20 -4.56341e-20)
(0.000223042 20 -5.34275e-20)
(0.000223004 20 -3.97649e-20)
(0.000222965 20 -4.47332e-20)
(0.000222927 20 -3.81386e-20)
(0.000222889 20 -4.08052e-20)
(0.00022285 20 -3.76034e-20)
(0.000222811 20 -5.38305e-20)
(0.000222772 20 -4.56352e-20)
(0.000222733 20 -4.89645e-20)
(0.000222694 20 -4.43854e-20)
(0.000222655 20 -3.38493e-20)
(0.000222615 20 -4.65035e-20)
(0.000222576 20 -3.64103e-20)
(0.000222536 20 -4.59407e-20)
(0.000222496 20 -3.46536e-20)
(0.000222456 20 -4.16484e-20)
(0.000222416 20 -3.62174e-20)
(0.000222375 20 -3.97727e-20)
(0.000222335 20 -3.72168e-20)
(0.000222294 20 -5.44471e-20)
(0.000222253 20 -4.49785e-20)
(0.000222212 20 -5.28653e-20)
(0.000222171 20 -3.92354e-20)
(0.00022213 20 -4.42038e-20)
(0.000222088 20 -3.77677e-20)
(0.000222047 20 -4.05887e-20)
(0.000222005 20 -3.74009e-20)
(0.000221963 20 -5.43453e-20)
(0.000221921 20 -4.42797e-20)
(0.000221879 20 -5.19892e-20)
(0.000221837 20 -3.86022e-20)
(0.000221794 20 -4.36993e-20)
(0.000221752 20 -3.70375e-20)
(0.000221709 20 -3.98e-20)
(0.000221666 20 -3.6834e-20)
(0.000221623 20 -5.377e-20)
(0.00022158 20 -4.41758e-20)
(0.000221537 20 -5.19227e-20)
(0.000221493 20 -3.80726e-20)
(0.00022145 20 -4.32282e-20)
(0.000221406 20 -3.6651e-20)
(0.000221362 20 -3.93915e-20)
(0.000221318 20 -3.65013e-20)
(0.000221274 20 -5.35156e-20)
(0.00022123 20 -4.39076e-20)
(0.000221185 20 -5.16322e-20)
(0.000221141 20 -3.80512e-20)
(0.000221096 20 -4.33615e-20)
(0.000221051 20 -3.6824e-20)
(0.000221006 20 -3.96097e-20)
(0.000220961 20 -3.67061e-20)
(0.000220916 20 -5.38814e-20)
(0.000220871 20 -4.39755e-20)
(0.000220825 20 -5.17936e-20)
(0.000220779 20 -3.81814e-20)
(0.000220734 20 -4.33239e-20)
(0.000220688 20 -3.6816e-20)
(0.000220642 20 -3.96531e-20)
(0.000220595 20 -3.70294e-20)
(0.000220549 20 -5.41552e-20)
(0.000220503 20 -4.4219e-20)
(0.000220456 20 -5.19184e-20)
(0.000220409 20 -3.80769e-20)
(0.000220362 20 -4.35008e-20)
(0.000220315 20 -3.69209e-20)
(0.000220268 20 -3.95264e-20)
(0.000220221 20 -3.67618e-20)
(0.000220174 20 -5.42083e-20)
(0.000220126 20 -4.41268e-20)
(0.000220078 20 -5.16733e-20)
(0.00022003 20 -3.80124e-20)
(0.000219983 20 -4.34993e-20)
(0.000219934 20 -3.70278e-20)
(0.000219886 20 -3.97211e-20)
(0.000219838 20 -3.69508e-20)
(0.00021979 20 -5.41133e-20)
(0.000219741 20 -4.40816e-20)
(0.000219692 20 -5.16331e-20)
(0.000219643 20 -3.78724e-20)
(0.000219594 20 -4.33284e-20)
(0.000219545 20 -3.66505e-20)
(0.000219496 20 -3.94289e-20)
(0.000219447 20 -3.70273e-20)
(0.000219397 20 -5.42794e-20)
(0.000219348 20 -4.42663e-20)
(0.000219298 20 -5.16626e-20)
(0.000219248 20 -3.78771e-20)
(0.000219198 20 -4.33256e-20)
(0.000219148 20 -3.68652e-20)
(0.000219098 20 -3.96001e-20)
(0.000219047 20 -3.72389e-20)
(0.000218997 20 -5.4538e-20)
(0.000218946 20 -4.44021e-20)
(0.000218896 20 -5.20761e-20)
(0.000218845 20 -3.81896e-20)
(0.000218794 20 -4.36263e-20)
(0.000218743 20 -3.70809e-20)
(0.000218692 20 -3.97306e-20)
(0.00021864 20 -3.73637e-20)
(0.000218589 20 -5.46552e-20)
(0.000218537 20 -4.46895e-20)
(0.000218486 20 -5.1852e-20)
(0.000218434 20 -3.80095e-20)
(0.000218382 20 -4.34605e-20)
(0.00021833 20 -3.71301e-20)
(0.000218278 20 -3.98446e-20)
(0.000218225 20 -3.73226e-20)
(0.000218173 20 -5.47237e-20)
(0.00021812 20 -4.43929e-20)
(0.000218068 20 -5.19239e-20)
(0.000218015 20 -3.7837e-20)
(0.000217962 20 -4.33023e-20)
(0.000217909 20 -3.69744e-20)
(0.000217856 20 -3.96108e-20)
(0.000217803 20 -3.72359e-20)
(0.00021775 20 -5.43823e-20)
(0.000217697 20 -4.45034e-20)
(0.000217643 20 -5.17226e-20)
(0.000217589 20 -3.78298e-20)
(0.000217536 20 -4.34847e-20)
(0.000217482 20 -3.70769e-20)
(0.000217428 20 -3.95404e-20)
(0.000217374 20 -3.72292e-20)
(0.00021732 20 -5.46248e-20)
(0.000217266 20 -4.44858e-20)
(0.000217211 20 -5.19249e-20)
(0.000217157 20 -3.78155e-20)
(0.000217102 20 -4.33684e-20)
(0.000217048 20 -3.70275e-20)
(0.000216993 20 -3.95265e-20)
(0.000216938 20 -3.74476e-20)
(0.000216883 20 -5.43337e-20)
(0.000216828 20 -4.5266e-20)
(0.000216774 20 -4.86927e-20)
(0.000216719 20 -4.31297e-20)
(0.000216665 20 -3.29441e-20)
(0.000216608 20 -4.63638e-20)
(0.000216561 20 -3.62808e-20)
(0.0002165 20 -4.58082e-20)
(0.000216454 20 -3.3964e-20)
(0.000216387 20 -4.13962e-20)
(0.000216319 20 -3.60716e-20)
(0.000216256 20 -3.9419e-20)
(0.000216195 20 -3.77919e-20)
(0.000216135 20 -5.55798e-20)
(0.000216075 20 -4.53413e-20)
(0.000216014 20 -5.24629e-20)
(0.000215954 20 -3.85622e-20)
(0.000215894 20 -4.41274e-20)
(0.000215833 20 -3.75381e-20)
(0.000215773 20 -4.0018e-20)
(0.000215713 20 -3.82507e-20)
(0.000215652 20 -5.54569e-20)
(0.000215592 20 -4.51271e-20)
(0.000215531 20 -5.23284e-20)
(0.00021547 20 -3.81156e-20)
(0.00021541 20 -4.37877e-20)
(0.000215349 20 -3.69919e-20)
(0.000215288 20 -3.94342e-20)
(0.000215228 20 -3.7703e-20)
(0.000215167 20 -5.50333e-20)
(0.000215106 20 -4.46194e-20)
(0.000215045 20 -5.18607e-20)
(0.000214985 20 -3.7741e-20)
(0.000214924 20 -4.35041e-20)
(0.000214863 20 -3.69451e-20)
(0.000214802 20 -3.92326e-20)
(0.000214741 20 -3.75508e-20)
(0.00021468 20 -5.499e-20)
(0.00021462 20 -4.44545e-20)
(0.000214559 20 -5.17673e-20)
(0.000214498 20 -3.79137e-20)
(0.000214438 20 -4.3594e-20)
(0.000214377 20 -3.67866e-20)
(0.000214317 20 -3.93453e-20)
(0.000214256 20 -3.76721e-20)
(0.000214196 20 -5.51684e-20)
(0.000214136 20 -4.47226e-20)
(0.000214076 20 -5.18178e-20)
(0.000214015 20 -3.78155e-20)
(0.000213955 20 -4.34864e-20)
(0.000213895 20 -3.6895e-20)
(0.000213835 20 -3.9355e-20)
(0.000213775 20 -3.79603e-20)
(0.000213715 20 -5.535e-20)
(0.000213654 20 -4.48351e-20)
(0.000213594 20 -5.20202e-20)
(0.000213534 20 -3.77209e-20)
(0.000213473 20 -4.3672e-20)
(0.000213413 20 -3.70155e-20)
(0.000213352 20 -3.93105e-20)
(0.000213292 20 -3.77829e-20)
(0.000213231 20 -5.52852e-20)
(0.000213171 20 -4.45021e-20)
(0.00021311 20 -5.17779e-20)
(0.000213049 20 -3.75615e-20)
(0.000212988 20 -4.33167e-20)
(0.000212927 20 -3.66892e-20)
(0.000212866 20 -3.90978e-20)
(0.000212805 20 -3.77722e-20)
(0.000212744 20 -5.51286e-20)
(0.000212683 20 -4.45541e-20)
(0.000212622 20 -5.15582e-20)
(0.00021256 20 -3.74953e-20)
(0.000212499 20 -4.33422e-20)
(0.000212438 20 -3.67199e-20)
(0.000212376 20 -3.90495e-20)
(0.000212314 20 -3.75491e-20)
(0.000212253 20 -5.53038e-20)
(0.000212191 20 -4.43178e-20)
(0.000212129 20 -5.11491e-20)
(0.000212068 20 -3.71083e-20)
(0.000212006 20 -4.2993e-20)
(0.000211944 20 -3.65518e-20)
(0.000211882 20 -3.90316e-20)
(0.00021182 20 -3.78243e-20)
(0.000211757 20 -5.52598e-20)
(0.000211695 20 -4.4663e-20)
(0.000211633 20 -5.17195e-20)
(0.000211571 20 -3.75782e-20)
(0.000211508 20 -4.3753e-20)
(0.000211446 20 -3.70302e-20)
(0.000211383 20 -3.91977e-20)
(0.000211321 20 -3.7869e-20)
(0.000211258 20 -5.56261e-20)
(0.000211195 20 -4.47233e-20)
(0.000211132 20 -5.17105e-20)
(0.00021107 20 -3.72995e-20)
(0.000211007 20 -4.32295e-20)
(0.000210944 20 -3.66614e-20)
(0.000210881 20 -3.90529e-20)
(0.000210818 20 -3.78772e-20)
(0.000210755 20 -5.55412e-20)
(0.000210691 20 -4.44958e-20)
(0.000210628 20 -5.15569e-20)
(0.000210565 20 -3.72316e-20)
(0.000210501 20 -4.32882e-20)
(0.000210438 20 -3.65985e-20)
(0.000210375 20 -3.8965e-20)
(0.000210311 20 -3.79405e-20)
(0.000210247 20 -5.56909e-20)
(0.000210184 20 -4.48941e-20)
(0.00021012 20 -5.17224e-20)
(0.000210056 20 -3.73588e-20)
(0.000209992 20 -4.34664e-20)
(0.000209929 20 -3.65859e-20)
(0.000209865 20 -3.90091e-20)
(0.000209801 20 -3.80494e-20)
(0.000209736 20 -5.58935e-20)
(0.000209672 20 -4.4805e-20)
(0.000209608 20 -5.15297e-20)
(0.000209544 20 -3.75359e-20)
(0.00020948 20 -4.36651e-20)
(0.000209415 20 -3.69505e-20)
(0.000209351 20 -3.93393e-20)
(0.000209286 20 -3.84872e-20)
(0.000209221 20 -5.58243e-20)
(0.000209157 20 -4.54302e-20)
(0.000209092 20 -4.89443e-20)
(0.000209027 20 -4.21468e-20)
(0.000208962 20 -3.28051e-20)
(0.000208897 20 -4.6953e-20)
(0.000208832 20 -3.63168e-20)
(0.000208767 20 -4.56794e-20)
(0.000208702 20 -3.3825e-20)
(0.000208636 20 -4.15366e-20)
(0.000208571 20 -3.59235e-20)
(0.000208506 20 -3.89029e-20)
(0.00020844 20 -3.8612e-20)
(0.000208374 20 -5.63914e-20)
(0.000208308 20 -4.52435e-20)
(0.000208243 20 -5.20277e-20)
(0.000208177 20 -3.77332e-20)
(0.000208111 20 -4.38248e-20)
(0.000208044 20 -3.69256e-20)
(0.000207978 20 -3.91636e-20)
(0.000207912 20 -3.8325e-20)
(0.000207845 20 -5.59062e-20)
(0.000207779 20 -4.45532e-20)
(0.000207712 20 -5.0974e-20)
(0.000207645 20 -3.66236e-20)
(0.000207578 20 -4.32911e-20)
(0.000207511 20 -3.64449e-20)
(0.000207444 20 -3.86047e-20)
(0.000207377 20 -3.80772e-20)
(0.00020731 20 -5.56273e-20)
(0.000207243 20 -4.44232e-20)
(0.000207175 20 -5.11934e-20)
(0.000207108 20 -3.70232e-20)
(0.00020704 20 -4.31772e-20)
(0.000206973 20 -3.64347e-20)
(0.000206906 20 -3.85417e-20)
(0.000206838 20 -3.79759e-20)
(0.000206771 20 -5.56926e-20)
(0.000206704 20 -4.44451e-20)
(0.000206637 20 -5.09083e-20)
(0.00020657 20 -3.66788e-20)
(0.000206503 20 -4.30635e-20)
(0.000206437 20 -3.63194e-20)
(0.000206371 20 -3.86063e-20)
(0.000206306 20 -3.8168e-20)
(0.000206241 20 -5.57962e-20)
(0.000206177 20 -4.45699e-20)
(0.000206114 20 -5.15209e-20)
(0.000206052 20 -3.68251e-20)
(0.000205991 20 -4.29295e-20)
(0.000205932 20 -3.62089e-20)
(0.000205873 20 -3.85457e-20)
(0.000205817 20 -3.8155e-20)
(0.000205763 20 -5.58855e-20)
(0.000205711 20 -4.44362e-20)
(0.000205662 20 -5.10041e-20)
(0.000205616 20 -3.65042e-20)