/*--------------------------------*- C++ -*----------------------------------*\
| =========                 |                                                 |
| \\      /  F ield         | OpenFOAM: The Open Source CFD Toolbox           |
|  \\    /   O peration     | Version:  2512                                  |
|   \\  /    A nd           | Website:  www.openfoam.com                      |
|    \\/     M anipulation  |                                                 |
\*---------------------------------------------------------------------------*/
FoamFile
{
    version     2.0;
    format      ascii;
    arch        "LSB;label=32;scalar=64";
    class       volScalarField;
    location    "0.1";
    object      p;
}
// * * * * * * * * * * * * * * * * * * * * * * * * * * * * * * * * * * * * * //

dimensions      [1 -1 -2 0 0 0 0];

internalField   nonuniform List<scalar> 
100000
(
0
-0.707688
-0.946524
-1.08267
-1.13755
-1.15096
-1.15564
-1.16453
-1.18103
-1.20281
-1.22719
-1.2535
-1.28172
-1.31163
-1.34309
-1.37606
-1.41051
-1.44641
-1.48373
-1.5225
-1.56271
-1.60433
-1.64741
-1.69195
-1.73795
-1.7854
-1.83432
-1.8847
-1.93654
-1.98984
-2.0446
-2.10081
-2.15849
-2.21763
-2.27823
-2.34029
-2.4038
-2.46878
-2.53522
-2.60312
-2.67248
-2.7433
-2.81558
-2.88932
-2.96452
-3.04118
-3.1193
-3.19888
-3.27992
-3.36242
-3.44638
-3.5318
-3.61868
-3.70702
-3.79682
-3.88808
-3.9808
-4.07498
-4.17062
-4.26772
-4.36628
-4.4663
-4.56778
-4.67072
-4.77512
-4.88098
-4.9883
-5.09708
-5.20732
-5.31902
-5.43218
-5.5468
-5.66287
-5.78041
-5.89941
-6.01987
-6.14178
-6.26516
-6.38999
-6.51629
-6.64404
-6.77326
-6.90393
-7.03606
-7.16966
-7.30471
-7.44122
-7.57919
-7.71861
-7.8595
-8.00185
-8.14565
-8.29092
-8.43764
-8.58582
-8.73546
-8.88656
-9.03912
-9.19313
-9.34861
-9.50554
-9.66393
-9.82378
-9.98509
-10.1479
-10.3121
-10.4778
-10.6449
-10.8135
-10.9835
-11.1551
-11.328
-11.5024
-11.6783
-11.8557
-12.0345
-12.2147
-12.3964
-12.5796
-12.7642
-12.9503
-13.1378
-13.3268
-13.5172
-13.7091
-13.9025
-14.0973
-14.2935
-14.4912
-14.6904
-14.891
-15.0931
-15.2966
-15.5016
-15.708
-15.9159
-16.1252
-16.3359
-16.5482
-16.7618
-16.9769
-17.1934
-17.4114
-17.6307
-17.8515
-18.0737
-18.2973
-18.5221
-18.7482
-18.9756
-19.2058
-19.437
-19.6702
-19.9049
-20.1413
-20.3792
-20.6186
-20.8596
-21.1022
-21.3462
-21.5919
-21.839
-22.0877
-22.3379
-22.5896
-22.8428
-23.0976
-23.3539
-23.6117
-23.871
-24.1318
-24.3941
-24.6579
-24.9232
-25.1901
-25.4584
-25.7282
-25.9995
-26.2723
-26.5466
-26.8224
-27.0997
-27.3784
-27.6586
-27.9403
-28.2235
-28.5081
-28.7942
-29.0818
-29.3708
-29.6613
-29.9532
-30.2466
-30.5414
-30.8378
-31.1355
-31.4347
-31.7354
-32.0375
-32.341
-32.646
-32.9524
-33.2603
-33.5697
-33.8804
-34.1926
-34.5063
-34.8214
-35.1379
-35.4559
-35.7753
-36.0961
-36.4184
-36.7422
-37.0673
-37.3939
-37.7219
-38.0514
-38.3823
-38.7147
-39.0484
-39.3836
-39.7203
-40.0583
-40.3978
-40.7388
-41.0811
-41.4249
-41.7701
-42.1168
-42.4648
-42.8143
-43.1653
-43.5176
-43.8714
-44.2266
-44.5832
-44.9413
-45.3008
-45.6617
-46.024
-46.3878
-46.7529
-47.1195
-47.4875
-47.857
-48.2278
-48.6001
-48.9738
-49.3489
-49.7254
-50.1033
-50.4827
-50.8634
-51.2456
-51.6292
-52.0142
-52.4006
-52.7884
-53.1777
-53.5683
-53.9604
-54.3538
-54.7487
-55.145
-55.5427
-55.9417
-56.3422
-56.7441
-57.1474
-57.5521
-57.9582
-58.3657
-58.7746
-59.1849
-59.5966
-60.0097
-60.4242
-60.8401
-61.2574
-61.6761
-62.0961
-62.5176
-62.9405
-63.3647
-63.7903
-64.2174
-64.6458
-65.0756
-65.5068
-65.9393
-66.3733
-66.8086
-67.2453
-67.6834
-68.1229
-68.5637
-69.006
-69.4496
-69.8946
-70.3409
-70.7887
-71.2378
-71.6883
-72.1401
-72.5933
-73.0479
-73.5039
-73.9612
-74.4199
-74.8799
-75.3414
-75.8041
-76.2683
-76.7338
-77.2006
-77.6688
-78.1384
-78.6093
-79.0816
-79.5553
-80.0302
-80.5066
-80.9843
-81.4633
-81.9437
-82.4254
-82.9085
-83.3929
-83.8787
-84.3658
-84.8543
-85.3441
-85.8352
-86.3279
-86.822
-87.3174
-87.8142
-88.3124
-88.8118
-89.3126
-89.8147
-90.3182
-90.8229
-91.329
-91.8364
-92.3451
-92.8551
-93.3665
-93.8791
-94.3931
-94.9084
-95.4249
-95.9428
-96.462
-96.9825
-97.5043
-98.0274
-98.5518
-99.0775
-99.6045
-100.133
-100.662
-101.193
-101.725
-102.259
-102.794
-103.33
-103.867
-104.406
-104.945
-105.487
-106.029
-106.573
-107.118
-107.664
-108.211
-108.76
-109.31
-109.861
-110.414
-110.968
-111.523
-112.079
-112.637
-113.196
-113.756
-114.317
-114.88
-115.444
-116.009
-116.575
-117.142
-117.711
-118.281
-118.853
-119.425
-119.999
-120.574
-121.15
-121.727
-122.306
-122.886
-123.467
-124.049
-124.632
-125.217
-125.803
-126.39
-126.978
-127.568
-128.158
-128.75
-129.343
-129.938
-130.533
-131.13
-131.728
-132.327
-132.927
-133.528
-134.131
-134.735
-135.339
-135.946
-136.553
-137.161
-137.771
-138.381
-138.993
-139.606
-140.221
-140.836
-141.452
-142.07
-142.689
-143.309
-143.93
-144.552
-145.175
-145.8
-146.425
-147.052
-147.68
-148.309
-148.939
-149.57
-150.202
-150.836
-151.47
-152.106
-152.742
-153.38
-154.019
-154.659
-155.3
-155.942
-156.586
-157.23
-157.875
-158.522
-159.169
-159.818
-160.468
-161.119
-161.77
-162.423
-163.077
-163.732
-164.388
-165.045
-165.703
-166.362
-167.023
-167.684
-168.346
-169.009
-169.674
-170.339
-171.005
-171.672
-172.34
-173.009
-173.68
-174.351
-175.023
-175.697
-176.372
-177.048
-177.725
-178.403
-179.082
-179.763
-180.444
-181.126
-181.809
-182.494
-183.179
-183.865
-184.553
-185.241
-185.93
-186.621
-187.312
-188.004
-188.698
-189.392
-190.087
-190.783
-191.48
-192.178
-192.877
-193.577
-194.278
-194.98
-195.683
-196.387
-197.091
-197.797
-198.503
-199.21
-199.919
-200.628
-201.338
-202.049
-202.76
-203.473
-204.187
-204.901
-205.616
-206.332
-207.049
-207.767
-208.486
-209.205
-209.925
-210.647
-211.369
-212.091
-212.815
-213.539
-214.265
-214.991
-215.717
-216.445
-217.174
-217.903
-218.633
-219.364
-220.095
-220.828
-221.561
-222.295
-223.029
-223.765
-224.501
-225.238
-225.976
-226.714
-227.454
-228.193
-228.934
-229.676
-230.418
-231.161
-231.904
-232.648
-233.393
-234.139
-234.886
-235.633
-236.38
-237.129
-237.878
-238.628
-239.379
-240.13
-240.882
-241.634
-242.387
-243.141
-243.896
-244.651
-245.407
-246.163
-246.92
-247.678
-248.436
-249.195
-249.955
-250.715
-251.476
-252.237
-252.999
-253.762
-254.525
-255.289
-256.053
-256.818
-257.584
-258.35
-259.117
-259.884
-260.652
-261.42
-262.189
-262.959
-263.729
-264.499
-265.27
-266.042
-266.814
-267.587
-268.36
-269.134
-269.908
-270.682
-271.458
-272.233
-273.01
-273.786
-274.563
-275.341
-276.119
-276.898
-277.677
-278.456
-279.236
-280.017
-280.797
-281.579
-282.36
-283.142
-283.925
-284.708
-285.491
-286.275
-287.059
-287.844
-288.629
-289.415
-290.2
-290.987
-291.773
-292.56
-293.347
-294.135
-294.923
-295.712
-296.5
-297.289
-298.079
-298.869
-299.659
-300.449
-301.24
-302.031
-302.823
-303.614
-304.406
-305.199
-305.991
-306.784
-307.578
-308.371
-309.165
-309.959
-310.753
-311.548
-312.343
-313.138
-313.933
-314.729
-315.525
-316.321
-317.117
-317.914
-318.711
-319.508
-320.305
-321.102
-321.9
-322.698
-323.496
-324.294
-325.093
-325.891
-326.69
-327.489
-328.288
-329.087
-329.887
-330.686
-331.486
-332.286
-333.086
-333.886
-334.686
-335.487
-336.287
-337.088
-337.888
-338.689
-339.49
-340.291
-341.092
-341.893
-342.694
-343.496
-344.297
-345.099
-345.9
-346.702
-347.503
-348.305
-349.107
-349.908
-350.71
-351.512
-352.314
-353.115
-353.917
-354.719
-355.521
-356.323
-357.124
-357.926
-358.728
-359.53
-360.332
-361.133
-361.935
-362.736
-363.538
-364.34
-365.141
-365.942
-366.744
-367.545
-368.346
-369.147
-369.948
-370.749
-371.55
-372.351
-373.151
-373.952
-374.752
-375.552
-376.353
-377.153
-377.952
-378.752
-379.552
-380.351
-381.15
-381.95
-382.749
-383.547
-384.346
-385.144
-385.943
-386.741
-387.539
-388.336
-389.134
-389.931
-390.728
-391.525
-392.322
-393.118
-393.914
-394.71
-395.506
-396.301
-397.097
-397.892
-398.686
-399.481
-400.275
-401.069
-401.863
-402.656
-403.449
-404.242
-405.034
-405.826
-406.618
-407.41
-408.201
-408.992
-409.783
-410.573
-411.363
-412.153
-412.942
-413.731
-414.519
-415.308
-416.096
-416.883
-417.67
-418.457
-419.243
-420.029
-420.815
-421.6
-422.385
-423.17
-423.954
-424.737
-425.521
-426.304
-427.086
-427.868
-428.65
-429.432
-430.211
-430.991
-431.771
-432.55
-433.328
-434.106
-434.884
-435.661
-436.437
-437.213
-437.989
-438.764
-439.538
-440.312
-441.085
-441.858
-442.631
-443.402
-444.174
-444.944
-445.714
-446.484
-447.253
-448.022
-448.789
-449.557
-450.324
-451.09
-451.855
-452.62
-453.385
-454.149
-454.912
-455.675
-456.437
-457.198
-457.959
-458.72
-459.479
-460.238
-460.997
-461.755
-462.512
-463.269
-464.024
-464.78
-465.535
-466.289
-467.042
-467.795
-468.547
-469.298
-470.049
-470.799
-471.549
-472.297
-473.046
-473.793
-474.54
-475.286
-476.031
-476.776
-477.52
-478.263
-479.006
-479.748
-480.489
-481.229
-481.969
-482.708
-483.446
-484.184
-484.921
-485.657
-486.392
-487.127
-487.86
-488.593
-489.326
-490.057
-490.788
-491.518
-492.247
-492.976
-493.704
-494.431
-495.157
-495.882
-496.607
-497.33
-498.053
-498.776
-499.497
-500.218
-500.937
-501.656
-502.374
-503.092
-503.808
-504.524
-505.239
-505.953
-506.666
-507.378
-508.089
-508.8
-509.51
-510.219
-510.927
-511.634
-512.34
-513.046
-513.75
-514.454
-515.157
-515.859
-516.56
-517.26
-517.959
-518.658
-519.355
-520.052
-520.748
-521.443
-522.137
-522.83
-523.522
-524.213
-524.903
-525.592
-526.281
-526.968
-527.655
-528.341
-529.025
-529.709
-530.392
-531.074
-531.755
-532.435
-533.114
-533.792
-534.47
-535.146
-535.821
-536.495
-537.169
-537.841
-538.513
-539.183
-539.853
-540.521
-541.189
-541.856
-542.521
-543.186
-543.85
-544.513
-545.174
-545.835
-546.495
-547.154
-547.812
-548.469
-549.125
-549.78
-550.434
-551.088
-551.74
-552.391
-553.042
-553.691
-554.339
-554.987
-555.634
-556.28
-556.925
-557.569
-558.212
-558.854
-559.496
-560.137
-560.777
-4.5162
-4.98542
-5.19255
-5.31284
-5.36958
-5.38703
-5.39397
-5.40408
-5.42122
-5.44317
-5.46762
-5.494
-5.52221
-5.5521
-5.58354
-5.61648
-5.65092
-5.68679
-5.72412
-5.76288
-5.80309
-5.84476
-5.88787
-5.93243
-5.97843
-6.0259
-6.07483
-6.12521
-6.17705
-6.23035
-6.28511
-6.34133
-6.39901
-6.45815
-6.51875
-6.58081
-6.64433
-6.70931
-6.77575
-6.84365
-6.91301
-6.98383
-7.05611
-7.12985
-7.20505
-7.28171
-7.35983
-7.43941
-7.52045
-7.60295
-7.68691
-7.77233
-7.85921
-7.94755
-8.03735
-8.12861
-8.22134
-8.31552
-8.41116
-8.50826
-8.60682
-8.70684
-8.80832
-8.91126
-9.01566
-9.12152
-9.22884
-9.33762
-9.44786
-9.55956
-9.67272
-9.78734
-9.90341
-10.021
-10.1399
-10.2604
-10.3823
-10.5057
-10.6305
-10.7568
-10.8846
-11.0138
-11.1445
-11.2766
-11.4102
-11.5453
-11.6818
-11.8197
-11.9592
-12.1
-12.2424
-12.3862
-12.5315
-12.6782
-12.8264
-12.976
-13.1271
-13.2797
-13.4337
-13.5892
-13.7461
-13.9045
-14.0643
-14.2256
-14.3884
-14.5526
-14.7183
-14.8854
-15.054
-15.2241
-15.3956
-15.5686
-15.743
-15.9189
-16.0962
-16.275
-16.4553
-16.637
-16.8201
-17.0048
-17.1908
-17.3784
-17.5674
-17.7578
-17.9497
-18.143
-18.3378
-18.5341
-18.7318
-18.931
-19.1316
-19.3337
-19.5372
-19.7422
-19.9486
-20.1564
-20.3658
-20.5765
-20.7887
-21.0024
-21.2175
-21.434
-21.6519
-21.8713
-22.0921
-22.3143
-22.5379
-22.7628
-22.9891
-23.2166
-23.4457
-23.6778
-23.9108
-24.1455
-24.3819
-24.6198
-24.8592
-25.1002
-25.3427
-25.5868
-25.8324
-26.0796
-26.3283
-26.5785
-26.8302
-27.0834
-27.3382
-27.5945
-27.8523
-28.1116
-28.3724
-28.6347
-28.8985
-29.1638
-29.4307
-29.699
-29.9688
-30.2401
-30.5129
-30.7872
-31.063
-31.3403
-31.619
-31.8992
-32.1809
-32.4641
-32.7487
-33.0348
-33.3224
-33.6114
-33.9019
-34.1938
-34.4872
-34.7821
-35.0784
-35.3761
-35.6753
-35.976
-36.2781
-36.5816
-36.8866
-37.1931
-37.501
-37.8103
-38.1211
-38.4333
-38.7469
-39.062
-39.3786
-39.6965
-40.0159
-40.3368
-40.6591
-40.9828
-41.308
-41.6346
-41.9626
-42.2921
-42.623
-42.9553
-43.2891
-43.6243
-43.9609
-44.299
-44.6385
-44.9794
-45.3218
-45.6656
-46.0108
-46.3574
-46.7055
-47.055
-47.4059
-47.7583
-48.1121
-48.4673
-48.8239
-49.182
-49.5415
-49.9024
-50.2647
-50.6284
-50.9936
-51.3602
-51.7282
-52.0976
-52.4685
-52.8408
-53.2144
-53.5895
-53.9661
-54.344
-54.7233
-55.1041
-55.4863
-55.8699
-56.2549
-56.6413
-57.0291
-57.4184
-57.809
-58.2011
-58.5945
-58.9894
-59.3857
-59.7834
-60.1824
-60.5829
-60.9848
-61.3881
-61.7928
-62.1989
-62.6065
-63.0154
-63.4257
-63.8374
-64.2505
-64.665
-65.0808
-65.4981
-65.9168
-66.3369
-66.7583
-67.1812
-67.6054
-68.0311
-68.4581
-68.8865
-69.3163
-69.7475
-70.1801
-70.614
-71.0494
-71.4861
-71.9242
-72.3636
-72.8045
-73.2467
-73.6903
-74.1353
-74.5817
-75.0294
-75.4785
-75.929
-76.3809
-76.8341
-77.2887
-77.7446
-78.202
-78.6607
-79.1207
-79.5821
-80.0449
-80.5091
-80.9746
-81.4414
-81.9096
-82.3792
-82.8501
-83.3224
-83.796
-84.271
-84.7474
-85.2251
-85.7041
-86.1845
-86.6662
-87.1493
-87.6337
-88.1195
-88.6066
-89.0951
-89.5849
-90.0761
-90.5687
-91.0628
-91.5583
-92.0551
-92.5532
-93.0527
-93.5534
-94.0555
-94.559
-95.0637
-95.5698
-96.0772
-96.5859
-97.096
-97.6073
-98.12
-98.6339
-99.1492
-99.6658
-100.184
-100.703
-101.223
-101.745
-102.268
-102.793
-103.318
-103.845
-104.374
-104.903
-105.434
-105.966
-106.5
-107.035
-107.571
-108.108
-108.646
-109.186
-109.727
-110.27
-110.814
-111.359
-111.905
-112.452
-113.001
-113.551
-114.102
-114.655
-115.209
-115.764
-116.32
-116.878
-117.437
-117.997
-118.558
-119.121
-119.684
-120.249
-120.816
-121.383
-121.952
-122.522
-123.093
-123.666
-124.24
-124.815
-125.391
-125.968
-126.547
-127.127
-127.708
-128.29
-128.873
-129.458
-130.044
-130.631
-131.219
-131.809
-132.399
-132.991
-133.584
-134.179
-134.774
-135.371
-135.969
-136.568
-137.168
-137.769
-138.372
-138.976
-139.58
-140.187
-140.794
-141.402
-142.012
-142.622
-143.234
-143.847
-144.462
-145.077
-145.693
-146.311
-146.93
-147.55
-148.171
-148.793
-149.416
-150.041
-150.666
-151.293
-151.921
-152.55
-153.18
-153.811
-154.443
-155.077
-155.711
-156.347
-156.984
-157.621
-158.26
-158.9
-159.541
-160.183
-160.827
-161.471
-162.116
-162.763
-163.41
-164.059
-164.709
-165.36
-166.011
-166.664
-167.318
-167.973
-168.629
-169.286
-169.944
-170.603
-171.264
-171.925
-172.587
-173.25
-173.915
-174.58
-175.246
-175.913
-176.581
-177.251
-177.92
-178.592
-179.264
-179.938
-180.613
-181.289
-181.966
-182.644
-183.323
-184.004
-184.685
-185.367
-186.05
-186.735
-187.42
-188.106
-188.794
-189.482
-190.171
-190.862
-191.553
-192.245
-192.939
-193.633
-194.328
-195.024
-195.721
-196.42
-197.119
-197.819
-198.519
-199.221
-199.924
-200.628
-201.332
-202.038
-202.744
-203.452
-204.16
-204.869
-205.579
-206.29
-207.002
-207.714
-208.428
-209.142
-209.857
-210.573
-211.29
-212.008
-212.727
-213.446
-214.167
-214.888
-215.61
-216.332
-217.056
-217.781
-218.506
-219.232
-219.959
-220.686
-221.415
-222.144
-222.874
-223.605
-224.337
-225.069
-225.802
-226.536
-227.271
-228.006
-228.742
-229.479
-230.217
-230.956
-231.695
-232.435
-233.175
-233.917
-234.659
-235.402
-236.145
-236.89
-237.635
-238.38
-239.127
-239.874
-240.622
-241.37
-242.119
-242.869
-243.62
-244.371
-245.123
-245.875
-246.629
-247.382
-248.137
-248.892
-249.648
-250.404
-251.161
-251.919
-252.678
-253.437
-254.196
-254.956
-255.717
-256.479
-257.241
-258.003
-258.766
-259.53
-260.295
-261.06
-261.825
-262.591
-263.358
-264.125
-264.893
-265.662
-266.43
-267.2
-267.97
-268.741
-269.512
-270.283
-271.055
-271.828
-272.601
-273.375
-274.149
-274.924
-275.699
-276.475
-277.251
-278.028
-278.805
-279.582
-280.36
-281.139
-281.918
-282.698
-283.477
-284.258
-285.039
-285.82
-286.602
-287.384
-288.166
-288.949
-289.733
-290.517
-291.301
-292.085
-292.87
-293.656
-294.442
-295.228
-296.014
-296.801
-297.589
-298.376
-299.165
-299.953
-300.742
-301.531
-302.32
-303.11
-303.9
-304.691
-305.481
-306.273
-307.064
-307.856
-308.648
-309.44
-310.233
-311.026
-311.819
-312.612
-313.406
-314.2
-314.995
-315.789
-316.584
-317.379
-318.175
-318.97
-319.766
-320.562
-321.359
-322.155
-322.952
-323.749
-324.546
-325.344
-326.142
-326.939
-327.737
-328.536
-329.334
-330.133
-330.931
-331.73
-332.529
-333.329
-334.128
-334.928
-335.727
-336.527
-337.327
-338.127
-338.928
-339.728
-340.529
-341.329
-342.13
-342.931
-343.732
-344.533
-345.334
-346.135
-346.936
-347.737
-348.539
-349.34
-350.142
-350.943
-351.745
-352.546
-353.348
-354.15
-354.952
-355.753
-356.555
-357.357
-358.159
-358.961
-359.762
-360.564
-361.366
-362.168
-362.97
-363.771
-364.573
-365.375
-366.176
-366.978
-367.78
-368.581
-369.383
-370.184
-370.985
-371.787
-372.588
-373.389
-374.19
-374.991
-375.792
-376.592
-377.393
-378.193
-378.994
-379.794
-380.594
-381.394
-382.194
-382.994
-383.793
-384.593
-385.392
-386.191
-386.99
-387.789
-388.588
-389.386
-390.184
-390.982
-391.78
-392.578
-393.376
-394.173
-394.97
-395.767
-396.563
-397.36
-398.156
-398.952
-399.748
-400.543
-401.338
-402.133
-402.928
-403.723
-404.517
-405.311
-406.104
-406.898
-407.691
-408.483
-409.276
-410.068
-410.86
-411.652
-412.443
-413.234
-414.024
-414.815
-415.605
-416.394
-417.184
-417.973
-418.761
-419.549
-420.337
-421.125
-421.912
-422.699
-423.485
-424.271
-425.057
-425.842
-426.627
-427.411
-428.195
-428.979
-429.762
-430.545
-431.328
-432.11
-432.892
-433.673
-434.453
-435.233
-436.013
-436.792
-437.57
-438.348
-439.126
-439.903
-440.679
-441.455
-442.231
-443.005
-443.78
-444.554
-445.327
-446.1
-446.872
-447.644
-448.415
-449.186
-449.956
-450.726
-451.495
-452.263
-453.031
-453.799
-454.565
-455.332
-456.097
-456.862
-457.627
-458.391
-459.154
-459.917
-460.679
-461.44
-462.201
-462.961
-463.721
-464.48
-465.239
-465.997
-466.754
-467.51
-468.266
-469.022
-469.776
-470.53
-471.284
-472.037
-472.789
-473.54
-474.291
-475.041
-475.791
-476.539
-477.287
-478.035
-478.782
-479.528
-480.273
-481.018
-481.762
-482.505
-483.248
-483.989
-484.731
-485.471
-486.211
-486.95
-487.688
-488.426
-489.162
-489.899
-490.634
-491.368
-492.102
-492.835
-493.568
-494.299
-495.03
-495.76
-496.489
-497.218
-497.946
-498.672
-499.399
-500.124
-500.849
-501.572
-502.295
-503.018
-503.739
-504.459
-505.179
-505.898
-506.616
-507.334
-508.05
-508.766
-509.48
-510.194
-510.908
-511.62
-512.331
-513.042
-513.752
-514.461
-515.169
-515.876
-516.582
-517.288
-517.992
-518.696
-519.399
-520.101
-520.802
-521.502
-522.201
-522.9
-523.597
-524.294
-524.99
-525.685
-526.378
-527.071
-527.764
-528.455
-529.145
-529.834
-530.523
-531.21
-531.897
-532.583
-533.267
-533.951
-534.634
-535.316
-535.997
-536.677
-537.356
-538.034
-538.712
-539.388
-540.063
-540.737
-541.411
-542.083
-542.755
-543.425
-544.095
-544.763
-545.431
-546.098
-546.763
-547.428
-548.092
-548.755
-549.416
-550.077
-550.737
-551.396
-552.054
-552.711
-553.367
-554.022
-554.676
-555.33
-555.982
-556.633
-557.283
-557.933
-558.581
-559.229
-559.876
-560.522
-561.166
-561.811
-562.454
-563.096
-563.738
-564.379
-565.019
-8.85727
-9.2235
-9.40935
-9.52512
-9.5904
-9.61608
-9.6271
-9.63978
-9.65853
-9.68106
-9.70571
-9.73225
-9.76061
-9.79061
-9.82212
-9.85512
-9.88961
-9.92557
-9.96294
-10.0017
-10.042
-10.0836
-10.1266
-10.1712
-10.2172
-10.2646
-10.3135
-10.3639
-10.4157
-10.469
-10.5238
-10.58
-10.6377
-10.6968
-10.7574
-10.8195
-10.883
-10.948
-11.0144
-11.0823
-11.1517
-11.2225
-11.2948
-11.3685
-11.4437
-11.5204
-11.5985
-11.6781
-11.7591
-11.8416
-11.9256
-12.011
-12.0979
-12.1862
-12.276
-12.3673
-12.46
-12.5542
-12.6498
-12.7469
-12.8455
-12.9455
-13.047
-13.1499
-13.2543
-13.3602
-13.4675
-13.5763
-13.6865
-13.7982
-13.9114
-14.026
-14.1421
-14.2596
-14.3786
-14.4991
-14.621
-14.7444
-14.8692
-14.9955
-15.1233
-15.2525
-15.3831
-15.5153
-15.6489
-15.7839
-15.9204
-16.0584
-16.1978
-16.3387
-16.4811
-16.6249
-16.7701
-16.9168
-17.065
-17.2147
-17.3658
-17.5183
-17.6723
-17.8278
-17.9847
-18.1431
-18.303
-18.4643
-18.6271
-18.7913
-18.957
-19.1241
-19.2927
-19.4627
-19.6343
-19.8072
-19.9817
-20.1575
-20.3349
-20.5137
-20.6939
-20.8756
-21.0588
-21.2434
-21.4295
-21.617
-21.806
-21.9964
-22.1883
-22.3817
-22.5765
-22.7727
-22.9705
-23.1696
-23.3702
-23.5723
-23.7758
-23.9808
-24.1872
-24.3951
-24.6044
-24.8152
-25.0274
-25.241
-25.4561
-25.6726
-25.8906
-26.11
-26.3308
-26.5529
-26.7765
-27.0015
-27.2277
-27.4555
-27.6848
-27.9158
-28.1494
-28.3841
-28.6204
-28.8583
-29.0978
-29.3388
-29.5813
-29.8254
-30.071
-30.3182
-30.5669
-30.8171
-31.0688
-31.322
-31.5768
-31.8331
-32.0908
-32.3501
-32.611
-32.8733
-33.1371
-33.4024
-33.6692
-33.9376
-34.2074
-34.4787
-34.7515
-35.0258
-35.3016
-35.5788
-35.8576
-36.1378
-36.4195
-36.7027
-36.9873
-37.2734
-37.5609
-37.85
-38.1405
-38.4324
-38.7258
-39.0206
-39.3169
-39.6147
-39.9139
-40.2146
-40.5167
-40.8202
-41.1252
-41.4316
-41.7395
-42.0489
-42.3596
-42.6718
-42.9855
-43.3006
-43.6171
-43.9351
-44.2545
-44.5753
-44.8976
-45.2214
-45.5465
-45.8731
-46.2011
-46.5306
-46.8615
-47.1938
-47.5276
-47.8628
-48.1995
-48.5375
-48.877
-49.2179
-49.5603
-49.9041
-50.2493
-50.596
-50.944
-51.2935
-51.6445
-51.9968
-52.3506
-52.7058
-53.0624
-53.4205
-53.78
-54.1409
-54.5032
-54.8669
-55.2321
-55.5987
-55.9667
-56.3361
-56.707
-57.0793
-57.4529
-57.828
-58.2046
-58.5825
-58.9618
-59.3426
-59.7248
-60.1084
-60.4934
-60.8798
-61.2676
-61.6568
-62.0475
-62.4395
-62.833
-63.2279
-63.6242
-64.0218
-64.4209
-64.8214
-65.2233
-65.6266
-66.0313
-66.4374
-66.8449
-67.2538
-67.6641
-68.0758
-68.4889
-68.9034
-69.3193
-69.7366
-70.1553
-70.5753
-70.9968
-71.4196
-71.8439
-72.2695
-72.6965
-73.125
-73.5548
-73.9859
-74.4185
-74.8525
-75.2878
-75.7245
-76.1626
-76.6021
-77.0429
-77.4852
-77.9288
-78.3738
-78.8201
-79.2679
-79.717
-80.1674
-80.6193
-81.0725
-81.5271
-81.9831
-82.4404
-82.8991
-83.3591
-83.8205
-84.2833
-84.7474
-85.2129
-85.6798
-86.148
-86.6176
-87.0885
-87.5608
-88.0344
-88.5094
-88.9858
-89.4634
-89.9425
-90.4229
-90.9046
-91.3877
-91.8721
-92.3579
-92.845
-93.3334
-93.8232
-94.3144
-94.8071
-95.3012
-95.7966
-96.2934
-96.7915
-97.291
-97.7918
-98.2939
-98.7973
-99.3021
-99.8082
-100.316
-100.824
-101.334
-101.846
-102.358
-102.872
-103.388
-103.904
-104.422
-104.941
-105.462
-105.984
-106.507
-107.031
-107.557
-108.084
-108.612
-109.142
-109.672
-110.205
-110.738
-111.273
-111.809
-112.346
-112.885
-113.425
-113.966
-114.508
-115.052
-115.597
-116.143
-116.691
-117.239
-117.789
-118.341
-118.893
-119.447
-120.002
-120.558
-121.116
-121.675
-122.235
-122.796
-123.359
-123.923
-124.488
-125.054
-125.622
-126.19
-126.76
-127.332
-127.904
-128.478
-129.053
-129.629
-130.206
-130.785
-131.365
-131.946
-132.528
-133.112
-133.696
-134.282
-134.869
-135.458
-136.047
-136.638
-137.23
-137.823
-138.417
-139.012
-139.609
-140.207
-140.806
-141.406
-142.007
-142.61
-143.214
-143.819
-144.425
-145.032
-145.64
-146.25
-146.861
-147.473
-148.086
-148.7
-149.315
-149.932
-150.549
-151.168
-151.788
-152.409
-153.031
-153.654
-154.279
-154.905
-155.531
-156.159
-156.788
-157.418
-158.049
-158.682
-159.315
-159.949
-160.585
-161.222
-161.86
-162.498
-163.138
-163.779
-164.422
-165.065
-165.709
-166.355
-167.001
-167.649
-168.297
-168.947
-169.598
-170.25
-170.902
-171.556
-172.211
-172.867
-173.524
-174.183
-174.842
-175.502
-176.163
-176.825
-177.489
-178.153
-178.818
-179.484
-180.151
-180.82
-181.489
-182.159
-182.83
-183.503
-184.176
-184.851
-185.527
-186.204
-186.882
-187.562
-188.242
-188.923
-189.605
-190.289
-190.973
-191.658
-192.345
-193.032
-193.72
-194.41
-195.1
-195.791
-196.484
-197.177
-197.871
-198.566
-199.262
-199.96
-200.658
-201.357
-202.057
-202.758
-203.459
-204.162
-204.866
-205.57
-206.276
-206.982
-207.69
-208.398
-209.107
-209.817
-210.528
-211.24
-211.952
-212.666
-213.38
-214.095
-214.812
-215.528
-216.246
-216.965
-217.684
-218.405
-219.126
-219.848
-220.571
-221.294
-222.019
-222.744
-223.47
-224.197
-224.924
-225.653
-226.382
-227.112
-227.843
-228.575
-229.307
-230.04
-230.774
-231.509
-232.244
-232.98
-233.717
-234.455
-235.194
-235.933
-236.673
-237.413
-238.155
-238.897
-239.64
-240.383
-241.128
-241.873
-242.618
-243.365
-244.112
-244.86
-245.608
-246.357
-247.107
-247.858
-248.609
-249.361
-250.113
-250.867
-251.621
-252.375
-253.13
-253.886
-254.643
-255.4
-256.157
-256.916
-257.675
-258.434
-259.194
-259.955
-260.717
-261.479
-262.241
-263.005
-263.768
-264.533
-265.298
-266.063
-266.829
-267.596
-268.363
-269.131
-269.9
-270.669
-271.438
-272.208
-272.979
-273.75
-274.521
-275.293
-276.066
-276.839
-277.613
-278.387
-279.162
-279.937
-280.713
-281.489
-282.266
-283.043
-283.82
-284.599
-285.377
-286.156
-286.936
-287.716
-288.496
-289.277
-290.058
-290.84
-291.622
-292.404
-293.187
-293.971
-294.755
-295.539
-296.323
-297.109
-297.894
-298.68
-299.466
-300.253
-301.039
-301.827
-302.615
-303.403
-304.191
-304.98
-305.769
-306.558
-307.348
-308.138
-308.929
-309.719
-310.511
-311.302
-312.094
-312.886
-313.678
-314.471
-315.264
-316.057
-316.85
-317.644
-318.438
-319.233
-320.027
-320.822
-321.617
-322.413
-323.208
-324.004
-324.8
-325.597
-326.393
-327.19
-327.987
-328.784
-329.582
-330.38
-331.177
-331.975
-332.774
-333.572
-334.371
-335.169
-335.968
-336.767
-337.567
-338.366
-339.166
-339.965
-340.765
-341.565
-342.365
-343.166
-343.966
-344.766
-345.567
-346.368
-347.169
-347.969
-348.77
-349.572
-350.373
-351.174
-351.975
-352.777
-353.578
-354.38
-355.181
-355.983
-356.784
-357.586
-358.388
-359.19
-359.991
-360.793
-361.595
-362.397
-363.199
-364
-364.802
-365.604
-366.406
-367.208
-368.009
-368.811
-369.613
-370.414
-371.216
-372.017
-372.819
-373.62
-374.422
-375.223
-376.024
-376.826
-377.627
-378.428
-379.229
-380.029
-380.83
-381.631
-382.431
-383.232
-384.032
-384.832
-385.632
-386.432
-387.232
-388.031
-388.831
-389.63
-390.429
-391.228
-392.027
-392.825
-393.624
-394.422
-395.22
-396.018
-396.816
-397.613
-398.411
-399.208
-400.005
-400.801
-401.598
-402.394
-403.19
-403.986
-404.781
-405.576
-406.371
-407.166
-407.96
-408.755
-409.548
-410.342
-411.135
-411.928
-412.721
-413.514
-414.306
-415.098
-415.889
-416.681
-417.472
-418.262
-419.053
-419.842
-420.632
-421.421
-422.21
-422.999
-423.787
-424.575
-425.363
-426.15
-426.937
-427.723
-428.509
-429.295
-430.08
-430.865
-431.649
-432.433
-433.217
-434
-434.783
-435.566
-436.348
-437.129
-437.911
-438.691
-439.471
-440.25
-441.029
-441.808
-442.586
-443.363
-444.14
-444.917
-445.693
-446.468
-447.243
-448.018
-448.792
-449.565
-450.338
-451.11
-451.882
-452.653
-453.424
-454.194
-454.964
-455.733
-456.501
-457.269
-458.036
-458.803
-459.569
-460.335
-461.1
-461.864
-462.628
-463.392
-464.154
-464.916
-465.678
-466.439
-467.199
-467.959
-468.718
-469.476
-470.234
-470.991
-471.748
-472.504
-473.259
-474.014
-474.768
-475.522
-476.274
-477.026
-477.778
-478.529
-479.279
-480.028
-480.777
-481.525
-482.273
-483.019
-483.765
-484.511
-485.255
-485.999
-486.743
-487.485
-488.227
-488.968
-489.709
-490.448
-491.187
-491.926
-492.663
-493.4
-494.136
-494.872
-495.606
-496.34
-497.073
-497.805
-498.537
-499.268
-499.998
-500.727
-501.455
-502.183
-502.91
-503.636
-504.362
-505.086
-505.81
-506.533
-507.255
-507.977
-508.697
-509.417
-510.136
-510.854
-511.571
-512.288
-513.003
-513.718
-514.432
-515.145
-515.858
-516.569
-517.28
-517.989
-518.698
-519.406
-520.114
-520.82
-521.525
-522.23
-522.934
-523.636
-524.338
-525.039
-525.74
-526.439
-527.137
-527.835
-528.532
-529.227
-529.922
-530.616
-531.309
-532.001
-532.692
-533.383
-534.072
-534.761
-535.448
-536.135
-536.82
-537.505
-538.189
-538.872
-539.554
-540.235
-540.915
-541.594
-542.272
-542.949
-543.625
-544.301
-544.975
-545.648
-546.321
-546.992
-547.663
-548.332
-549.001
-549.669
-550.335
-551.001
-551.666
-552.329
-552.992
-553.654
-554.315
-554.975
-555.634
-556.292
-556.949
-557.605
-558.26
-558.914
-559.567
-560.219
-560.871
-561.521
-562.171
-562.819
-563.467
-564.113
-564.759
-565.404
-566.048
-566.692
-567.334
-567.976
-568.617
-569.257
-13.2078
-13.4841
-13.6414
-13.7431
-13.8102
-13.8426
-13.8581
-13.874
-13.8947
-13.9181
-13.943
-13.9697
-13.9983
-14.0283
-14.0599
-14.0929
-14.1273
-14.1632
-14.2005
-14.2393
-14.2795
-14.3212
-14.3644
-14.409
-14.455
-14.5025
-14.5514
-14.6018
-14.6537
-14.707
-14.7617
-14.8179
-14.8756
-14.9348
-14.9954
-15.0574
-15.121
-15.1859
-15.2524
-15.3203
-15.3896
-15.4605
-15.5327
-15.6065
-15.6817
-15.7583
-15.8365
-15.916
-15.9971
-16.0796
-16.1635
-16.249
-16.3358
-16.4242
-16.514
-16.6052
-16.698
-16.7921
-16.8878
-16.9849
-17.0834
-17.1835
-17.2849
-17.3879
-17.4923
-17.5981
-17.7055
-17.8142
-17.9245
-18.0362
-18.1493
-18.264
-18.38
-18.4976
-18.6166
-18.737
-18.8589
-18.9823
-19.1072
-19.2335
-19.3612
-19.4904
-19.6211
-19.7532
-19.8868
-20.0219
-20.1584
-20.2963
-20.4358
-20.5767
-20.719
-20.8628
-21.0081
-21.1548
-21.303
-21.4526
-21.6037
-21.7563
-21.9103
-22.0658
-22.2227
-22.3811
-22.5409
-22.7023
-22.865
-23.0292
-23.1949
-23.3621
-23.5307
-23.7007
-23.8722
-24.0452
-24.2196
-24.3955
-24.5728
-24.7516
-24.9319
-25.1136
-25.2967
-25.4814
-25.6674
-25.855
-26.044
-26.2344
-26.4263
-26.6196
-26.8144
-27.0107
-27.2084
-27.4076
-27.6082
-27.8103
-28.0138
-28.2187
-28.4252
-28.633
-28.8424
-29.0531
-29.2653
-29.479
-29.6941
-29.9106
-30.1286
-30.3479
-30.5687
-30.7909
-31.0145
-31.2395
-31.4659
-31.6936
-31.9231
-32.154
-32.3873
-32.622
-32.8584
-33.0963
-33.3357
-33.5767
-33.8193
-34.0634
-34.309
-34.5561
-34.8048
-35.055
-35.3067
-35.56
-35.8147
-36.071
-36.3288
-36.5881
-36.8489
-37.1112
-37.375
-37.6404
-37.9072
-38.1755
-38.4453
-38.7167
-38.9895
-39.2638
-39.5395
-39.8168
-40.0955
-40.3758
-40.6574
-40.9406
-41.2252
-41.5113
-41.7989
-42.0879
-42.3784
-42.6704
-42.9638
-43.2586
-43.5549
-43.8527
-44.1519
-44.4525
-44.7546
-45.0582
-45.3632
-45.6696
-45.9775
-46.2868
-46.5976
-46.9098
-47.2234
-47.5385
-47.8551
-48.173
-48.4925
-48.8133
-49.1356
-49.4593
-49.7845
-50.1111
-50.4391
-50.7686
-51.0995
-51.4318
-51.7656
-52.1008
-52.4374
-52.7755
-53.115
-53.4559
-53.7983
-54.1421
-54.4873
-54.8339
-55.182
-55.5315
-55.8824
-56.2348
-56.5886
-56.9438
-57.3004
-57.6585
-58.0179
-58.3788
-58.7412
-59.1049
-59.4701
-59.8367
-60.2047
-60.5741
-60.945
-61.3172
-61.6909
-62.066
-62.4425
-62.8205
-63.1998
-63.5806
-63.9627
-64.3463
-64.7313
-65.1178
-65.5056
-65.8948
-66.2855
-66.6775
-67.071
-67.4658
-67.8621
-68.2598
-68.6589
-69.0594
-69.4613
-69.8646
-70.2693
-70.6754
-71.0829
-71.4918
-71.9021
-72.3138