/*--------------------------------*- C++ -*----------------------------------*\
| =========                 |                                                 |
| \\      /  F ield         | OpenFOAM: The Open Source CFD Toolbox           |
|  \\    /   O peration     | Version:  2512                                  |
|   \\  /    A nd           | Website:  www.openfoam.com                      |
|    \\/     M anipulation  |                                                 |
\*---------------------------------------------------------------------------*/
FoamFile
{
    version     2.0;
    format      ascii;
    arch        "LSB;label=32;scalar=64";
    class       volScalarField;
    location    "0.1";
    object      p_rgh;
}
// * * * * * * * * * * * * * * * * * * * * * * * * * * * * * * * * * * * * * //

dimensions      [1 -1 -2 0 0 0 0];

internalField   nonuniform List<scalar> 
100000
(
75103
75102.2
75101.9
75101.7
75101.6
75101.6
75101.6
75101.6
75101.6
75101.5
75101.5
75101.5
75101.5
75101.4
75101.4
75101.4
75101.3
75101.3
75101.3
75101.2
75101.2
75101.1
75101.1
75101
75101
75101
75100.9
75100.9
75100.8
75100.7
75100.7
75100.6
75100.6
75100.5
75100.5
75100.4
75100.3
75100.3
75100.2
75100.1
75100.1
75100
75099.9
75099.9
75099.8
75099.7
75099.6
75099.5
75099.5
75099.4
75099.3
75099.2
75099.1
75099
75098.9
75098.9
75098.8
75098.7
75098.6
75098.5
75098.4
75098.3
75098.2
75098.1
75098
75097.9
75097.8
75097.6
75097.5
75097.4
75097.3
75097.2
75097.1
75097
75096.8
75096.7
75096.6
75096.5
75096.3
75096.2
75096.1
75096
75095.8
75095.7
75095.6
75095.4
75095.3
75095.2
75095
75094.9
75094.7
75094.6
75094.4
75094.3
75094.2
75094
75093.9
75093.7
75093.5
75093.4
75093.2
75093.1
75092.9
75092.8
75092.6
75092.4
75092.3
75092.1
75091.9
75091.8
75091.6
75091.4
75091.2
75091.1
75090.9
75090.7
75090.5
75090.3
75090.2
75090
75089.8
75089.6
75089.4
75089.2
75089
75088.8
75088.6
75088.4
75088.2
75088
75087.8
75087.6
75087.4
75087.2
75087
75086.8
75086.6
75086.4
75086.2
75086
75085.8
75085.5
75085.3
75085.1
75084.9
75084.7
75084.4
75084.2
75084
75083.8
75083.5
75083.3
75083.1
75082.8
75082.6
75082.4
75082.1
75081.9
75081.6
75081.4
75081.1
75080.9
75080.7
75080.4
75080.1
75079.9
75079.6
75079.4
75079.1
75078.9
75078.6
75078.3
75078.1
75077.8
75077.5
75077.3
75077
75076.7
75076.5
75076.2
75075.9
75075.6
75075.4
75075.1
75074.8
75074.5
75074.2
75073.9
75073.7
75073.4
75073.1
75072.8
75072.5
75072.2
75071.9
75071.6
75071.3
75071
75070.7
75070.4
75070.1
75069.8
75069.5
75069.2
75068.9
75068.5
75068.2
75067.9
75067.6
75067.3
75067
75066.6
75066.3
75066
75065.7
75065.3
75065
75064.7
75064.4
75064
75063.7
75063.4
75063
75062.7
75062.3
75062
75061.7
75061.3
75061
75060.6
75060.3
75059.9
75059.6
75059.2
75058.9
75058.5
75058.2
75057.8
75057.4
75057.1
75056.7
75056.4
75056
75055.6
75055.3
75054.9
75054.5
75054.1
75053.8
75053.4
75053
75052.6
75052.3
75051.9
75051.5
75051.1
75050.7
75050.3
75050
75049.6
75049.2
75048.8
75048.4
75048
75047.6
75047.2
75046.8
75046.4
75046
75045.6
75045.2
75044.8
75044.4
75044
75043.6
75043.1
75042.7
75042.3
75041.9
75041.5
75041.1
75040.6
75040.2
75039.8
75039.4
75038.9
75038.5
75038.1
75037.7
75037.2
75036.8
75036.4
75035.9
75035.5
75035.1
75034.6
75034.2
75033.7
75033.3
75032.8
75032.4
75032
75031.5
75031.1
75030.6
75030.1
75029.7
75029.2
75028.8
75028.3
75027.9
75027.4
75026.9
75026.5
75026
75025.5
75025.1
75024.6
75024.1
75023.7
75023.2
75022.7
75022.2
75021.8
75021.3
75020.8
75020.3
75019.8
75019.3
75018.9
75018.4
75017.9
75017.4
75016.9
75016.4
75015.9
75015.4
75014.9
75014.4
75013.9
75013.4
75012.9
75012.4
75011.9
75011.4
75010.9
75010.4
75009.9
75009.4
75008.9
75008.3
75007.8
75007.3
75006.8
75006.3
75005.8
75005.2
75004.7
75004.2
75003.7
75003.1
75002.6
75002.1
75001.5
75001
75000.5
74999.9
74999.4
74998.9
74998.3
74997.8
74997.3
74996.7
74996.2
74995.6
74995.1
74994.5
74994
74993.4
74992.9
74992.3
74991.8
74991.2
74990.7
74990.1
74989.5
74989
74988.4
74987.9
74987.3
74986.7
74986.2
74985.6
74985
74984.5
74983.9
74983.3
74982.7
74982.2
74981.6
74981
74980.4
74979.9
74979.3
74978.7
74978.1
74977.5
74976.9
74976.3
74975.8
74975.2
74974.6
74974
74973.4
74972.8
74972.2
74971.6
74971
74970.4
74969.8
74969.2
74968.6
74968
74967.4
74966.8
74966.2
74965.6
74965
74964.4
74963.7
74963.1
74962.5
74961.9
74961.3
74960.7
74960.1
74959.4
74958.8
74958.2
74957.6
74956.9
74956.3
74955.7
74955.1
74954.4
74953.8
74953.2
74952.5
74951.9
74951.3
74950.6
74950
74949.4
74948.7
74948.1
74947.4
74946.8
74946.2
74945.5
74944.9
74944.2
74943.6
74942.9
74942.3
74941.6
74941
74940.3
74939.7
74939
74938.4
74937.7
74937
74936.4
74935.7
74935.1
74934.4
74933.7
74933.1
74932.4
74931.7
74931.1
74930.4
74929.7
74929.1
74928.4
74927.7
74927
74926.4
74925.7
74925
74924.3
74923.7
74923
74922.3
74921.6
74920.9
74920.2
74919.6
74918.9
74918.2
74917.5
74916.8
74916.1
74915.4
74914.7
74914
74913.3
74912.7
74912
74911.3
74910.6
74909.9
74909.2
74908.5
74907.8
74907.1
74906.4
74905.6
74904.9
74904.2
74903.5
74902.8
74902.1
74901.4
74900.7
74900
74899.3
74898.6
74897.8
74897.1
74896.4
74895.7
74895
74894.3
74893.5
74892.8
74892.1
74891.4
74890.6
74889.9
74889.2
74888.5
74887.7
74887
74886.3
74885.6
74884.8
74884.1
74883.4
74882.6
74881.9
74881.2
74880.4
74879.7
74879
74878.2
74877.5
74876.8
74876
74875.3
74874.5
74873.8
74873.1
74872.3
74871.6
74870.8
74870.1
74869.3
74868.6
74867.9
74867.1
74866.4
74865.6
74864.9
74864.1
74863.4
74862.6
74861.9
74861.1
74860.4
74859.6
74858.8
74858.1
74857.3
74856.6
74855.8
74855.1
74854.3
74853.5
74852.8
74852
74851.3
74850.5
74849.7
74849
74848.2
74847.5
74846.7
74845.9
74845.2
74844.4
74843.6
74842.9
74842.1
74841.3
74840.6
74839.8
74839
74838.2
74837.5
74836.7
74835.9
74835.2
74834.4
74833.6
74832.8
74832.1
74831.3
74830.5
74829.7
74829
74828.2
74827.4
74826.6
74825.8
74825.1
74824.3
74823.5
74822.7
74821.9
74821.2
74820.4
74819.6
74818.8
74818
74817.2
74816.5
74815.7
74814.9
74814.1
74813.3
74812.5
74811.8
74811
74810.2
74809.4
74808.6
74807.8
74807
74806.2
74805.4
74804.7
74803.9
74803.1
74802.3
74801.5
74800.7
74799.9
74799.1
74798.3
74797.5
74796.7
74796
74795.2
74794.4
74793.6
74792.8
74792
74791.2
74790.4
74789.6
74788.8
74788
74787.2
74786.4
74785.6
74784.8
74784
74783.2
74782.4
74781.6
74780.8
74780
74779.2
74778.4
74777.6
74776.8
74776
74775.3
74774.5
74773.7
74772.9
74772.1
74771.3
74770.5
74769.7
74768.9
74768.1
74767.3
74766.5
74765.7
74764.9
74764.1
74763.2
74762.4
74761.6
74760.8
74760
74759.2
74758.4
74757.6
74756.8
74756
74755.2
74754.4
74753.6
74752.8
74752
74751.2
74750.4
74749.6
74748.8
74748
74747.2
74746.4
74745.6
74744.8
74744
74743.2
74742.4
74741.6
74740.8
74740
74739.2
74738.4
74737.6
74736.8
74736
74735.2
74734.4
74733.6
74732.8
74732
74731.2
74730.4
74729.6
74728.8
74728
74727.2
74726.4
74725.6
74724.8
74724
74723.2
74722.4
74721.6
74720.8
74720
74719.2
74718.4
74717.6
74716.8
74716
74715.2
74714.4
74713.6
74712.8
74712
74711.2
74710.4
74709.6
74708.8
74708
74707.2
74706.4
74705.6
74704.8
74704.1
74703.3
74702.5
74701.7
74700.9
74700.1
74699.3
74698.5
74697.7
74696.9
74696.1
74695.3
74694.5
74693.7
74693
74692.2
74691.4
74690.6
74689.8
74689
74688.2
74687.4
74686.6
74685.9
74685.1
74684.3
74683.5
74682.7
74681.9
74681.1
74680.4
74679.6
74678.8
74678
74677.2
74676.4
74675.7
74674.9
74674.1
74673.3
74672.5
74671.7
74671
74670.2
74669.4
74668.6
74667.9
74667.1
74666.3
74665.5
74664.8
74664
74663.2
74662.4
74661.7
74660.9
74660.1
74659.3
74658.6
74657.8
74657
74656.3
74655.5
74654.7
74653.9
74653.2
74652.4
74651.6
74650.9
74650.1
74649.4
74648.6
74647.8
74647.1
74646.3
74645.5
74644.8
74644
74643.3
74642.5
74641.7
74641
74640.2
74639.5
74638.7
74638
74637.2
74636.5
74635.7
74634.9
74634.2
74633.4
74632.7
74631.9
74631.2
74630.4
74629.7
74628.9
74628.2
74627.5
74626.7
74626
74625.2
74624.5
74623.7
74623
74622.3
74621.5
74620.8
74620
74619.3
74618.6
74617.8
74617.1
74616.3
74615.6
74614.9
74614.1
74613.4
74612.7
74612
74611.2
74610.5
74609.8
74609
74608.3
74607.6
74606.9
74606.1
74605.4
74604.7
74604
74603.2
74602.5
74601.8
74601.1
74600.4
74599.6
74598.9
74598.2
74597.5
74596.8
74596.1
74595.4
74594.6
74593.9
74593.2
74592.5
74591.8
74591.1
74590.4
74589.7
74589
74588.3
74587.6
74586.9
74586.2
74585.5
74584.8
74584.1
74583.4
74582.7
74582
74581.3
74580.6
74579.9
74579.2
74578.5
74577.8
74577.1
74576.5
74575.8
74575.1
74574.4
74573.7
74573
74572.3
74571.7
74571
74570.3
74569.6
74568.9
74568.3
74567.6
74566.9
74566.2
74565.6
74564.9
74564.2
74563.6
74562.9
74562.2
74561.6
74560.9
74560.2
74559.6
74558.9
74558.2
74557.6
74556.9
74556.2
74555.6
74554.9
74554.3
74553.6
74553
74552.3
74551.7
74551
74550.3
74549.7
74549
74548.4
74547.8
74547.1
74546.5
74545.8
74545.2
74544.5
74543.9
74543.2
74542.6
74542
75102.8
75102.3
75102.1
75101.9
75101.9
75101.9
75101.9
75101.9
75101.9
75101.8
75101.8
75101.8
75101.8
75101.7
75101.7
75101.7
75101.6
75101.6
75101.5
75101.5
75101.5
75101.4
75101.4
75101.3
75101.3
75101.2
75101.2
75101.1
75101.1
75101
75101
75100.9
75100.9
75100.8
75100.8
75100.7
75100.6
75100.6
75100.5
75100.4
75100.4
75100.3
75100.2
75100.1
75100.1
75100
75099.9
75099.8
75099.8
75099.7
75099.6
75099.5
75099.4
75099.3
75099.2
75099.1
75099.1
75099
75098.9
75098.8
75098.7
75098.6
75098.5
75098.4
75098.3
75098.2
75098
75097.9
75097.8
75097.7
75097.6
75097.5
75097.4
75097.3
75097.1
75097
75096.9
75096.8
75096.6
75096.5
75096.4
75096.3
75096.1
75096
75095.9
75095.7
75095.6
75095.5
75095.3
75095.2
75095
75094.9
75094.7
75094.6
75094.4
75094.3
75094.1
75094
75093.8
75093.7
75093.5
75093.4
75093.2
75093
75092.9
75092.7
75092.6
75092.4
75092.2
75092
75091.9
75091.7
75091.5
75091.4
75091.2
75091
75090.8
75090.6
75090.5
75090.3
75090.1
75089.9
75089.7
75089.5
75089.3
75089.1
75088.9
75088.7
75088.5
75088.3
75088.1
75087.9
75087.7
75087.5
75087.3
75087.1
75086.9
75086.7
75086.5
75086.3
75086.1
75085.8
75085.6
75085.4
75085.2
75085
75084.7
75084.5
75084.3
75084.1
75083.8
75083.6
75083.4
75083.1
75082.9
75082.7
75082.4
75082.2
75081.9
75081.7
75081.4
75081.2
75080.9
75080.7
75080.4
75080.2
75079.9
75079.7
75079.4
75079.2
75078.9
75078.6
75078.4
75078.1
75077.8
75077.6
75077.3
75077
75076.8
75076.5
75076.2
75075.9
75075.7
75075.4
75075.1
75074.8
75074.5
75074.2
75074
75073.7
75073.4
75073.1
75072.8
75072.5
75072.2
75071.9
75071.6
75071.3
75071
75070.7
75070.4
75070.1
75069.8
75069.5
75069.2
75068.8
75068.5
75068.2
75067.9
75067.6
75067.3
75066.9
75066.6
75066.3
75066
75065.6
75065.3
75065
75064.7
75064.3
75064
75063.6
75063.3
75063
75062.6
75062.3
75062
75061.6
75061.3
75060.9
75060.6
75060.2
75059.9
75059.5
75059.2
75058.8
75058.4
75058.1
75057.7
75057.4
75057
75056.6
75056.3
75055.9
75055.5
75055.2
75054.8
75054.4
75054.1
75053.7
75053.3
75052.9
75052.6
75052.2
75051.8
75051.4
75051
75050.6
75050.2
75049.9
75049.5
75049.1
75048.7
75048.3
75047.9
75047.5
75047.1
75046.7
75046.3
75045.9
75045.5
75045.1
75044.7
75044.3
75043.8
75043.4
75043
75042.6
75042.2
75041.8
75041.4
75040.9
75040.5
75040.1
75039.7
75039.2
75038.8
75038.4
75038
75037.5
75037.1
75036.7
75036.2
75035.8
75035.3
75034.9
75034.5
75034
75033.6
75033.1
75032.7
75032.2
75031.8
75031.3
75030.9
75030.4
75030
75029.5
75029.1
75028.6
75028.2
75027.7
75027.2
75026.8
75026.3
75025.8
75025.4
75024.9
75024.4
75024
75023.5
75023
75022.5
75022
75021.6
75021.1
75020.6
75020.1
75019.6
75019.2
75018.7
75018.2
75017.7
75017.2
75016.7
75016.2
75015.7
75015.2
75014.7
75014.2
75013.7
75013.2
75012.7
75012.2
75011.7
75011.2
75010.7
75010.2
75009.7
75009.2
75008.6
75008.1
75007.6
75007.1
75006.6
75006.1
75005.5
75005
75004.5
75004
75003.4
75002.9
75002.4
75001.8
75001.3
75000.8
75000.2
74999.7
74999.2
74998.6
74998.1
74997.5
74997
74996.5
74995.9
74995.4
74994.8
74994.3
74993.7
74993.2
74992.6
74992.1
74991.5
74991
74990.4
74989.8
74989.3
74988.7
74988.2
74987.6
74987
74986.5
74985.9
74985.3
74984.8
74984.2
74983.6
74983
74982.5
74981.9
74981.3
74980.7
74980.1
74979.6
74979
74978.4
74977.8
74977.2
74976.6
74976.1
74975.5
74974.9
74974.3
74973.7
74973.1
74972.5
74971.9
74971.3
74970.7
74970.1
74969.5
74968.9
74968.3
74967.7
74967.1
74966.5
74965.9
74965.3
74964.7
74964
74963.4
74962.8
74962.2
74961.6
74961
74960.3
74959.7
74959.1
74958.5
74957.9
74957.2
74956.6
74956
74955.4
74954.7
74954.1
74953.5
74952.8
74952.2
74951.6
74950.9
74950.3
74949.7
74949
74948.4
74947.7
74947.1
74946.4
74945.8
74945.2
74944.5
74943.9
74943.2
74942.6
74941.9
74941.3
74940.6
74940
74939.3
74938.6
74938
74937.3
74936.7
74936
74935.3
74934.7
74934
74933.4
74932.7
74932
74931.4
74930.7
74930
74929.4
74928.7
74928
74927.3
74926.7
74926
74925.3
74924.6
74924
74923.3
74922.6
74921.9
74921.2
74920.5
74919.9
74919.2
74918.5
74917.8
74917.1
74916.4
74915.7
74915
74914.3
74913.6
74912.9
74912.2
74911.6
74910.9
74910.2
74909.5
74908.8
74908.1
74907.3
74906.6
74905.9
74905.2
74904.5
74903.8
74903.1
74902.4
74901.7
74901
74900.3
74899.6
74898.8
74898.1
74897.4
74896.7
74896
74895.3
74894.5
74893.8
74893.1
74892.4
74891.7
74890.9
74890.2
74889.5
74888.8
74888
74887.3
74886.6
74885.9
74885.1
74884.4
74883.7
74882.9
74882.2
74881.5
74880.7
74880
74879.3
74878.5
74877.8
74877.1
74876.3
74875.6
74874.8
74874.1
74873.4
74872.6
74871.9
74871.1
74870.4
74869.6
74868.9
74868.1
74867.4
74866.7
74865.9
74865.2
74864.4
74863.7
74862.9
74862.2
74861.4
74860.6
74859.9
74859.1
74858.4
74857.6
74856.9
74856.1
74855.4
74854.6
74853.8
74853.1
74852.3
74851.6
74850.8
74850
74849.3
74848.5
74847.7
74847
74846.2
74845.4
74844.7
74843.9
74843.1
74842.4
74841.6
74840.8
74840.1
74839.3
74838.5
74837.8
74837
74836.2
74835.4
74834.7
74833.9
74833.1
74832.4
74831.6
74830.8
74830
74829.2
74828.5
74827.7
74826.9
74826.1
74825.4
74824.6
74823.8
74823
74822.2
74821.5
74820.7
74819.9
74819.1
74818.3
74817.5
74816.8
74816
74815.2
74814.4
74813.6
74812.8
74812
74811.3
74810.5
74809.7
74808.9
74808.1
74807.3
74806.5
74805.7
74805
74804.2
74803.4
74802.6
74801.8
74801
74800.2
74799.4
74798.6
74797.8
74797
74796.2
74795.5
74794.7
74793.9
74793.1
74792.3
74791.5
74790.7
74789.9
74789.1
74788.3
74787.5
74786.7
74785.9
74785.1
74784.3
74783.5
74782.7
74781.9
74781.1
74780.3
74779.5
74778.7
74777.9
74777.1
74776.3
74775.5
74774.7
74773.9
74773.1
74772.3
74771.5
74770.7
74769.9
74769.1
74768.3
74767.5
74766.7
74765.9
74765.1
74764.3
74763.5
74762.7
74761.9
74761.1
74760.3
74759.5
74758.7
74757.9
74757.1
74756.3
74755.5
74754.7
74753.9
74753.1
74752.3
74751.5
74750.7
74749.9
74749.1
74748.3
74747.5
74746.7
74745.9
74745.1
74744.3
74743.5
74742.7
74741.9
74741.1
74740.3
74739.5
74738.7
74737.9
74737.1
74736.3
74735.5
74734.7
74733.9
74733.1
74732.3
74731.5
74730.7
74729.9
74729.1
74728.3
74727.5
74726.7
74725.9
74725.1
74724.3
74723.5
74722.7
74721.9
74721.1
74720.3
74719.5
74718.7
74717.9
74717.1
74716.3
74715.5
74714.7
74713.9
74713.1
74712.3
74711.5
74710.7
74709.9
74709.1
74708.3
74707.5
74706.7
74705.9
74705.1
74704.3
74703.6
74702.8
74702
74701.2
74700.4
74699.6
74698.8
74698
74697.2
74696.4
74695.6
74694.8
74694
74693.2
74692.5
74691.7
74690.9
74690.1
74689.3
74688.5
74687.7
74686.9
74686.1
74685.4
74684.6
74683.8
74683
74682.2
74681.4
74680.6
74679.9
74679.1
74678.3
74677.5
74676.7
74675.9
74675.2
74674.4
74673.6
74672.8
74672
74671.3
74670.5
74669.7
74668.9
74668.1
74667.4
74666.6
74665.8
74665
74664.3
74663.5
74662.7
74661.9
74661.2
74660.4
74659.6
74658.9
74658.1
74657.3
74656.5
74655.8
74655
74654.2
74653.5
74652.7
74651.9
74651.2
74650.4
74649.6
74648.9
74648.1
74647.4
74646.6
74645.8
74645.1
74644.3
74643.6
74642.8
74642
74641.3
74640.5
74639.8
74639
74638.3
74637.5
74636.7
74636
74635.2
74634.5
74633.7
74633
74632.2
74631.5
74630.7
74630
74629.2
74628.5
74627.7
74627
74626.3
74625.5
74624.8
74624
74623.3
74622.5
74621.8
74621.1
74620.3
74619.6
74618.8
74618.1
74617.4
74616.6
74615.9
74615.2
74614.4
74613.7
74613
74612.2
74611.5
74610.8
74610.1
74609.3
74608.6
74607.9
74607.1
74606.4
74605.7
74605
74604.3
74603.5
74602.8
74602.1
74601.4
74600.7
74599.9
74599.2
74598.5
74597.8
74597.1
74596.4
74595.7
74594.9
74594.2
74593.5
74592.8
74592.1
74591.4
74590.7
74590
74589.3
74588.6
74587.9
74587.2
74586.5
74585.8
74585.1
74584.4
74583.7
74583
74582.3
74581.6
74580.9
74580.2
74579.5
74578.8
74578.1
74577.4
74576.8
74576.1
74575.4
74574.7
74574
74573.3
74572.6
74572
74571.3
74570.6
74569.9
74569.2
74568.6
74567.9
74567.2
74566.5
74565.9
74565.2
74564.5
74563.8
74563.2
74562.5
74561.8
74561.2
74560.5
74559.8
74559.2
74558.5
74557.9
74557.2
74556.5
74555.9
74555.2
74554.6
74553.9
74553.3
74552.6
74551.9
74551.3
74550.6
74550
74549.3
74548.7
74548
74547.4
74546.8
74546.1
74545.5
74544.8
74544.2
74543.5
74542.9
74542.3
75102.7
75102.3
75102.1
75102
75101.9
75101.9
75101.9
75101.9
75101.9
75101.8
75101.8
75101.8
75101.8
75101.7
75101.7
75101.7
75101.6
75101.6
75101.6
75101.5
75101.5
75101.4
75101.4
75101.4
75101.3
75101.3
75101.2
75101.2
75101.1
75101.1
75101
75100.9
75100.9
75100.8
75100.8
75100.7
75100.6
75100.6
75100.5
75100.4
75100.4
75100.3
75100.2
75100.2
75100.1
75100
75099.9
75099.9
75099.8
75099.7
75099.6
75099.5
75099.4
75099.3
75099.3
75099.2
75099.1
75099
75098.9
75098.8
75098.7
75098.6
75098.5
75098.4
75098.3
75098.2
75098.1
75098
75097.8
75097.7
75097.6
75097.5
75097.4
75097.3
75097.2
75097
75096.9
75096.8
75096.7
75096.5
75096.4
75096.3
75096.1
75096
75095.9
75095.7
75095.6
75095.5
75095.3
75095.2
75095
75094.9
75094.8
75094.6
75094.5
75094.3
75094.2
75094
75093.9
75093.7
75093.5
75093.4
75093.2
75093.1
75092.9
75092.7
75092.6
75092.4
75092.2
75092.1
75091.9
75091.7
75091.5
75091.4
75091.2
75091
75090.8
75090.7
75090.5
75090.3
75090.1
75089.9
75089.7
75089.5
75089.3
75089.1
75089
75088.8
75088.6
75088.4
75088.2
75088
75087.8
75087.5
75087.3
75087.1
75086.9
75086.7
75086.5
75086.3
75086.1
75085.9
75085.6
75085.4
75085.2
75085
75084.8
75084.5
75084.3
75084.1
75083.8
75083.6
75083.4
75083.1
75082.9
75082.7
75082.4
75082.2
75081.9
75081.7
75081.5
75081.2
75081
75080.7
75080.5
75080.2
75080
75079.7
75079.4
75079.2
75078.9
75078.7
75078.4
75078.1
75077.9
75077.6
75077.3
75077.1
75076.8
75076.5
75076.2
75075.9
75075.7
75075.4
75075.1
75074.8
75074.5
75074.3
75074
75073.7
75073.4
75073.1
75072.8
75072.5
75072.2
75071.9
75071.6
75071.3
75071
75070.7
75070.4
75070.1
75069.8
75069.5
75069.2
75068.9
75068.5
75068.2
75067.9
75067.6
75067.3
75067
75066.6
75066.3
75066
75065.7
75065.3
75065
75064.7
75064.3
75064
75063.7
75063.3
75063
75062.7
75062.3
75062
75061.6
75061.3
75060.9
75060.6
75060.2
75059.9
75059.5
75059.2
75058.8
75058.5
75058.1
75057.7
75057.4
75057
75056.7
75056.3
75055.9
75055.6
75055.2
75054.8
75054.4
75054.1
75053.7
75053.3
75052.9
75052.6
75052.2
75051.8
75051.4
75051
75050.6
75050.3
75049.9
75049.5
75049.1
75048.7
75048.3
75047.9
75047.5
75047.1
75046.7
75046.3
75045.9
75045.5
75045.1
75044.7
75044.3
75043.9
75043.5
75043
75042.6
75042.2
75041.8
75041.4
75041
75040.5
75040.1
75039.7
75039.3
75038.8
75038.4
75038
75037.5
75037.1
75036.7
75036.2
75035.8
75035.4
75034.9
75034.5
75034
75033.6
75033.2
75032.7
75032.3
75031.8
75031.4
75030.9
75030.5
75030
75029.5
75029.1
75028.6
75028.2
75027.7
75027.2
75026.8
75026.3
75025.8
75025.4
75024.9
75024.4
75024
75023.5
75023
75022.5
75022.1
75021.6
75021.1
75020.6
75020.1
75019.7
75019.2
75018.7
75018.2
75017.7
75017.2
75016.7
75016.2
75015.7
75015.2
75014.7
75014.2
75013.7
75013.2
75012.7
75012.2
75011.7
75011.2
75010.7
75010.2
75009.7
75009.2
75008.7
75008.1
75007.6
75007.1
75006.6
75006.1
75005.5
75005
75004.5
75004
75003.4
75002.9
75002.4
75001.9
75001.3
75000.8
75000.3
74999.7
74999.2
74998.6
74998.1
74997.6
74997
74996.5
74995.9
74995.4
74994.8
74994.3
74993.7
74993.2
74992.6
74992.1
74991.5
74991
74990.4
74989.9
74989.3
74988.7
74988.2
74987.6
74987
74986.5
74985.9
74985.3
74984.8
74984.2
74983.6
74983.1
74982.5
74981.9
74981.3
74980.7
74980.2
74979.6
74979
74978.4
74977.8
74977.2
74976.7
74976.1
74975.5
74974.9
74974.3
74973.7
74973.1
74972.5
74971.9
74971.3
74970.7
74970.1
74969.5
74968.9
74968.3
74967.7
74967.1
74966.5
74965.9
74965.3
74964.7
74964.1
74963.4
74962.8
74962.2
74961.6
74961
74960.4
74959.7
74959.1
74958.5
74957.9
74957.2
74956.6
74956
74955.4
74954.7
74954.1
74953.5
74952.8
74952.2
74951.6
74950.9
74950.3
74949.7
74949
74948.4
74947.7
74947.1
74946.5
74945.8
74945.2
74944.5
74943.9
74943.2
74942.6
74941.9
74941.3
74940.6
74940
74939.3
74938.7
74938
74937.3
74936.7
74936
74935.4
74934.7
74934
74933.4
74932.7
74932
74931.4
74930.7
74930
74929.4
74928.7
74928
74927.4
74926.7
74926
74925.3
74924.6
74924
74923.3
74922.6
74921.9
74921.2
74920.6
74919.9
74919.2
74918.5
74917.8
74917.1
74916.4
74915.7
74915
74914.4
74913.7
74913
74912.3
74911.6
74910.9
74910.2
74909.5
74908.8
74908.1
74907.4
74906.7
74906
74905.3
74904.5
74903.8
74903.1
74902.4
74901.7
74901
74900.3
74899.6
74898.9
74898.1
74897.4
74896.7
74896
74895.3
74894.6
74893.8
74893.1
74892.4
74891.7
74891
74890.2
74889.5
74888.8
74888.1
74887.3
74886.6
74885.9
74885.1
74884.4
74883.7
74883
74882.2
74881.5
74880.8
74880
74879.3
74878.5
74877.8
74877.1
74876.3
74875.6
74874.9
74874.1
74873.4
74872.6
74871.9
74871.1
74870.4
74869.7
74868.9
74868.2
74867.4
74866.7
74865.9
74865.2
74864.4
74863.7
74862.9
74862.2
74861.4
74860.7
74859.9
74859.2
74858.4
74857.6
74856.9
74856.1
74855.4
74854.6
74853.9
74853.1
74852.3
74851.6
74850.8
74850.1
74849.3
74848.5
74847.8
74847
74846.2
74845.5
74844.7
74843.9
74843.2
74842.4
74841.6
74840.9
74840.1
74839.3
74838.6
74837.8
74837
74836.2
74835.5
74834.7
74833.9
74833.1
74832.4
74831.6
74830.8
74830
74829.3
74828.5
74827.7
74826.9
74826.2
74825.4
74824.6
74823.8
74823
74822.3
74821.5
74820.7
74819.9
74819.1
74818.3
74817.6
74816.8
74816
74815.2
74814.4
74813.6
74812.8
74812.1
74811.3
74810.5
74809.7
74808.9
74808.1
74807.3
74806.5
74805.8
74805
74804.2
74803.4
74802.6
74801.8
74801
74800.2
74799.4
74798.6
74797.9
74797.1
74796.3
74795.5
74794.7
74793.9
74793.1
74792.3
74791.5
74790.7
74789.9
74789.1
74788.3
74787.5
74786.7
74785.9
74785.1
74784.3
74783.5
74782.7
74781.9
74781.1
74780.4
74779.6
74778.8
74778
74777.2
74776.4
74775.6
74774.8
74774
74773.2
74772.4
74771.6
74770.8
74770
74769.2
74768.4
74767.6
74766.8
74766
74765.2
74764.4
74763.6
74762.8
74762
74761.2
74760.4
74759.6
74758.8
74758
74757.1
74756.3
74755.5
74754.7
74753.9
74753.1
74752.3
74751.5
74750.7
74749.9
74749.1
74748.3
74747.5
74746.7
74745.9
74745.1
74744.3
74743.5
74742.7
74741.9
74741.1
74740.3
74739.5
74738.7
74737.9
74737.1
74736.3
74735.5
74734.7
74733.9
74733.1
74732.3
74731.5
74730.7
74729.9
74729.1
74728.3
74727.5
74726.7
74725.9
74725.1
74724.3
74723.5
74722.7
74721.9
74721.1
74720.3
74719.5
74718.7
74717.9
74717.1
74716.3
74715.5
74714.7
74713.9
74713.1
74712.3
74711.5
74710.7
74709.9
74709.1
74708.3
74707.5
74706.7
74706
74705.2
74704.4
74703.6
74702.8
74702
74701.2
74700.4
74699.6
74698.8
74698
74697.2
74696.4
74695.6
74694.8
74694.1
74693.3
74692.5
74691.7
74690.9
74690.1
74689.3
74688.5
74687.7
74687
74686.2
74685.4
74684.6
74683.8
74683
74682.2
74681.4
74680.7
74679.9
74679.1
74678.3
74677.5
74676.7
74676
74675.2
74674.4
74673.6
74672.8
74672.1
74671.3
74670.5
74669.7
74668.9
74668.2
74667.4
74666.6
74665.8
74665.1
74664.3
74663.5
74662.7
74662
74661.2
74660.4
74659.6
74658.9
74658.1
74657.3
74656.6
74655.8
74655
74654.3
74653.5
74652.7
74652
74651.2
74650.4
74649.7
74648.9
74648.1
74647.4
74646.6
74645.9
74645.1
74644.3
74643.6
74642.8
74642.1
74641.3
74640.5
74639.8
74639
74638.3
74637.5
74636.8
74636
74635.3
74634.5
74633.8
74633
74632.2
74631.5
74630.8
74630
74629.3
74628.5
74627.8
74627
74626.3
74625.5
74624.8
74624
74623.3
74622.6
74621.8
74621.1
74620.3
74619.6
74618.9
74618.1
74617.4
74616.7
74615.9
74615.2
74614.5
74613.7
74613
74612.3
74611.5
74610.8
74610.1
74609.3
74608.6
74607.9
74607.2
74606.4
74605.7
74605
74604.3
74603.6
74602.8
74602.1
74601.4
74600.7
74600
74599.2
74598.5
74597.8
74597.1
74596.4
74595.7
74595
74594.2
74593.5
74592.8
74592.1
74591.4
74590.7
74590
74589.3
74588.6
74587.9
74587.2
74586.5
74585.8
74585.1
74584.4
74583.7
74583
74582.3
74581.6
74580.9
74580.2
74579.5
74578.8
74578.1
74577.5
74576.8
74576.1
74575.4
74574.7
74574
74573.3
74572.7
74572
74571.3
74570.6
74569.9
74569.3
74568.6
74567.9
74567.2
74566.6
74565.9
74565.2
74564.5
74563.9
74563.2
74562.5
74561.9
74561.2
74560.5
74559.9
74559.2
74558.5
74557.9
74557.2
74556.6
74555.9
74555.2
74554.6
74553.9
74553.3
74552.6
74552
74551.3
74550.7
74550
74549.4
74548.7
74548.1
74547.4
74546.8
74546.1
74545.5
74544.8
74544.2
74543.6
74542.9
74542.3
75102.6
75102.3
75102.1
75102
75102
75101.9
75101.9
75101.9
75101.9
75101.8
75101.8
75101.8
75101.8
75101.7
75101.7
75101.7
75101.6
75101.6
75101.6
75101.5
75101.5
75101.4
75101.4
75101.4
75101.3
75101.3
75101.2
75101.2
75101.1
75101.1
75101
75100.9
75100.9
75100.8
75100.8
75100.7
75100.6
75100.6
75100.5
75100.4
75100.4
75100.3
75100.2
75100.2
75100.1
75100
75099.9
75099.9
75099.8
75099.7
75099.6
75099.5
75099.4
75099.3
75099.3
75099.2
75099.1
75099
75098.9
75098.8
75098.7
75098.6
75098.5
75098.4
75098.3
75098.2
75098.1
75098
75097.8
75097.7
75097.6
75097.5
75097.4
75097.3
75097.2
75097
75096.9
75096.8
75096.7
75096.5
75096.4
75096.3
75096.1
75096
75095.9
75095.7
75095.6
75095.5
75095.3
75095.2
75095
75094.9
75094.8
75094.6
75094.5
75094.3
75094.2
75094
75093.9
75093.7
75093.5
75093.4
75093.2
75093.1
75092.9
75092.7
75092.6
75092.4
75092.2
75092.1
75091.9
75091.7
75091.5
75091.4
75091.2
75091
75090.8
75090.7
75090.5
75090.3
75090.1
75089.9
75089.7
75089.5
75089.3
75089.1
75089
75088.8
75088.6
75088.4
75088.2
75088
75087.8
75087.5
75087.3
75087.1
75086.9
75086.7
75086.5
75086.3
75086.1
75085.9
75085.6
75085.4
75085.2
75085
75084.8
75084.5
75084.3
75084.1
75083.8
75083.6
75083.4
75083.1
75082.9
75082.7
75082.4
75082.2
75081.9
75081.7
75081.5
75081.2
75081
75080.7
75080.5
75080.2
75080
75079.7
75079.4
75079.2
75078.9
75078.7
75078.4
75078.1
75077.9
75077.6
75077.3
75077.1
75076.8
75076.5
75076.2
75076
75075.7
75075.4
75075.1
75074.8
75074.5
75074.3
75074
75073.7
75073.4
75073.1
75072.8
75072.5
75072.2
75071.9
75071.6
75071.3
75071
75070.7
75070.4
75070.1
75069.8
75069.5
75069.2
75068.9
75068.5
75068.2
75067.9
75067.6
75067.3
75067
75066.6
75066.3
75066
75065.7
75065.3
75065
75064.7
75064.3
75064
75063.7
75063.3
75063
75062.7
75062.3
75062
75061.6
75061.3
75060.9
75060.6
75060.2
75059.9
75059.5
75059.2
75058.8
75058.5
75058.1
75057.7
75057.4
75057
75056.7
75056.3
75055.9
75055.6
75055.2
75054.8
75054.5
75054.1
75053.7
75053.3
75052.9
75052.6
75052.2
75051.8
75051.4
75051
75050.6
75050.3
75049.9
75049.5
75049.1
75048.7
75048.3
75047.9
75047.5
75047.1
75046.7
75046.3
75045.9
75045.5
75045.1
75044.7
75044.3
75043.9
75043.5
75043
75042.6
75042.2
75041.8
75041.4
75041
75040.5
75040.1
75039.7
75039.3
75038.8
75038.4
75038
75037.5
75037.1
75036.7
75036.2
75035.8
75035.4
75034.9
75034.5
75034
75033.6
75033.2
75032.7
75032.3
75031.8
75031.4
75030.9
75030.5
75030
75029.5
75029.1
75028.6
75028.2
75027.7
75027.2
75026.8
75026.3
75025.8
75025.4
75024.9
75024.4
75024
75023.5
75023
75022.5
75022.1
75021.6
75021.1
75020.6
75020.1
75019.7
75019.2
75018.7
75018.2
75017.7
75017.2
75016.7
75016.2
75015.7
75015.2
75014.7
75014.2
75013.7
75013.2
75012.7
75012.2
75011.7
75011.2
75010.7
75010.2
75009.7
75009.2
75008.7
75008.1
75007.6
75007.1
75006.6
75006.1
75005.5
75005
75004.5
75004
75003.4
75002.9
75002.4
75001.9
75001.3
75000.8
75000.3
74999.7
74999.2
74998.6
74998.1
74997.6
74997
74996.5
74995.9
74995.4
74994.8
74994.3
74993.7
74993.2
74992.6
74992.1
74991.5
74991
74990.4
74989.9
74989.3
74988.7
74988.2
74987.6
74987
74986.5
74985.9
74985.3
74984.8
74984.2
74983.6
74983.1
74982.5
74981.9
74981.3
74980.7
74980.2
74979.6
74979
74978.4
74977.8
74977.2
74976.7
74976.1
74975.5
74974.9
74974.3
74973.7
74973.1
74972.5
74971.9
74971.3
74970.7
74970.1
74969.5
74968.9
74968.3
74967.7
74967.1
74966.5
74965.9
74965.3
74964.7
74964.1
74963.4
74962.8
74962.2
74961.6
74961
74960.4
74959.7
74959.1
74958.5
74957.9
74957.3
74956.6
74956
74955.4
74954.7
74954.1
74953.5
74952.8
74952.2
74951.6
74950.9
74950.3
74949.7
74949
74948.4
74947.7
74947.1
74946.5
74945.8
74945.2
74944.5
74943.9
74943.2
74942.6
74941.9
74941.3
74940.6
74940
74939.3
74938.7
74938
74937.3
74936.7
74936
74935.4
74934.7
74934
74933.4
74932.7
74932
74931.4
74930.7
74930
74929.4
74928.7
74928
74927.4
74926.7
74926
74925.3
74924.6
74924
74923.3
74922.6
74921.9
74921.2
74920.6
74919.9
74919.2
74918.5
74917.8
74917.1
74916.4
74915.7
74915
74914.4
74913.7
74913
74912.3
74911.6
74910.9
74910.2
74909.5
74908.8
74908.1
74907.4
74906.7
74906
74905.3
74904.5
74903.8
74903.1
74902.4
74901.7
74901
74900.3
74899.6
74898.9
74898.1
74897.4
74896.7
74896
74895.3
74894.6
74893.8
74893.1
74892.4
74891.7
74891
74890.2
74889.5
74888.8
74888.1
74887.3
74886.6
74885.9
74885.1
74884.4
74883.7
74883
74882.2
74881.5
74880.8
74880
74879.3
74878.5
74877.8
74877.1
74876.3
74875.6
74874.9
74874.1
74873.4
74872.6
74871.9
74871.1
74870.4
74869.7
74868.9
74868.2
74867.4
74866.7
74865.9
74865.2
74864.4
74863.7
74862.9
74862.2
74861.4
74860.7
74859.9
74859.2
74858.4
74857.6
74856.9
74856.1
74855.4
74854.6
74853.9
74853.1
74852.3
74851.6
74850.8
74850.1
74849.3
74848.5
74847.8
74847
74846.2
74845.5
74844.7
74843.9
74843.2
74842.4
74841.6
74840.9
74840.1
74839.3
74838.6
74837.8
74837
74836.2
74835.5
74834.7
74833.9
74833.1
74832.4
74831.6
74830.8
74830
74829.3
74828.5
74827.7
74826.9
74826.2
74825.4
74824.6
74823.8
74823
74822.3
74821.5
74820.7
74819.9
74819.1
74818.3
74817.6
74816.8
74816
74815.2
74814.4
74813.6
74812.8
74812.1
74811.3
74810.5
74809.7
74808.9
74808.1
74807.3
74806.5
74805.8
74805
74804.2
74803.4
74802.6
74801.8
74801
74800.2
74799.4
74798.6
74797.9
74797.1
74796.3
74795.5
74794.7
74793.9
74793.1
74792.3
74791.5
74790.7
74789.9
74789.1
74788.3
74787.5
74786.7
74785.9
74785.1
74784.3
74783.5
74782.7
74781.9
74781.1
74780.4
74779.6
74778.8
74778
74777.2
74776.4
74775.6
74774.8
74774
74773.2
74772.4
74771.6
74770.8
74770
74769.2
74768.4
74767.6
74766.8
74766
74765.2
74764.4
74763.6
74762.8
74762
74761.2
74760.4
74759.6
74758.8
74758
74757.1
74756.3
74755.5
74754.7
74753.9
74753.1
74752.3
74751.5
74750.7
74749.9
74749.1
74748.3
74747.5
74746.7
74745.9
74745.1