/*--------------------------------*- C++ -*----------------------------------*\
| =========                 |                                                 |
| \\      /  F ield         | OpenFOAM: The Open Source CFD Toolbox           |
|  \\    /   O peration     | Version:  2512                                  |
|   \\  /    A nd           | Website:  www.openfoam.com                      |
|    \\/     M anipulation  |                                                 |
\*---------------------------------------------------------------------------*/
FoamFile
{
    version     2.0;
    format      ascii;
    arch        "LSB;label=32;scalar=64";
    class       volScalarField;
    location    "0.1";
    object      pB;
}
// * * * * * * * * * * * * * * * * * * * * * * * * * * * * * * * * * * * * * //

dimensions      [1 1 -3 0 0 -1 0];

internalField   nonuniform List<scalar> 
100000
(
1.4263
3.64232
5.26563
6.72545
8.0789
9.32671
10.4977
11.6021
12.6281
13.568
14.4237
15.1985
15.8947
16.5151
17.0636
17.5443
17.9616
18.32
18.6238
18.8776
19.0854
19.2515
19.3797
19.4737
19.537
19.573
19.5848
19.5753
19.547
19.5025
19.444
19.3737
19.2934
19.2048
19.1095
19.0088
18.9041
18.7965
18.6869
18.5761
18.4651
18.3544
18.2445
18.1361
18.0294
17.9249
17.8229
17.7235
17.627
17.5335
17.4431
17.3558
17.2718
17.191
17.1134
17.039
16.9677
16.8995
16.8344
16.7722
16.7128
16.6562
16.6022
16.5509
16.5019
16.4554
16.4111
16.3689
16.3288
16.2907
16.2544
16.2198
16.187
16.1556
16.1258
16.0974
16.0703
16.0444
16.0196
15.996
15.9733
15.9517
15.9309
15.9109
15.8917
15.8733
15.8555
15.8383
15.8217
15.8057
15.7901
15.775
15.7604
15.7461
15.7322
15.7187
15.7054
15.6925
15.6798
15.6674
15.6552
15.6432
15.6315
15.6199
15.6085
15.5973
15.5862
15.5753
15.5646
15.554
15.5435
15.5332
15.523
15.513
15.5032
15.4934
15.4839
15.4744
15.4652
15.4561
15.4472
15.4385
15.43
15.4217
15.4136
15.4058
15.3981
15.3908
15.3837
15.3768
15.3703
15.364
15.3581
15.3525
15.3472
15.3422
15.3375
15.3332
15.3292
15.3256
15.3223
15.3193
15.3167
15.3143
15.3123
15.3106
15.3093
15.3081
15.3074
15.3067
15.3053
15.3027
15.2989
15.2939
15.2875
15.2796
15.2703
15.2594
15.2471
15.2333
15.218
15.2014
15.1834
15.1641
15.1435
15.1216
15.0985
15.0742
15.0488
15.0223
14.9947
14.9662
14.9368
14.9065
14.8754
14.8435
14.811
14.7778
14.744
14.7098
14.6751
14.64
14.6047
14.5691
14.5334
14.4975
14.4616
14.4257
14.3898
14.354
14.3184
14.2829
14.2476
14.2125
14.1777
14.1431
14.1087
14.0746
14.0408
14.0072
13.9739
13.9408
13.9079
13.8753
13.8429
13.8107
13.7787
13.7469
13.7152
13.6837
13.6523
13.6211
13.5899
13.5589
13.5279
13.4971
13.4662
13.4355
13.4048
13.3741
13.3434
13.3128
13.2821
13.2515
13.2208
13.1901
13.1594
13.1287
13.0979
13.067
13.0361
13.0052
12.9742
12.9431
12.9119
12.8806
12.8493
12.8179
12.7864
12.7548
12.7231
12.6913
12.6594
12.6274
12.5953
12.5631
12.5308
12.4983
12.4658
12.4331
12.4003
12.3674
12.3344
12.3013
12.268
12.2346
12.2011
12.1675
12.1338
12.0999
12.0659
12.0318
11.9976
11.9633
11.9288
11.8942
11.8595
11.8246
11.7896
11.7545
11.7193
11.684
11.6485
11.6129
11.5772
11.5414
11.5055
11.4694
11.4332
11.3969
11.3605
11.324
11.2873
11.2506
11.2137
11.1767
11.1396
11.1024
11.0651
11.0277
10.9902
10.9525
10.9148
10.877
10.839
10.801
10.7629
10.7246
10.6863
10.6479
10.6094
10.5708
10.5321
10.4934
10.4545
10.4156
10.3766
10.3375
10.2983
10.2591
10.2198
10.1804
10.141
10.1014
10.0618
10.0221
9.98238
9.94255
9.90264
9.86264
9.82256
9.78238
9.7421
9.70171
9.6612
9.62056
9.57977
9.53881
9.49767
9.45631
9.41473
9.37285
9.33065
9.28801
9.24473
9.20104
9.15711
9.1129
9.06835
9.02354
8.97854
8.93339
8.88811
8.8427
8.79719
8.75158
8.70589
8.66011
8.61427
8.56835
8.52238
8.47634
8.43024
8.38409
8.33787
8.29161
8.24529
8.19892
8.15249
8.106
8.05946
8.01287
7.96621
7.9195
7.87273
7.82589
7.779
7.73204
7.68502
7.63793
7.59078
7.54356
7.49627
7.44892
7.40149
7.35399
7.30643
7.25879
7.21108
7.1633
7.11544
7.06751
7.0195
6.97142
6.92326
6.87503
6.82672
6.77834
6.72988
6.68134
6.63273
6.58404
6.53527
6.48642
6.4375
6.3885
6.33942
6.29027
6.24104
6.19173
6.14234
6.09288
6.04334
5.99372
5.94402
5.89425
5.8444
5.79448
5.74448
5.6944
5.64425
5.59402
5.54371
5.49333
5.44288
5.39235
5.34174
5.29106
5.24031
5.18948
5.13857
5.08759
5.03653
4.9854
4.9342
4.88292
4.83156
4.78013
4.72862
4.67703
4.62537
4.57363
4.52182
4.46992
4.41795
4.3659
4.31377
4.26156
4.20927
4.1569
4.10444
4.0519
3.99928
3.94657
3.89378
3.8409
3.78792
3.73486
3.6817
3.62845
3.5751
3.52165
3.4681
3.41445
3.3607
3.30683
3.25286
3.19878
3.14458
3.09027
3.03584
2.98129
2.92661
2.87181
2.81689
2.76183
2.70664
2.65132
2.59587
2.54027
2.48454
2.42866
2.37265
2.3165
2.26021
2.20378
2.14721
2.09051
2.03367
1.97669
1.9196
1.86234
1.80504
1.74757
1.68989
1.63241
1.57525
1.51823
1.46127
1.4044
1.34763
1.29099
1.2345
1.17819
1.12205
1.0661
1.01035
0.954805
0.899459
0.844326
0.789407
0.734703
0.680219
0.625949
0.571894
0.518055
0.464423
0.410994
0.357756
0.304698
0.251812
0.199089
0.146513
0.0940702
0.0417459
-0.0104781
-0.0626165
-0.114689
-0.166717
-0.218719
-0.27071
-0.322708
-0.374729
-0.426789
-0.478901
-0.531075
-0.58332
-0.635642
-0.68805
-0.740549
-0.79314
-0.845825
-0.898605
-0.951481
-1.00445
-1.05752
-1.11068
-1.16392
-1.21726
-1.27068
-1.32418
-1.37776
-1.43141
-1.48514
-1.53893
-1.59279
-1.64671
-1.70069
-1.75472
-1.8088
-1.86293
-1.9171
-1.97131
-2.02555
-2.07983
-2.13414
-2.18848
-2.24285
-2.29724
-2.35165
-2.40607
-2.46051
-2.51496
-2.56943
-2.6239
-2.67838
-2.73286
-2.78734
-2.84183
-2.89631
-2.95079
-3.00526
-3.05973
-3.11418
-3.16863
-3.22307
-3.2775
-3.33191
-3.38631
-3.44069
-3.49505
-3.5494
-3.60373
-3.65804
-3.71232
-3.76658
-3.82082
-3.87503
-3.92922
-3.98338
-4.03752
-4.09162
-4.1457
-4.19975
-4.25378
-4.30777
-4.36174
-4.41567
-4.46957
-4.52344
-4.57728
-4.63109
-4.68486
-4.73861
-4.79232
-4.84599
-4.89964
-4.95325
-5.00683
-5.06037
-5.11389
-5.16737
-5.22082
-5.27424
-5.32763
-5.38099
-5.43433
-5.48763
-5.5409
-5.59415
-5.64737
-5.70056
-5.75373
-5.80688
-5.86001
-5.91312
-5.96621
-6.01928
-6.07234
-6.12538
-6.17841
-6.23143
-6.28444
-6.33745
-6.39045
-6.44344
-6.49644
-6.54943
-6.60243
-6.65543
-6.70843
-6.76144
-6.81445
-6.86746
-6.92049
-6.97351
-7.02654
-7.07957
-7.1326
-7.18562
-7.23863
-7.29162
-7.34459
-7.39753
-7.45042
-7.50326
-7.55603
-7.60871
-7.66128
-7.71372
-7.76599
-7.81808
-7.86993
-7.92148
-7.97269
-8.02343
-8.07359
-8.12303
-8.17156
-8.2193
-8.26658
-8.31359
-8.36035
-8.40687
-8.45319
-8.49934
-8.54535
-8.59125
-8.63705
-8.68277
-8.72842
-8.77402
-8.81957
-8.86507
-8.91055
-8.956
-9.00141
-9.04681
-9.09218
-9.13752
-9.18285
-9.22815
-9.27342
-9.31866
-9.36388
-9.40906
-9.45421
-9.49932
-9.54439
-9.58941
-9.63439
-9.67932
-9.7242
-9.76902
-9.81378
-9.85847
-9.90311
-9.94767
-9.99216
-10.0366
-10.0809
-10.1252
-10.1694
-10.2135
-10.2575
-10.3014
-10.3452
-10.389
-10.4326
-10.4762
-10.5196
-10.563
-10.6062
-10.6494
-10.6924
-10.7354
-10.7782
-10.8209
-10.8636
-10.9061
-10.9485
-10.9908
-11.0329
-11.075
-11.117
-11.1588
-11.2005
-11.2422
-11.2837
-11.3251
-11.3663
-11.4075
-11.4486
-11.4895
-11.5304
-11.5711
-11.6118
-11.6523
-11.6927
-11.7331
-11.7733
-11.8134
-11.8534
-11.8934
-11.9332
-11.973
-12.0127
-12.0523
-12.0918
-12.1313
-12.1707
-12.21
-12.2493
-12.2885
-12.3277
-12.3669
-12.406
-12.4451
-12.4842
-12.5233
-12.5624
-12.6015
-12.6406
-12.6798
-12.719
-12.7583
-12.7976
-12.837
-12.8766
-12.9162
-12.956
-12.996
-13.0361
-13.0763
-13.1168
-13.1576
-13.1985
-13.2397
-13.2812
-13.3231
-13.3652
-13.4077
-13.4506
-13.4938
-13.5375
-13.5816
-13.6262
-13.6713
-13.7168
-13.7629
-13.8095
-13.8567
-13.9044
-13.9527
-14.0015
-14.0509
-14.1008
-14.1514
-14.2024
-14.2541
-14.3062
-14.3589
-14.4121
-14.4657
-14.5199
-14.5745
-14.6293
-14.6838
-14.7363
-14.7866
-14.8348
-14.8809
-14.9249
-14.9668
-15.0066
-15.0441
-15.0796
-15.113
-15.1443
-15.1736
-15.2008
-15.2261
-15.2494
-15.2709
-15.2906
-15.3085
-15.3248
-15.3394
-15.3525
-15.3641
-15.3744
-15.3833
-15.3911
-15.3977
-15.4033
-15.408
-15.4119
-15.4151
-15.4178
-15.4199
-15.4217
-15.4233
-15.4247
-15.426
-15.4274
-15.4289
-15.4306
-15.4326
-15.4349
-15.4375
-15.4405
-15.4439
-15.4478
-15.4521
-15.4569
-15.4621
-15.4678
-15.4739
-15.4804
-15.4874
-15.4947
-15.5025
-15.5106
-15.519
-15.5278
-15.5368
-15.5462
-15.5558
-15.5656
-15.5757
-15.5859
-15.5963
-15.6069
-15.6176
-15.6284
-15.6394
-15.6504
-15.6615
-15.6726
-15.6838
-15.695
-15.7062
-15.7174
-15.7286
-15.7398
-15.751
-15.7621
-15.7731
-15.7841
-15.7951
-15.8059
-15.8167
-15.8274
-15.838
-15.8484
-15.8588
-15.8691
-15.8792
-15.8893
-15.8992
-15.909
-15.9186
-15.9282
-15.9376
-15.9468
-15.9559
-15.9649
-15.9738
-15.9825
-15.991
-15.9995
-16.0077
-16.0159
-16.0239
-16.0317
-16.0394
-16.0469
-16.0543
-16.0615
-16.0685
-16.0754
-16.0821
-16.0887
-16.095
-16.1012
-16.1072
-16.1129
-16.1185
-16.1238
-16.1288
-16.1335
-16.138
-16.1421
-16.1459
-16.1492
-16.1521
-16.1545
-16.1564
-16.1577
-16.1582
-16.158
-16.157
-16.155
-16.1519
-16.1476
-16.142
-16.1348
-16.1259
-16.115
-16.102
-16.0865
-16.0683
-16.047
-16.0222
-15.9936
-15.9606
-15.9227
-15.8794
-15.83
-15.7737
-15.7098
-15.6374
-15.5555
-15.463
-15.3586
-15.2411
-15.1089
-14.9605
-14.794
-14.6074
-14.3985
-14.1648
-13.9037
-13.6122
-13.2871
-12.9248
-12.5214
-12.0724
-11.5731
-11.0184
-10.4023
-9.7186
-8.96024
-8.11943
-7.1877
-6.1554
-5.0119
-3.74557
-2.3421
-0.826151
1.43889
3.6051
5.26225
6.72466
8.07573
9.32178
10.4891
11.5884
12.61
13.5468
14.4003
15.1733
15.868
16.4874
17.035
17.5152
17.9321
18.2902
18.594
18.8477
19.0557
19.2218
19.3502
19.4444
19.508
19.5442
19.5563
19.547
19.519
19.4748
19.4166
19.3466
19.2665
19.1782
19.0832
18.9828
18.8784
18.771
18.6616
18.5511
18.4402
18.3297
18.2201
18.1118
18.0053
17.901
17.7991
17.6999
17.6036
17.5102
17.4199
17.3328
17.2489
17.1682
17.0907
17.0164
16.9452
16.8771
16.8121
16.7499
16.6906
16.6341
16.5802
16.5289
16.4801
16.4336
16.3893
16.3472
16.3072
16.2691
16.2328
16.1983
16.1655
16.1342
16.1045
16.0761
16.049
16.0231
15.9984
15.9748
15.9522
15.9306
15.9098
15.8899
15.8707
15.8523
15.8346
15.8174
15.8009
15.7848
15.7693
15.7543
15.7396
15.7254
15.7115
15.698
15.6848
15.6719
15.6592
15.6468
15.6347
15.6227
15.611
15.5994
15.5881
15.5769
15.5658
15.555
15.5443
15.5337
15.5233
15.513
15.5028
15.4928
15.483
15.4733
15.4638
15.4544
15.4451
15.4361
15.4272
15.4185
15.4101
15.4018
15.3937
15.3859
15.3783
15.3709
15.3639
15.3571
15.3505
15.3443
15.3384
15.3328
15.3275
15.3225
15.3179
15.3136
15.3096
15.306
15.3027
15.2998
15.2971
15.2948
15.2928
15.2911
15.2898
15.2886
15.2877
15.2869
15.2853
15.2828
15.2791
15.2742
15.2678
15.26
15.2506
15.2398
15.2275
15.2138
15.1986
15.1821
15.1641
15.1448
15.1243
15.1024
15.0794
15.0551
15.0298
15.0033
14.9759
14.9474
14.9181
14.8878
14.8568
14.825
14.7925
14.7593
14.7256
14.6915
14.6568
14.6218
14.5865
14.551
14.5153
14.4795
14.4437
14.4078
14.372
14.3363
14.3007
14.2653
14.2301
14.1951
14.1603
14.1257
14.0914
14.0574
14.0236
13.9901
13.9568
13.9238
13.891
13.8584
13.8261
13.7939
13.762
13.7302
13.6986
13.6671
13.6358
13.6046
13.5735
13.5425
13.5116
13.4808
13.4501
13.4194
13.3887
13.3581
13.3275
13.2969
13.2663
13.2357
13.2051
13.1745
13.1438
13.1131
13.0824
13.0516
13.0207
12.9898
12.9588
12.9278
12.8967
12.8655
12.8342
12.8029
12.7714
12.7399
12.7082
12.6765
12.6446
12.6127
12.5806
12.5485
12.5162
12.4838
12.4513
12.4187
12.386
12.3532
12.3202
12.2871
12.2539
12.2206
12.1872
12.1536
12.12
12.0862
12.0522
12.0182
11.984
11.9497
11.9153
11.8808
11.8461
11.8113
11.7764
11.7414
11.7062
11.6709
11.6355
11.6
11.5644
11.5286
11.4927
11.4567
11.4206
11.3844
11.348
11.3116
11.275
11.2383
11.2015
11.1645
11.1275
11.0904
11.0531
11.0158
10.9783
10.9407
10.9031
10.8653
10.8274
10.7894
10.7514
10.7132
10.675
10.6366
10.5982
10.5597
10.521
10.4823
10.4436
10.4047
10.3658
10.3267
10.2877
10.2485
10.2092
10.1699
10.1305
10.0911
10.0515
10.0119
9.97223
9.93247
9.89262
9.85269
9.81268
9.77257
9.73236
9.69203
9.65159
9.61101
9.57029
9.5294
9.48832
9.44703
9.40551
9.36369
9.32155
9.27896
9.23578
9.19217
9.14832
9.10418
9.05971
9.01498
8.97007
8.92499
8.87979
8.83445
8.78902
8.74349
8.69787
8.65217
8.6064
8.56057
8.51466
8.4687
8.42268
8.3766
8.33047
8.28428
8.23804
8.19174
8.14539
8.09898
8.05251
8.006
7.95942
7.91278
7.86609
7.81933
7.77251
7.72563
7.67869
7.63168
7.5846
7.53746
7.49025
7.44297
7.39563
7.34821
7.30072
7.25316
7.20553
7.15782
7.11004
7.06219
7.01426
6.96626
6.91818
6.87003
6.8218
6.7735
6.72512
6.67666
6.62813
6.57951
6.53083
6.48206
6.43322
6.3843
6.3353
6.28623
6.23708
6.18785
6.13854
6.08916
6.0397
5.99016
5.94055
5.89086
5.84109
5.79125
5.74133
5.69133
5.64126
5.59112
5.5409
5.4906
5.44023
5.38978
5.33925
5.28866
5.23798
5.18724
5.13641
5.08552
5.03454
4.9835
4.93237
4.88118
4.8299
4.77855
4.72713
4.67563
4.62405
4.5724
4.52066
4.46886
4.41697
4.365
4.31296
4.26083
4.20863
4.15634
4.10397
4.05152
3.99898
3.94636
3.89365
3.84085
3.78796
3.73498
3.68191
3.62875
3.57548
3.52212
3.46866
3.4151
3.36143
3.30765
3.25377
3.19977
3.14566
3.09144
3.03709
2.98263
2.92804
2.87333
2.8185
2.76353
2.70843
2.6532
2.59783
2.54232
2.48668
2.43089
2.37497
2.31891
2.26271
2.20637
2.1499
2.09328
2.03654
1.97965
1.92266
1.86551
1.80829
1.75093
1.69342
1.63603
1.57893
1.52198
1.46511
1.40832
1.35165
1.29509
1.2387
1.18248
1.12643
1.07057
1.0149
0.959443
0.904184
0.849139
0.794307
0.73969
0.685292
0.63111
0.577141
0.523387
0.469841
0.416498
0.363346
0.310373
0.257572
0.204933
0.152442
0.100083
0.0478438
-0.00429539
-0.05635
-0.108339
-0.160283
-0.212201
-0.264107
-0.316021
-0.367958
-0.419934
-0.47196
-0.524049
-0.576209
-0.628447
-0.68077
-0.733183
-0.785688
-0.838287
-0.890981
-0.94377
-0.996656
-1.04964
-1.10271
-1.15587
-1.20911
-1.26245
-1.31586
-1.36935
-1.42292
-1.47656
-1.53027
-1.58404
-1.63787
-1.69175
-1.7457
-1.79969
-1.85373
-1.90781
-1.96194
-2.01609
-2.07029
-2.12451
-2.17876
-2.23304
-2.28734
-2.34166
-2.39599
-2.45035
-2.50471
-2.55909
-2.61347
-2.66786
-2.72225
-2.77665
-2.83104
-2.88544
-2.93983
-2.99421
-3.04859
-3.10296
-3.15732
-3.21167
-3.26601
-3.32033
-3.37464
-3.42893
-3.48321
-3.53747
-3.59171
-3.64593
-3.70012
-3.75429
-3.80844
-3.86257
-3.91667
-3.97074
-4.02479
-4.07881
-4.1328
-4.18677
-4.2407
-4.29461
-4.34848
-4.40233
-4.45614
-4.50993
-4.56368
-4.6174
-4.67108
-4.72474
-4.77836
-4.83195
-4.88551
-4.93904
-4.99253
-5.04599
-5.09941
-5.15281
-5.20617
-5.25951
-5.31281
-5.36609
-5.41933
-5.47255
-5.52573
-5.57889
-5.63203
-5.68514
-5.73822
-5.79128
-5.84432
-5.89734
-5.95035
-6.00333
-6.0563
-6.10926
-6.16221
-6.21514
-6.26807
-6.32098
-6.3739
-6.42681
-6.47972
-6.53263
-6.58554
-6.63845
-6.69136
-6.74428
-6.79721
-6.85014
-6.90307
-6.95601
-7.00896
-7.0619
-7.11484
-7.16777
-7.2207
-7.27361
-7.32649
-7.37934
-7.43215
-7.4849
-7.53758
-7.59017
-7.64265
-7.695
-7.74719
-7.79918
-7.85093
-7.90239
-7.9535
-8.00415
-8.0542
-8.10354
-8.15201
-8.1997
-8.24693
-8.29387
-8.34056
-8.38701
-8.43325
-8.47933
-8.52527
-8.57109
-8.61682
-8.66246
-8.70804
-8.75356
-8.79903
-8.84446
-8.88986
-8.93523
-8.98058
-9.02589
-9.07119
-9.11646
-9.1617
-9.20693
-9.25212
-9.29729
-9.34243
-9.38754
-9.43261
-9.47765
-9.52264
-9.56759
-9.61249
-9.65734
-9.70214
-9.74689
-9.79157
-9.8362
-9.88075
-9.92524
-9.96966
-10.014
-10.0583
-10.1025
-10.1466
-10.1906
-10.2345
-10.2784
-10.3221
-10.3658
-10.4094
-10.4529
-10.4962
-10.5395
-10.5827
-10.6258
-10.6687
-10.7116
-10.7544
-10.797
-10.8396
-10.882
-10.9243
-10.9666
-11.0087
-11.0507
-11.0926
-11.1343
-11.176
-11.2175
-11.259
-11.3003
-11.3415
-11.3826
-11.4236
-11.4645
-11.5053
-11.546
-11.5865
-11.627
-11.6674
-11.7076
-11.7478
-11.7878
-11.8278
-11.8677
-11.9075
-11.9472
-11.9868
-12.0263
-12.0658
-12.1052
-12.1445
-12.1838
-12.223
-12.2622
-12.3013
-12.3404
-12.3794
-12.4185
-12.4575
-12.4965
-12.5355
-12.5746
-12.6136
-12.6527
-12.6919
-12.7311
-12.7704
-12.8097
-12.8492
-12.8888
-12.9285
-12.9684
-13.0084
-13.0486
-13.0891
-13.1297
-13.1706
-13.2118
-13.2532
-13.295
-13.337
-13.3795
-13.4223
-13.4655
-13.5091
-13.5531
-13.5976
-13.6426
-13.6881
-13.7341
-13.7807
-13.8277
-13.8754
-13.9236
-13.9723
-14.0216
-14.0715
-14.122
-14.173
-14.2245
-14.2766
-14.3291
-14.3822
-14.4357
-14.4898
-14.5441
-14.5986
-14.6528
-14.7052
-14.7555
-14.8037
-14.8498
-14.8937
-14.9356
-14.9753
-15.0129
-15.0483
-15.0817
-15.1129
-15.1422
-15.1694
-15.1946
-15.2179
-15.2394
-15.259
-15.2769
-15.2932
-15.3078
-15.3208
-15.3325
-15.3427
-15.3516
-15.3593
-15.366
-15.3716
-15.3763
-15.3801
-15.3833
-15.386
-15.3881
-15.3899
-15.3914
-15.3928
-15.3942
-15.3956
-15.397
-15.3987
-15.4007
-15.4029
-15.4055
-15.4085
-15.4119
-15.4158
-15.4201
-15.4248
-15.43
-15.4357
-15.4418
-15.4483
-15.4552
-15.4626
-15.4703
-15.4783
-15.4868
-15.4955
-15.5045
-15.5138
-15.5234
-15.5332
-15.5432
-15.5535
-15.5639
-15.5744
-15.5851
-15.5959
-15.6068
-15.6178
-15.6288
-15.64
-15.6511
-15.6623
-15.6735
-15.6847
-15.6958
-15.707
-15.7181
-15.7292
-15.7402
-15.7512
-15.7621
-15.7729
-15.7837
-15.7943
-15.8049
-15.8153
-15.8257
-15.8359
-15.846
-15.8561
-15.8659
-15.8757
-15.8853
-15.8948
-15.9042
-15.9134
-15.9225
-15.9315
-15.9403
-15.949
-15.9576
-15.966
-15.9742
-15.9823
-15.9903
-15.9981
-16.0057
-16.0133
-16.0206
-16.0278
-16.0348
-16.0417
-16.0484
-16.0549
-16.0613
-16.0674
-16.0734
-16.0791
-16.0847
-16.0899
-16.095
-16.0997
-16.1041
-16.1083
-16.112
-16.1153
-16.1183
-16.1207
-16.1225
-16.1238
-16.1244
-16.1242
-16.1232
-16.1212
-16.1181
-16.1138
-16.1082
-16.101
-16.0922
-16.0814
-16.0684
-16.053
-16.0348
-16.0136
-15.9889
-15.9603
-15.9275
-15.8897
-15.8465
-15.7972
-15.7411
-15.6773
-15.6051
-15.5234
-15.4311
-15.3269
-15.2097
-15.0779
-14.9297
-14.7636
-14.5773
-14.3688
-14.1356
-13.8751
-13.5841
-13.2596
-12.898
-12.4952
-12.047
-11.5486
-10.9948
-10.3797
-9.69708
-8.93988
-8.10035
-7.16999
-6.13919
-4.99735
-3.73267
-2.33055
-0.818242
1.42765
3.57028
5.25642
6.72305
8.071
9.31366
10.4754
11.5675
12.5826
13.5146
14.3643
15.1342
15.8264
16.4438
16.99
17.469
17.8851
18.2427
18.546
18.7996
19.0074
19.1736
19.302
19.3964
19.4602
19.4968
19.5092
19.5002
19.4726
19.4288
19.371
19.3014
19.2217
19.1338
19.0391
18.9392
18.8351
18.7281
18.619
18.5089
18.3984
18.2882
18.1788
18.0709
17.9647
17.8607
17.759
17.6601
17.5639
17.4708
17.3807
17.2938
17.2101
17.1296
17.0523
16.9782
16.9072
16.8393
16.7743
16.7123
16.6532
16.5968
16.5431
16.4919
16.4431
16.3967
16.3526
16.3106
16.2707
16.2327
16.1965
16.1621
16.1293
16.0982
16.0684
16.0401
16.0131
15.9873
15.9627
15.9392
15.9166
15.895
15.8743
15.8545
15.8354
15.817
15.7993
15.7822
15.7657
15.7497
15.7343
15.7193
15.7047
15.6905
15.6767
15.6632
15.65
15.6372
15.6246
15.6122
15.6001
15.5882
15.5765
15.565
15.5537
15.5425
15.5315
15.5207
15.51
15.4995
15.4891
15.4789
15.4688
15.4588
15.449
15.4394
15.4299
15.4205
15.4114
15.4024
15.3935
15.3849
15.3764
15.3682
15.3602
15.3524
15.3448
15.3375
15.3305
15.3237
15.3173
15.3111
15.3052
15.2996
15.2943
15.2894
15.2848
15.2806
15.2766
15.273
15.2698
15.2669
15.2643
15.262
15.26
15.2583
15.2569
15.2557
15.2547
15.2536
15.2519
15.2494
15.2458
15.2409
15.2346
15.2269
15.2177
15.2069
15.1947
15.1811
15.166
15.1495
15.1316
15.1124
15.092
15.0702
15.0472
15.0231
14.9978
14.9715
14.9441
14.9158
14.8865
14.8564
14.8254
14.7937
14.7613
14.7283
14.6947
14.6606
14.6261
14.5912
14.556
14.5206
14.485
14.4493
14.4135
14.3778
14.3421
14.3065
14.271
14.2357
14.2005
14.1656
14.1309
14.0965
14.0623
14.0284
13.9947
13.9612
13.9281
13.8951
13.8624
13.83
13.7977
13.7656
13.7338
13.7021
13.6706
13.6392
13.608
13.5769
13.5459
13.515
13.4842
13.4535
13.4228
13.3922
13.3616
13.3311
13.3006
13.2701
13.2396
13.2091
13.1785
13.148
13.1174
13.0868
13.0562
13.0255
12.9947
12.9639
12.933
12.9021
12.8711
12.84
12.8088
12.7775
12.7462
12.7147
12.6832
12.6515
12.6198
12.5879
12.556
12.5239
12.4917
12.4594
12.427
12.3945
12.3619
12.3291
12.2963
12.2633
12.2302
12.197
12.1636
12.1302
12.0966
12.0629
12.0291
11.9951
11.9611
11.9269
11.8925
11.8581
11.8235
11.7889
11.754
11.7191
11.6841
11.6489
11.6136
11.5782
11.5426
11.507
11.4712
11.4353
11.3993
11.3632
11.3269
11.2906
11.2541
11.2175
11.1808
11.144
11.107
11.07
11.0329
10.9956
10.9583
10.9208
10.8832
10.8456
10.8078
10.77
10.732
10.6939
10.6558
10.6176
10.5792
10.5408
10.5023
10.4637
10.4251
10.3863
10.3475
10.3086
10.2696
10.2305
10.1914
10.1522
10.1129
10.0736
10.0341
9.99464
9.95507
9.91542
9.87569
9.83587
9.79597
9.75597
9.71587
9.67566
9.63533
9.59487
9.55426
9.51348
9.47252
9.43134
9.38992
9.34821
9.30617
9.26368
9.22064
9.17718
9.13345
9.08943
9.0451
9.0005
8.95572
8.91078
8.8657
8.82049
8.77519
8.72978
8.68429
8.63872
8.59308
8.54737
8.5016
8.45576
8.40987
8.36392
8.31791
8.27185
8.22574
8.17957
8.13334
8.08706
8.04073
7.99434
7.94789
7.90138
7.85482
7.80819
7.7615
7.71475
7.66794
7.62106
7.57411
7.5271
7.48002
7.43287
7.38566
7.33837
7.29101
7.24358
7.19608
7.14851
7.10086
7.05314
7.00535
6.95748
6.90953
6.86151
6.81342
6.76525
6.717
6.66868
6.62028
6.5718
6.52325
6.47462
6.42591
6.37712
6.32826
6.27932
6.2303
6.18121
6.13204
6.0828
6.03347
5.98407
5.93459
5.88504
5.83541
5.7857
5.73592
5.68606
5.63613
5.58612
5.53604
5.48588
5.43564
5.38534
5.33495
5.28449
5.23396
5.18335
5.13267
5.08191
5.03108
4.98017
4.92919
4.87813
4.82699
4.77579
4.7245
4.67314
4.62171
4.57019
4.5186
4.46694
4.41519
4.36337
4.31146
4.25948
4.20742
4.15527
4.10305
4.05074
3.99834
3.94586
3.8933
3.84064
3.7879
3.73507
3.68214
3.62912
3.576
3.52278
3.46947
3.41605
3.36253
3.3089
3.25516
3.20131
3.14735
3.09327
3.03907
2.98476
2.93032
2.87576
2.82107
2.76625
2.7113
2.65621
2.60099
2.54564
2.49014
2.43451
2.37874
2.32283
2.26678
2.2106
2.15427
2.09782
2.04122
1.9845
1.92766
1.87069
1.81361
1.75644
1.69917
1.64195
1.58496
1.52814
1.47141
1.41477
1.35825
1.30184
1.2456
1.18953
1.13363
1.07791
1.0224
0.967081
0.91197
0.857073
0.802387
0.747915
0.693662
0.639625
0.585802
0.532192
0.478791
0.425591
0.372583
0.319754
0.267097
0.2146
0.162251
0.110034
0.0579372
0.00594093
-0.0459721
-0.0978192
-0.149621
-0.201397
-0.253162
-0.304933
-0.356728
-0.408562
-0.460447
-0.512393
-0.56441
-0.616504
-0.668684
-0.720953
-0.773315
-0.82577
-0.878319
-0.930964
-0.983705
-1.03654
-1.08947
-1.14248
-1.19558
-1.24877
-1.30204
-1.35538
-1.4088
-1.4623
-1.51585
-1.56948
-1.62316
-1.6769
-1.7307
-1.78454
-1.83844
-1.89237
-1.94635
-2.00036
-2.0544
-2.10848
-2.16258
-2.21671
-2.27086
-2.32503
-2.37922
-2.43342
-2.48764
-2.54187
-2.5961
-2.65034
-2.70459
-2.75884
-2.81308
-2.86733
-2.92157
-2.9758
-3.03003
-3.08426
-3.13847
-3.19267
-3.24686
-3.30104
-3.3552
-3.40934
-3.46347
-3.51758
-3.57167
-3.62574
-3.67979
-3.73382
-3.78782
-3.8418
-3.89575
-3.94968
-4.00358
-4.05745
-4.11129
-4.16511
-4.2189
-4.27265
-4.32638
-4.38008
-4.43375
-4.48739
-4.54099
-4.59456
-4.64811
-4.70161
-4.75509
-4.80854
-4.86195
-4.91532
-4.96867
-5.02198
-5.07526
-5.12851
-5.18173
-5.23492
-5.28808
-5.34121
-5.39431
-5.44738
-5.50042
-5.55343
-5.60642
-5.65938
-5.71232
-5.76524
-5.81814
-5.87101
-5.92387
-5.97671
-6.02954
-6.08235
-6.13515
-6.18794
-6.24072
-6.2935
-6.34627
-6.39903
-6.4518
-6.50456
-6.55732
-6.61009
-6.66286
-6.71564
-6.76842
-6.82121
-6.874
-6.92679
-6.97959
-7.03239
-7.08518
-7.13797
-7.19075
-7.24351
-7.29625
-7.34896
-7.40162
-7.45422
-7.50675
-7.5592
-7.61153
-7.66373
-7.71577
-7.76761
-7.81921
-7.87052
-7.92147
-7.97194
-8.02184
-8.07102
-8.11938
-8.16698
-8.21411
-8.26093
-8.3075
-8.35382
-8.39994
-8.4459
-8.49171
-8.53741
-8.583
-8.62852
-8.67397
-8.71937
-8.76471
-8.81002
-8.85529
-8.90053
-8.94575
-8.99094
-9.0361
-9.08125
-9.12637
-9.17146
-9.21653
-9.26157
-9.30658
-9.35156
-9.39651
-9.44142
-9.48628
-9.5311
-9.57588
-9.62061
-9.66528
-9.7099
-9.75446
-9.79896
-9.84339
-9.88775
-9.93204
-9.97626
-10.0204
-10.0645
-10.1085
-10.1524
-10.1962
-10.2399
-10.2835
-10.3271
-10.3705
-10.4139
-10.4571
-10.5003
-10.5433
-10.5863
-10.6292
-10.6719
-10.7145
-10.7571
-10.7995
-10.8418
-10.884
-10.9261
-10.9681
-11.01
-11.0518
-11.0934
-11.135
-11.1764
-11.2177
-11.2589
-11.3
-11.341
-11.3819
-11.4227
-11.4633
-11.5039
-11.5443
-11.5847
-11.6249
-11.6651
-11.7051
-11.745
-11.7849
-11.8247
-11.8643
-11.9039
-11.9434
-11.9829
-12.0222
-12.0615
-12.1007
-12.1399
-12.179
-12.218
-12.257
-12.296
-12.3349
-12.3739
-12.4128
-12.4517
-12.4906
-12.5295
-12.5685
-12.6075
-12.6465
-12.6856
-12.7248
-12.764
-12.8034
-12.8429
-12.8825
-12.9222
-12.9622
-13.0023
-13.0426
-13.0831
-13.1239
-13.165
-13.2063
-13.2479
-13.2899
-13.3322
-13.3749
-13.418
-13.4615
-13.5054
-13.5498
-13.5947
-13.64
-13.6859
-13.7323
-13.7793
-13.8268
-13.8749
-13.9235
-13.9727
-14.0224
-14.0727
-14.1236
-14.175
-14.2269
-14.2793
-14.3322
-14.3855
-14.4393
-14.4934
-14.5474
-14.601
-14.6533
-14.7036
-14.7517
-14.7977
-14.8416
-14.8834
-14.9231
-14.9606
-14.996
-15.0293
-15.0605
-15.0897
-15.1168
-15.142
-15.1653
-15.1867
-15.2063
-15.2242
-15.2404
-15.2549
-15.268
-15.2795
-15.2897
-15.2986
-15.3063
-15.3129
-15.3185
-15.3231
-15.327
-15.3302
-15.3328
-15.3349
-15.3367
-15.3382
-15.3396
-15.3409
-15.3422
-15.3437
-15.3454
-15.3473
-15.3495
-15.3521
-15.355
-15.3584
-15.3622
-15.3665
-15.3712
-15.3764
-15.382
-15.3881
-15.3945
-15.4014
-15.4087
-15.4164
-15.4244
-15.4328
-15.4415
-15.4505
-15.4597
-15.4693
-15.479
-15.489
-15.4992
-15.5095
-15.52
-15.5307
-15.5414
-15.5523
-15.5632
-15.5742
-15.5853
-15.5964
-15.6075
-15.6187
-15.6298
-15.6409
-15.652
-15.6631
-15.6742
-15.6851
-15.6961
-15.7069
-15.7177
-15.7284
-15.739
-15.7495
-15.7599
-15.7702
-15.7804
-15.7905
-15.8005
-15.8103
-15.82
-15.8296
-15.8391
-15.8484
-15.8576
-15.8667
-15.8756
-15.8844
-15.893
-15.9015
-15.9099
-15.9181
-15.9262
-15.9341
-15.9419
-15.9495
-15.957
-15.9643
-15.9715
-15.9785
-15.9853
-15.992
-15.9985
-16.0048
-16.0109
-16.0169
-16.0226
-16.0281
-16.0333
-16.0383
-16.0431
-16.0475
-16.0516
-16.0554
-16.0587
-16.0616
-16.064
-16.0659
-16.0672
-16.0678
-16.0676
-16.0666
-16.0646
-16.0616
-16.0574
-16.0518
-16.0447
-16.0359
-16.0252
-16.0123
-15.997
-15.9789
-15.9578
-15.9333
-15.9049
-15.8722
-15.8346
-15.7916
-15.7426
-15.6868
-15.6233
-15.5514
-15.4701
-15.3782
-15.2745
-15.1578
-15.0265
-14.879
-14.7135
-14.528
-14.3203
-14.088
-13.8284
-13.5385
-13.2152
-12.8548
-12.4534
-12.0067
-11.5099
-10.9578
-10.3447
-9.66413
-8.90919
-8.07213
-7.14443
-6.11656
-4.97794
-3.71671
-2.31852
-0.812197
1.40455
3.53281
5.24403
6.71681
8.0614
9.2994
10.4538
11.5368
12.5434
13.4685
14.3127
15.078
15.7666
16.3811
16.9249
17.4021
17.8169
18.1734
18.4761
18.7291
18.9367
19.1028
19.2313
19.3259
19.39
19.4269
19.4397
19.4312
19.404
19.3607
19.3035
19.2344
19.1553
19.0679
18.9738
18.8744
18.7708
18.6643
18.5558
18.4461
18.3361
18.2264
18.1175
18.01
17.9042
17.8006
17.6993
17.6008
17.505
17.4122
17.3224
17.2359
17.1524
17.0722
16.9952
16.9213
16.8506
16.7829
16.7182
16.6564
16.5975
16.5413
16.4877
16.4367
16.3882
16.342
16.298
16.2561
16.2163
16.1785
16.1425
16.1082
16.0755
16.0445
16.0149
15.9867
15.9598
15.9341
15.9096
15.8861
15.8637
15.8422
15.8216
15.8018
15.7828
15.7645
15.7469
15.7299
15.7135
15.6976
15.6822
15.6672
15.6527
15.6386
15.6249
15.6115
15.5984
15.5856
15.573
15.5608
15.5487
15.5369
15.5253
15.5138
15.5026
15.4915
15.4806
15.4698
15.4592
15.4487
15.4384
15.4282
15.4182
15.4083
15.3986
15.389
15.3796
15.3703
15.3612
15.3522
15.3434
15.3349
15.3265
15.3183
15.3103
15.3026
15.2951
15.2879
15.2809
15.2742
15.2678
15.2616
15.2558
15.2503
15.2451
15.2402
15.2357
15.2314
15.2276
15.224
15.2208
15.2179
15.2154
15.2131
15.2111
15.2095
15.208
15.2068
15.2057
15.2043
15.2024
15.1998
15.1964
15.1916
15.1854
15.1778
15.1686
15.158
15.146
15.1324
15.1175
15.1011
15.0834
15.0643
15.044
15.0223
14.9995
14.9755
14.9504
14.9242
14.8969
14.8687
14.8396
14.8096
14.7788
14.7472
14.715
14.6821
14.6486
14.6147
14.5803
14.5456
14.5106
14.4753
14.4399
14.4043
14.3687
14.3331
14.2976
14.2621
14.2268
14.1916
14.1566
14.1219
14.0873
14.053
14.019
13.9852
13.9516
13.9183
13.8853
13.8525
13.82
13.7876
13.7555
13.7236
13.6919
13.6603
13.6289
13.5977
13.5666
13.5357
13.5048
13.474
13.4434
13.4128
13.3823
13.3518
13.3213
13.2909
13.2606
13.2302
13.1998
13.1695
13.1391
13.1087
13.0782
13.0478
13.0172
12.9867
12.9561
12.9254
12.8946
12.8638
12.8329
12.802
12.7709
12.7398
12.7086
12.6773
12.6459
12.6144
12.5828
12.551
12.5192
12.4873
12.4553
12.4231
12.3909
12.3585
12.326
12.2934
12.2607
12.2279
12.1949
12.1618
12.1286
12.0953
12.0619
12.0283
11.9947
11.9609
11.9269
11.8929
11.8587
11.8244
11.79
11.7555
11.7208
11.686
11.6511
11.6161
11.581
11.5457
11.5103
11.4748
11.4392
11.4034
11.3676
11.3316
11.2955
11.2593
11.223
11.1866
11.15
11.1134
11.0766
11.0397
11.0027
10.9656
10.9284
10.8911
10.8537
10.8162
10.7786
10.7409
10.7031
10.6653
10.6273
10.5892
10.551
10.5128
10.4744
10.436
10.3975
10.3589
10.3203
10.2815
10.2427
10.2038
10.1649
10.1258
10.0867
10.0475
10.0083
9.96893
9.92952
9.89004
9.85048
9.81083
9.7711
9.73126
9.69134
9.65129
9.61113
9.57084
9.53039
9.48979
9.44899
9.40797
9.36672
9.32517
9.28328
9.24096
9.19811
9.15486
9.11131
9.06748
9.02334
8.97894
8.93435
8.8896
8.84471
8.79969
8.75458
8.70936
8.66406
8.61868
8.57323
8.52771
8.48213
8.43648
8.39078
8.34502
8.2992
8.25333
8.2074
8.16142
8.11539
8.0693
8.02316
7.97696
7.9307
7.88439
7.83801
7.79158
7.74508
7.69852
7.6519
7.60521
7.55846
7.51164
7.46476
7.4178
7.37078
7.32369
7.27653
7.22929
7.18199
7.13461
7.08716
7.03963
6.99204
6.94436
6.89661
6.84879
6.80089
6.75292
6.70487
6.65675
6.60855
6.56027
6.51191
6.46348
6.41497
6.36639
6.31773
6.26899
6.22017
6.17128
6.12231
6.07327
6.02415
5.97495
5.92567
5.87632
5.82689
5.77739
5.72781
5.67816
5.62843
5.57863
5.52875
5.47879
5.42876
5.37866
5.32848
5.27823
5.2279
5.1775
5.12702
5.07647
5.02584
4.97514
4.92437
4.87352
4.8226
4.7716
4.72052
4.66937
4.61814
4.56684
4.51546
4.464
4.41247
4.36085
4.30916
4.25739
4.20554
4.15361
4.10159
4.04949
3.99731
3.94505
3.89269
3.84025
3.78773
3.7351
3.68239
3.62959
3.57668
3.52368
3.47058
3.41738
3.36407
3.31066
3.25714
3.20351
3.14976
3.0959
3.04192
2.98783
2.93361
2.87926
2.82479
2.7702
2.71547
2.6606
2.60561
2.55047
2.4952
2.43979
2.38425
2.32856
2.27274
2.21678
2.16069
2.10446
2.0481
1.99161
1.935
1.87829
1.82144
1.76453
1.70757
1.65064
1.59384
1.53719
1.48067
1.42426
1.36795
1.31177
1.25575