/*--------------------------------*- C++ -*----------------------------------*\
| =========                 |                                                 |
| \\      /  F ield         | OpenFOAM: The Open Source CFD Toolbox           |
|  \\    /   O peration     | Version:  2512                                  |
|   \\  /    A nd           | Website:  www.openfoam.com                      |
|    \\/     M anipulation  |                                                 |
\*---------------------------------------------------------------------------*/
FoamFile
{
    version     2.0;
    format      ascii;
    arch        "LSB;label=32;scalar=64";
    class       surfaceScalarField;
    location    "0.1";
    object      phi;
}
// * * * * * * * * * * * * * * * * * * * * * * * * * * * * * * * * * * * * * //

dimensions      [1 0 -1 0 0 0 0];

oriented        oriented;

internalField   nonuniform List<scalar> 
198900
(
0.00191983
0.00056848
0.00140827
0.000511819
0.00104437
0.000363817
0.000862437
0.000181488
0.000788813
7.30935e-05
0.000762194
2.60991e-05
0.000756365
5.32744e-06
0.000756687
-8.12227e-07
0.000756677
-4.78408e-07
0.000755964
2.24301e-07
0.000755414
6.17262e-08
0.000755179
-2.52521e-07
0.000755131
-4.40389e-07
0.000755235
-5.91676e-07
0.000755486
-7.38386e-07
0.000755863
-8.64495e-07
0.000756343
-9.67323e-07
0.000756909
-1.05258e-06
0.000757542
-1.12046e-06
0.00075823
-1.17599e-06
0.000758963
-1.21926e-06
0.000759736
-1.26048e-06
0.000760541
-1.29196e-06
0.000761372
-1.31832e-06
0.000762224
-1.33994e-06
0.000763095
-1.35768e-06
0.00076398
-1.37234e-06
0.000764877
-1.38451e-06
0.000765784
-1.39454e-06
0.0007667
-1.40285e-06
0.000767622
-1.40973e-06
0.00076855
-1.41542e-06
0.000769483
-1.42012e-06
0.00077042
-1.424e-06
0.00077136
-1.4272e-06
0.000772302
-1.42983e-06
0.000773246
-1.43199e-06
0.000774193
-1.43375e-06
0.00077514
-1.4352e-06
0.000776089
-1.43637e-06
0.000777039
-1.43732e-06
0.000777989
-1.43808e-06
0.00077894
-1.43868e-06
0.000779891
-1.43916e-06
0.000780843
-1.43952e-06
0.000781795
-1.4398e-06
0.000782747
-1.43999e-06
0.000783699
-1.44012e-06
0.000784651
-1.4402e-06
0.000785603
-1.44023e-06
0.000786556
-1.44022e-06
0.000787508
-1.44018e-06
0.000788459
-1.44011e-06
0.000789411
-1.44001e-06
0.000790363
-1.43989e-06
0.000791314
-1.43976e-06
0.000792265
-1.4396e-06
0.000793216
-1.43943e-06
0.000794167
-1.43925e-06
0.000795117
-1.43906e-06
0.000796067
-1.43885e-06
0.000797017
-1.43864e-06
0.000797967
-1.43842e-06
0.000798916
-1.43819e-06
0.000799865
-1.43795e-06
0.000800814
-1.4377e-06
0.000801762
-1.43745e-06
0.00080271
-1.43719e-06
0.000803658
-1.43692e-06
0.000804605
-1.43665e-06
0.000805552
-1.43637e-06
0.000806499
-1.43609e-06
0.000807445
-1.4358e-06
0.000808391
-1.4355e-06
0.000809336
-1.4352e-06
0.000810281
-1.4349e-06
0.000811226
-1.43459e-06
0.00081217
-1.43428e-06
0.000813114
-1.43395e-06
0.000814058
-1.43363e-06
0.000815001
-1.4333e-06
0.000815944
-1.43296e-06
0.000816886
-1.43262e-06
0.000817828
-1.43228e-06
0.000818769
-1.43193e-06
0.00081971
-1.43158e-06
0.000820651
-1.43122e-06
0.000821591
-1.43085e-06
0.00082253
-1.43049e-06
0.00082347
-1.43012e-06
0.000824408
-1.42974e-06
0.000825346
-1.42936e-06
0.000826284
-1.42897e-06
0.000827221
-1.42858e-06
0.000828158
-1.42818e-06
0.000829094
-1.42778e-06
0.00083003
-1.42737e-06
0.000830965
-1.42696e-06
0.0008319
-1.42655e-06
0.000832834
-1.42612e-06
0.000833768
-1.4257e-06
0.000834701
-1.42527e-06
0.000835633
-1.42483e-06
0.000836565
-1.42439e-06
0.000837497
-1.42394e-06
0.000838428
-1.42349e-06
0.000839358
-1.42303e-06
0.000840288
-1.42257e-06
0.000841217
-1.4221e-06
0.000842145
-1.42162e-06
0.000843073
-1.42114e-06
0.000844001
-1.42065e-06
0.000844928
-1.42016e-06
0.000845854
-1.41965e-06
0.000846779
-1.41915e-06
0.000847704
-1.41863e-06
0.000848628
-1.4181e-06
0.000849552
-1.41757e-06
0.000850475
-1.41703e-06
0.000851397
-1.41648e-06
0.000852319
-1.41592e-06
0.000853239
-1.41535e-06
0.00085416
-1.41478e-06
0.000855079
-1.41418e-06
0.000855998
-1.41358e-06
0.000856916
-1.41296e-06
0.000857833
-1.41233e-06
0.000858749
-1.41168e-06
0.000859665
-1.41101e-06
0.00086058
-1.41031e-06
0.000861493
-1.4096e-06
0.000862406
-1.40884e-06
0.000863319
-1.40806e-06
0.00086423
-1.40723e-06
0.00086514
-1.40635e-06
0.000866049
-1.40539e-06
0.000866957
-1.40437e-06
0.000867863
-1.40321e-06
0.000868768
-1.40196e-06
0.000869672
-1.40048e-06
0.000870574
-1.39871e-06
0.000871473
-1.39704e-06
0.000872369
-1.39324e-06
0.000873265
-1.39352e-06
0.000874148
-1.38025e-06
0.000875043
-1.39308e-06
0.000875888
-1.34294e-06
0.000876771
-1.38129e-06
0.000877479
-1.1101e-06
0.000878649
-9.10614e-07
0.00087964
-1.56595e-06
0.000880638
-1.49678e-06
0.000881677
-1.53763e-06
0.000882704
-1.52655e-06
0.000883692
-1.48631e-06
0.000884672
-1.47964e-06
0.000885636
-1.46352e-06
0.000886588
-1.4514e-06
0.00088754
-1.45231e-06
0.00088849
-1.45018e-06
0.000889436
-1.44533e-06
0.000890377
-1.44218e-06
0.000891316
-1.43932e-06
0.000892253
-1.43699e-06
0.000893187
-1.4353e-06
0.000894119
-1.43334e-06
0.000895049
-1.4312e-06
0.000895977
-1.4292e-06
0.000896903
-1.42732e-06
0.000897827
-1.42551e-06
0.000898749
-1.42371e-06
0.000899668
-1.42185e-06
0.000900586
-1.41996e-06
0.000901502
-1.41805e-06
0.000902415
-1.4161e-06
0.000903326
-1.41411e-06
0.000904236
-1.41208e-06
0.000905142
-1.41001e-06
0.000906047
-1.40791e-06
0.000906949
-1.40578e-06
0.000907849
-1.40361e-06
0.000908747
-1.40142e-06
0.000909642
-1.39921e-06
0.000910534
-1.397e-06
0.000911425
-1.3948e-06
0.000912313
-1.39261e-06
0.000913198
-1.39046e-06
0.000914082
-1.38834e-06
0.000914963
-1.38629e-06
0.000915841
-1.38429e-06
0.000916718
-1.38237e-06
0.000917593
-1.38053e-06
0.000918466
-1.37876e-06
0.000919336
-1.37708e-06
0.000920205
-1.37548e-06
0.000921073
-1.37396e-06
0.000921938
-1.3725e-06
0.000922802
-1.37111e-06
0.000923665
-1.36978e-06
0.000924526
-1.3685e-06
0.000925386
-1.36727e-06
0.000926244
-1.36608e-06
0.000927101
-1.36493e-06
0.000927956
-1.36381e-06
0.00092881
-1.36272e-06
0.000929663
-1.36165e-06
0.000930515
-1.3606e-06
0.000931365
-1.35957e-06
0.000932215
-1.35856e-06
0.000933063
-1.35756e-06
0.000933909
-1.35657e-06
0.000934755
-1.35558e-06
0.000935599
-1.35461e-06
0.000936443
-1.35365e-06
0.000937285
-1.35268e-06
0.000938126
-1.35173e-06
0.000938965
-1.35077e-06
0.000939804
-1.34982e-06
0.000940641
-1.34887e-06
0.000941477
-1.34793e-06
0.000942312
-1.34698e-06
0.000943146
-1.34604e-06
0.000943979
-1.3451e-06
0.00094481
-1.34415e-06
0.000945641
-1.34321e-06
0.00094647
-1.34226e-06
0.000947298
-1.34132e-06
0.000948124
-1.34037e-06
0.00094895
-1.33942e-06
0.000949774
-1.33847e-06
0.000950598
-1.33752e-06
0.00095142
-1.33657e-06
0.000952241
-1.33561e-06
0.00095306
-1.33466e-06
0.000953879
-1.3337e-06
0.000954696
-1.33274e-06
0.000955512
-1.33177e-06
0.000956327
-1.33081e-06
0.000957141
-1.32984e-06
0.000957953
-1.32886e-06
0.000958764
-1.32789e-06
0.000959574
-1.32691e-06
0.000960383
-1.32593e-06
0.000961191
-1.32495e-06
0.000961997
-1.32396e-06
0.000962802
-1.32297e-06
0.000963606
-1.32198e-06
0.000964409
-1.32098e-06
0.00096521
-1.31999e-06
0.00096601
-1.31898e-06
0.000966809
-1.31798e-06
0.000967606
-1.31697e-06
0.000968403
-1.31596e-06
0.000969198
-1.31495e-06
0.000969992
-1.31393e-06
0.000970784
-1.31291e-06
0.000971575
-1.31188e-06
0.000972365
-1.31086e-06
0.000973154
-1.30982e-06
0.000973941
-1.30879e-06
0.000974727
-1.30775e-06
0.000975512
-1.30671e-06
0.000976295
-1.30567e-06
0.000977078
-1.30462e-06
0.000977858
-1.30357e-06
0.000978638
-1.30252e-06
0.000979416
-1.30146e-06
0.000980193
-1.3004e-06
0.000980969
-1.29934e-06
0.000981743
-1.29827e-06
0.000982516
-1.2972e-06
0.000983287
-1.29613e-06
0.000984057
-1.29506e-06
0.000984826
-1.29398e-06
0.000985594
-1.29289e-06
0.00098636
-1.29181e-06
0.000987124
-1.29072e-06
0.000987888
-1.28963e-06
0.00098865
-1.28853e-06
0.00098941
-1.28743e-06
0.00099017
-1.28633e-06
0.000990928
-1.28522e-06
0.000991684
-1.28411e-06
0.000992439
-1.283e-06
0.000993193
-1.28189e-06
0.000993945
-1.28077e-06
0.000994696
-1.27965e-06
0.000995446
-1.27852e-06
0.000996194
-1.27739e-06
0.00099694
-1.27626e-06
0.000997685
-1.27513e-06
0.000998429
-1.27399e-06
0.000999172
-1.27285e-06
0.000999913
-1.27171e-06
0.00100065
-1.27056e-06
0.00100139
-1.26941e-06
0.00100213
-1.26826e-06
0.00100286
-1.2671e-06
0.0010036
-1.26595e-06
0.00100433
-1.26478e-06
0.00100506
-1.26362e-06
0.00100579
-1.26245e-06
0.00100652
-1.26128e-06
0.00100724
-1.26011e-06
0.00100797
-1.25893e-06
0.00100869
-1.25775e-06
0.00100941
-1.25657e-06
0.00101013
-1.25539e-06
0.00101085
-1.25421e-06
0.00101157
-1.25302e-06
0.00101229
-1.25183e-06
0.001013
-1.25064e-06
0.00101371
-1.24945e-06
0.00101443
-1.24825e-06
0.00101514
-1.24706e-06
0.00101584
-1.24587e-06
0.00101655
-1.24468e-06
0.00101726
-1.24349e-06
0.00101796
-1.24231e-06
0.00101866
-1.24113e-06
0.00101937
-1.23997e-06
0.00102007
-1.23879e-06
0.00102076
-1.23768e-06
0.00102146
-1.23647e-06
0.00102216
-1.2355e-06
0.00102285
-1.23416e-06
0.00102354
-1.23337e-06
0.00102423
-1.23222e-06
0.00102492
-1.23044e-06
0.00102561
-1.23191e-06
0.0010263
-1.22501e-06
0.00102699
-1.23369e-06
0.00102767
-1.21986e-06
0.00102839
-1.21883e-06
0.00102909
-1.24341e-06
0.00102981
-1.25582e-06
0.00103053
-1.26645e-06
0.00103122
-1.24004e-06
0.0010319
-1.21802e-06
0.00103257
-1.21395e-06
0.00103324
-1.21498e-06
0.00103391
-1.21422e-06
0.00103457
-1.21256e-06
0.00103524
-1.21106e-06
0.0010359
-1.20971e-06
0.00103656
-1.20834e-06
0.00103722
-1.20697e-06
0.00103788
-1.2056e-06
0.00103854
-1.20425e-06
0.00103919
-1.2029e-06
0.00103984
-1.20157e-06
0.0010405
-1.20024e-06
0.00104115
-1.19891e-06
0.00104179
-1.19758e-06
0.00104244
-1.19626e-06
0.00104309
-1.19493e-06
0.00104373
-1.19361e-06
0.00104437
-1.19228e-06
0.00104501
-1.19095e-06
0.00104565
-1.18963e-06
0.00104629
-1.18829e-06
0.00104692
-1.18696e-06
0.00104755
-1.18562e-06
0.00104819
-1.18428e-06
0.00104882
-1.18294e-06
0.00104944
-1.1816e-06
0.00105007
-1.18025e-06
0.0010507
-1.1789e-06
0.00105132
-1.17755e-06
0.00105194
-1.1762e-06
0.00105256
-1.17484e-06
0.00105318
-1.17348e-06
0.00105379
-1.17212e-06
0.00105441
-1.17076e-06
0.00105502
-1.16939e-06
0.00105563
-1.16802e-06
0.00105624
-1.16664e-06
0.00105685
-1.16529e-06
0.00105746
-1.16388e-06
0.00105806
-1.16255e-06
0.00105866
-1.16113e-06
0.00105926
-1.15974e-06
0.00105986
-1.15836e-06
0.00106046
-1.15697e-06
0.00106106
-1.15559e-06
0.00106165
-1.15419e-06
0.00106224
-1.1528e-06
0.00106283
-1.1514e-06
0.00106342
-1.15e-06
0.00106401
-1.1486e-06
0.00106459
-1.14719e-06
0.00106518
-1.14578e-06
0.00106576
-1.14437e-06
0.00106634
-1.14296e-06
0.00106692
-1.14155e-06
0.00106749
-1.14013e-06
0.00106807
-1.13871e-06
0.00106864
-1.13729e-06
0.00106921
-1.13587e-06
0.00106978
-1.13445e-06
0.00107035
-1.13302e-06
0.00107091
-1.13159e-06
0.00107148
-1.13016e-06
0.00107204
-1.12873e-06
0.0010726
-1.1273e-06
0.00107316
-1.12586e-06
0.00107372
-1.12442e-06
0.00107427
-1.12298e-06
0.00107482
-1.12154e-06
0.00107537
-1.12009e-06
0.00107592
-1.11864e-06
0.00107647
-1.11719e-06
0.00107702
-1.11575e-06
0.00107756
-1.11429e-06
0.0010781
-1.11285e-06
0.00107864
-1.11138e-06
0.00107918
-1.10992e-06
0.00107972
-1.10846e-06
0.00108025
-1.107e-06
0.00108079
-1.10553e-06
0.00108132
-1.10407e-06
0.00108185
-1.1026e-06
0.00108238
-1.10113e-06
0.0010829
-1.09966e-06
0.00108343
-1.09818e-06
0.00108395
-1.09671e-06
0.00108447
-1.09523e-06
0.00108499
-1.09375e-06
0.0010855
-1.09227e-06
0.00108602
-1.09078e-06
0.00108653
-1.0893e-06
0.00108704
-1.08781e-06
0.00108755
-1.08632e-06
0.00108806
-1.08483e-06
0.00108856
-1.08334e-06
0.00108907
-1.08184e-06
0.00108957
-1.08034e-06
0.00109007
-1.07885e-06
0.00109056
-1.07734e-06
0.00109106
-1.07585e-06
0.00109155
-1.07432e-06
0.00109205
-1.07286e-06
0.00109254
-1.07131e-06
0.00109303
-1.0698e-06
0.00109351
-1.06829e-06
0.001094
-1.06678e-06
0.00109448
-1.06526e-06
0.00109496
-1.06374e-06
0.00109544
-1.06222e-06
0.00109592
-1.06069e-06
0.00109639
-1.05916e-06
0.00109686
-1.05763e-06
0.00109734
-1.0561e-06
0.00109781
-1.05456e-06
0.00109827
-1.05302e-06
0.00109874
-1.05148e-06
0.0010992
-1.04993e-06
0.00109966
-1.04839e-06
0.00110012
-1.04683e-06
0.00110058
-1.04527e-06
0.00110104
-1.0437e-06
0.00110149
-1.04214e-06
0.00110194
-1.04056e-06
0.00110239
-1.03898e-06
0.00110284
-1.03739e-06
0.00110329
-1.03579e-06
0.00110373
-1.03419e-06
0.00110417
-1.03256e-06
0.00110461
-1.03093e-06
0.00110505
-1.02927e-06
0.00110549
-1.0276e-06
0.00110592
-1.02588e-06
0.00110635
-1.02419e-06
0.00110678
-1.02232e-06
0.00110721
-1.02064e-06
0.00110763
-1.01866e-06
0.00110806
-1.01623e-06
0.00110848
-1.01683e-06
0.00110889
-1.00608e-06
0.00110932
-1.02483e-06
0.0011097
-9.79268e-07
0.00111013
-1.0223e-06
0.00111047
-9.55428e-07
0.00111082
-9.45478e-07
0.00111122
-9.90754e-07
0.00111173
-1.10785e-06
0.00111226
-1.13092e-06
0.00111275
-1.08635e-06
0.0011132
-1.04882e-06
0.00111364
-1.03866e-06
0.00111407
-1.02875e-06
0.00111449
-1.02119e-06
0.00111491
-1.0211e-06
0.00111533
-1.019e-06
0.00111574
-1.01437e-06
0.00111615
-1.01183e-06
0.00111656
-1.00996e-06
0.00111696
-1.00733e-06
0.00111737
-1.00469e-06
0.00111776
-1.00227e-06
0.00111816
-1.00001e-06
0.00111856
-9.97887e-07
0.00111895
-9.95772e-07
0.00111934
-9.93619e-07
0.00111972
-9.91472e-07
0.00112011
-9.89354e-07
0.00112049
-9.8726e-07
0.00112087
-9.85171e-07
0.00112124
-9.83075e-07
0.00112162
-9.8097e-07
0.00112199
-9.7886e-07
0.00112236
-9.76745e-07
0.00112272
-9.74622e-07
0.00112309
-9.72488e-07
0.00112345
-9.70345e-07
0.00112381
-9.68194e-07
0.00112416
-9.66038e-07
0.00112452
-9.63879e-07
0.00112487
-9.61719e-07
0.00112522
-9.59562e-07
0.00112556
-9.57415e-07
0.00112591
-9.55283e-07
0.00112625
-9.53171e-07
0.00112659
-9.51082e-07
0.00112692
-9.49024e-07
0.00112726
-9.46996e-07
0.00112759
-9.45001e-07
0.00112792
-9.43042e-07
0.00112824
-9.41118e-07
0.00112857
-9.39227e-07
0.00112889
-9.37367e-07
0.00112921
-9.35538e-07
0.00112953
-9.33734e-07
0.00112984
-9.31954e-07
0.00113016
-9.30196e-07
0.00113047
-9.28458e-07
0.00113078
-9.26737e-07
0.00113108
-9.2503e-07
0.00113139
-9.23338e-07
0.00113169
-9.21657e-07
0.00113199
-9.19986e-07
0.00113229
-9.18325e-07
0.00113259
-9.16672e-07
0.00113288
-9.15027e-07
0.00113317
-9.13385e-07
0.00113346
-9.1175e-07
0.00113375
-9.10122e-07
0.00113404
-9.08498e-07
0.00113432
-9.06876e-07
0.00113461
-9.05258e-07
0.00113489
-9.03644e-07
0.00113516
-9.02033e-07
0.00113544
-9.00425e-07
0.00113572
-8.98819e-07
0.00113599
-8.97216e-07
0.00113626
-8.95615e-07
0.00113653
-8.94016e-07
0.00113679
-8.92419e-07
0.00113706
-8.90824e-07
0.00113732
-8.8923e-07
0.00113758
-8.87638e-07
0.00113784
-8.86047e-07
0.00113809
-8.84458e-07
0.00113835
-8.8287e-07
0.0011386
-8.81283e-07
0.00113885
-8.79698e-07
0.0011391
-8.78113e-07
0.00113935
-8.7653e-07
0.00113959
-8.74948e-07
0.00113983
-8.73366e-07
0.00114007
-8.71785e-07
0.00114031
-8.70206e-07
0.00114055
-8.68627e-07
0.00114078
-8.67049e-07
0.00114102
-8.65473e-07
0.00114125
-8.63896e-07
0.00114148
-8.62321e-07
0.0011417
-8.60747e-07
0.00114193
-8.59173e-07
0.00114215
-8.57601e-07
0.00114237
-8.5603e-07
0.00114259
-8.54459e-07
0.00114281
-8.52888e-07
0.00114302
-8.51319e-07
0.00114324
-8.49751e-07
0.00114345
-8.48183e-07
0.00114366
-8.46616e-07
0.00114386
-8.4505e-07
0.00114407
-8.43485e-07
0.00114427
-8.41921e-07
0.00114447
-8.40358e-07
0.00114467
-8.38795e-07
0.00114487
-8.37234e-07
0.00114507
-8.35673e-07
0.00114526
-8.34114e-07
0.00114545
-8.32556e-07
0.00114564
-8.30998e-07
0.00114583
-8.29441e-07
0.00114601
-8.27885e-07
0.0011462
-8.26331e-07
0.00114638
-8.24777e-07
0.00114656
-8.23224e-07
0.00114674
-8.21672e-07
0.00114691
-8.20122e-07
0.00114709
-8.18572e-07
0.00114726
-8.17023e-07
0.00114743
-8.15476e-07
0.0011476
-8.13929e-07
0.00114776
-8.12384e-07
0.00114793
-8.10841e-07
0.00114809
-8.09298e-07
0.00114825
-8.07755e-07
0.00114841
-8.06215e-07
0.00114857
-8.04676e-07
0.00114872
-8.03137e-07
0.00114887
-8.01601e-07
0.00114902
-8.00065e-07
0.00114917
-7.98531e-07
0.00114932
-7.96998e-07
0.00114947
-7.95467e-07
0.00114961
-7.93937e-07
0.00114975
-7.92408e-07
0.00114989
-7.90881e-07
0.00115003
-7.89355e-07
0.00115016
-7.87831e-07
0.0011503
-7.86308e-07
0.00115043
-7.84787e-07
0.00115056
-7.83267e-07
0.00115069
-7.81748e-07
0.00115081
-7.80231e-07
0.00115094
-7.78716e-07
0.00115106
-7.77202e-07
0.00115118
-7.75689e-07
0.0011513
-7.74179e-07
0.00115141
-7.7267e-07
0.00115153
-7.71162e-07
0.00115164
-7.69657e-07
0.00115175
-7.68153e-07
0.00115186
-7.6665e-07
0.00115197
-7.65149e-07
0.00115207
-7.6365e-07
0.00115218
-7.62153e-07
0.00115228
-7.60659e-07
0.00115238
-7.59165e-07
0.00115248
-7.57673e-07
0.00115257
-7.56184e-07
0.00115267
-7.54695e-07
0.00115276
-7.5321e-07
0.00115285
-7.51728e-07
0.00115294
-7.50247e-07
0.00115302
-7.48768e-07
0.00115311
-7.47293e-07
0.00115319
-7.45819e-07
0.00115327
-7.44352e-07
0.00115335
-7.42877e-07
0.00115343
-7.41436e-07
0.00115351
-7.39927e-07
0.00115358
-7.38586e-07
0.00115365
-7.36926e-07
0.00115372
-7.35827e-07
0.00115379
-7.34029e-07
0.00115386
-7.3247e-07
0.00115392
-7.32808e-07
0.00115398
-7.25809e-07
0.00115405
-7.36414e-07
0.00115411
-7.239e-07
0.00115411
-7.59423e-07
0.00115415
-7.20114e-07
0.00115423
-7.52436e-07
0.00115432
-7.60219e-07
0.00115439
-7.33633e-07
0.00115443
-7.16065e-07
0.00115448
-7.14319e-07
0.00115452
-7.1507e-07
0.00115457
-7.13965e-07
0.00115461
-7.12363e-07
0.00115465
-7.10936e-07
0.00115468
-7.09554e-07
0.00115472
-7.08145e-07
0.00115475
-7.06722e-07
0.00115479
-7.053e-07
0.00115482
-7.03879e-07
0.00115484
-7.02459e-07
0.00115487
-7.01041e-07
0.0011549
-6.99625e-07
0.00115492
-6.98211e-07
0.00115494
-6.968e-07
0.00115496
-6.95392e-07
0.00115498
-6.93987e-07
0.001155
-6.92584e-07
0.00115501
-6.91184e-07
0.00115502
-6.89788e-07
0.00115503
-6.88393e-07
0.00115504
-6.87001e-07
0.00115505
-6.85614e-07
0.00115506
-6.84228e-07
0.00115506
-6.82845e-07
0.00115506
-6.81466e-07
0.00115507
-6.80089e-07
0.00115506
-6.78715e-07
0.00115506
-6.77344e-07
0.00115506
-6.75976e-07
0.00115505
-6.74611e-07
0.00115504
-6.73249e-07
0.00115503
-6.71889e-07
0.00115502
-6.70533e-07
0.00115501
-6.6918e-07
0.001155
-6.67829e-07
0.00115498
-6.66481e-07
0.00115496
-6.65137e-07
0.00115494
-6.63795e-07
0.00115492
-6.62455e-07
0.0011549
-6.61119e-07
0.00115487
-6.59787e-07
0.00115485
-6.58457e-07
0.00115482
-6.57129e-07
0.00115479
-6.55805e-07
0.00115476
-6.54485e-07
0.00115472
-6.53167e-07
0.00115469
-6.51852e-07
0.00115465
-6.5054e-07
0.00115462
-6.49231e-07
0.00115458
-6.47925e-07
0.00115453
-6.46623e-07
0.00115449
-6.45323e-07
0.00115445
-6.44027e-07
0.0011544
-6.42734e-07
0.00115435
-6.41444e-07
0.0011543
-6.40158e-07
0.00115425
-6.38874e-07
0.0011542
-6.37593e-07
0.00115415
-6.36316e-07
0.00115409
-6.35043e-07
0.00115403
-6.33772e-07
0.00115398
-6.32504e-07
0.00115392
-6.3124e-07
0.00115385
-6.29979e-07
0.00115379
-6.28722e-07
0.00115373
-6.27468e-07
0.00115366
-6.26218e-07
0.00115359
-6.2497e-07
0.00115352
-6.23726e-07
0.00115345
-6.22486e-07
0.00115338
-6.21249e-07
0.0011533
-6.20015e-07
0.00115323
-6.18785e-07
0.00115315
-6.17558e-07
0.00115307
-6.16335e-07
0.00115299
-6.15116e-07
0.00115291
-6.139e-07
0.00115282
-6.12687e-07
0.00115274
-6.11478e-07
0.00115265
-6.10272e-07
0.00115256
-6.09071e-07
0.00115247
-6.07873e-07
0.00115238
-6.06678e-07
0.00115229
-6.05487e-07
0.0011522
-6.043e-07
0.0011521
-6.03117e-07
0.001152
-6.01938e-07
0.0011519
-6.00762e-07
0.0011518
-5.9959e-07
0.0011517
-5.98422e-07
0.0011516
-5.97259e-07
0.0011515
-5.96099e-07
0.00115139
-5.94942e-07
0.00115128
-5.9379e-07
0.00115117
-5.92642e-07
0.00115106
-5.91498e-07
0.00115095
-5.90358e-07
0.00115084
-5.89223e-07
0.00115073
-5.88092e-07
0.00115061
-5.86965e-07
0.00115049
-5.85843e-07
0.00115037
-5.84725e-07
0.00115025
-5.83611e-07
0.00115013
-5.82503e-07
0.00115001
-5.81399e-07
0.00114989
-5.80301e-07
0.00114976
-5.79206e-07
0.00114963
-5.78117e-07
0.0011495
-5.77033e-07
0.00114938
-5.75954e-07
0.00114924
-5.7488e-07
0.00114911
-5.73812e-07
0.00114898
-5.7275e-07
0.00114884
-5.71694e-07
0.00114871
-5.70644e-07
0.00114857
-5.69601e-07
0.00114843
-5.68564e-07
0.00114829
-5.67536e-07
0.00114815
-5.66514e-07
0.00114801
-5.65501e-07
0.00114786
-5.64498e-07
0.00114772
-5.63505e-07
0.00114757
-5.62523e-07
0.00114742
-5.61556e-07
0.00114727
-5.60604e-07
0.00114712
-5.59671e-07
0.00114697
-5.58761e-07
0.00114682
-5.5788e-07
0.00114667
-5.57037e-07
0.00114651
-5.56241e-07
0.00114636
-5.55511e-07
0.0011462
-5.54861e-07
0.00114604
-5.54346e-07
0.00114588
-5.53962e-07
0.00114573
-5.53886e-07
0.00114557
-5.54098e-07
0.00114541
-5.54707e-07
0.00114525
-5.57497e-07
0.0011451
-5.56138e-07
0.00114496
-5.76848e-07
0.0011448
-5.53369e-07
0.00114477
-6.83067e-07
0.00114461
-7.01168e-07
0.00114403
-1.25142e-06
0.00114389
-4.5507e-07
0.00114364
-4.68478e-07
0.00114346
-5.37232e-07
0.0011433
-5.497e-07
0.00114312
-5.42166e-07
0.00114293
-5.26811e-07
0.00114274
-5.25063e-07
0.00114256
-5.2821e-07
0.00114237
-5.25544e-07
0.00114217
-5.23448e-07
0.00114198
-5.22167e-07
0.00114178
-5.20687e-07
0.00114158
-5.20237e-07
0.00114139
-5.19887e-07
0.00114119
-5.19085e-07
0.00114099
-5.18245e-07
0.00114079
-5.17487e-07
0.00114059
-5.16822e-07
0.00114038
-5.16229e-07
0.00114018
-5.15634e-07
0.00113998
-5.15029e-07
0.00113977
-5.1444e-07
0.00113957
-5.13881e-07
0.00113936
-5.13353e-07
0.00113915
-5.12856e-07
0.00113894
-5.12381e-07
0.00113874
-5.11925e-07
0.00113853
-5.11492e-07
0.00113832
-5.11077e-07
0.00113811
-5.10675e-07
0.0011379
-5.10283e-07
0.00113769
-5.09892e-07
0.00113747
-5.09491e-07
0.00113726
-5.09078e-07
0.00113705
-5.08647e-07
0.00113683
-5.08188e-07
0.00113662
-5.07699e-07
0.0011364
-5.07179e-07
0.00113619
-5.06631e-07
0.00113597
-5.06056e-07
0.00113575
-5.05455e-07
0.00113553
-5.04833e-07
0.00113532
-5.04192e-07
0.0011351
-5.03538e-07
0.00113487
-5.02874e-07
0.00113465
-5.02202e-07
0.00113443
-5.01526e-07
0.00113421
-5.00847e-07
0.00113398
-5.00167e-07
0.00113376
-4.99487e-07
0.00113353
-4.98807e-07
0.0011333
-4.9813e-07
0.00113308
-4.97454e-07
0.00113285
-4.96782e-07
0.00113262
-4.96112e-07
0.00113239
-4.95447e-07
0.00113216
-4.94787e-07
0.00113192
-4.9413e-07
0.00113169
-4.93476e-07
0.00113146
-4.92824e-07
0.00113122
-4.9218e-07
0.00113099
-4.91542e-07
0.00113075
-4.90906e-07
0.00113052
-4.90274e-07
0.00113028
-4.89648e-07
0.00113004
-4.89026e-07
0.0011298
-4.8841e-07
0.00112956
-4.87798e-07
0.00112932
-4.87191e-07
0.00112908
-4.86589e-07
0.00112884
-4.85992e-07
0.00112859
-4.854e-07
0.00112835
-4.84813e-07
0.00112811
-4.84232e-07
0.00112786
-4.83655e-07
0.00112762
-4.83084e-07
0.00112737
-4.82518e-07
0.00112712
-4.81957e-07
0.00112687
-4.81402e-07
0.00112663
-4.80852e-07
0.00112638
-4.80308e-07
0.00112613
-4.79769e-07
0.00112588
-4.79236e-07
0.00112562
-4.78709e-07
0.00112537
-4.78187e-07
0.00112512
-4.77671e-07
0.00112487
-4.7716e-07
0.00112461
-4.76656e-07
0.00112436
-4.76157e-07
0.0011241
-4.75665e-07
0.00112385
-4.75178e-07
0.00112359
-4.74698e-07
0.00112333
-4.74224e-07
0.00112308
-4.73757e-07
0.00112282
-4.73296e-07
0.00112256
-4.72842e-07
0.0011223
-4.72394e-07
0.00112204
-4.71954e-07
0.00112178
-4.71521e-07
0.00112152
-4.71095e-07
0.00112126
-4.70677e-07
0.001121
-4.70266e-07
0.00112073
-4.69863e-07
0.00112047
-4.69469e-07
0.00112021
-4.69083e-07
0.00111994
-4.68706e-07
0.00111968
-4.68338e-07
0.00111941
-4.6798e-07
0.00111915
-4.67632e-07
0.00111888
-4.67294e-07
0.00111862
-4.66968e-07
0.00111835
-4.66652e-07
0.00111808
-4.66349e-07
0.00111782
-4.66059e-07
0.00111755
-4.65781e-07
0.00111728
-4.65519e-07
0.00111701
-4.65271e-07
0.00111674
-4.65039e-07
0.00111647
-4.64824e-07
0.0011162
-4.64627e-07
0.00111594
-4.64449e-07
0.00111567
-4.64292e-07
0.0011154
-4.64157e-07
0.00111513
-4.64046e-07
0.00111485
-4.6396e-07
0.00111458
-4.63902e-07
0.00111431
-4.63873e-07
0.00111404
-4.63875e-07
0.00111377
-4.63911e-07
0.0011135
-4.63985e-07
0.00111323
-4.64097e-07
0.00111296
-4.64253e-07
0.00111269
-4.64455e-07
0.00111242
-4.64708e-07
0.00111215
-4.65015e-07
0.00111188
-4.65382e-07
0.00111161
-4.65813e-07
0.00111134
-4.66313e-07
0.00111107
-4.66888e-07
0.00111081
-4.67547e-07
0.00111054
-4.68295e-07
0.00111027
-4.6914e-07
0.00111001
-4.70092e-07
0.00110974
-4.7116e-07
0.00110948
-4.72354e-07
0.00110922
-4.73685e-07
0.00110896
-4.75167e-07
0.0011087
-4.76812e-07
0.00110844
-4.78637e-07
0.00110818
-4.80657e-07
0.00110793
-4.82891e-07
0.00110768
-4.85356e-07
0.00110743
-4.88078e-07
0.00110719
-4.91079e-07
0.00110695
-4.94386e-07
0.00110671
-4.98026e-07
0.00110647
-5.02033e-07
0.00110624
-5.06441e-07
0.00110602
-5.11287e-07
0.0011058
-5.16614e-07
0.00110559
-5.22468e-07
0.00110538
-5.28901e-07
0.00110518
-5.3597e-07
0.00110499
-5.43736e-07
0.0011048
-5.52271e-07
0.00110463
-5.61649e-07
0.00110446
-5.7196e-07
0.00110431
-5.83305e-07
0.00110417
-5.95785e-07
0.00110404
-6.09554e-07
0.00110393
-6.24682e-07
0.00110384
-6.41596e-07
0.00110376
-6.59731e-07
0.0011037
-6.81487e-07
0.00110367
-7.01619e-07
0.00110367
-7.33528e-07
0.00110368
-7.50853e-07
0.00110375
-8.00419e-07
0.00110384
-8.28436e-07
0.00110395
-8.44967e-07
0.00110423
-1.02283e-06
0.00110438
-8.8406e-07
-1.13113e-06
0.00254284
0.000514779
0.0024216
0.000633981
0.00222008
0.000566153
0.00204941
0.000352789
0.00194457
0.000178526
0.00188665
8.46584e-05
0.00185766
3.50121e-05
0.00184359
1.39739e-05
0.00183532
8.53292e-06
0.00182944
6.8534e-06
0.00182519
5.06133e-06
0.00182212
3.55889e-06
0.00181988
2.54507e-06
0.00181826
1.78208e-06
0.00181711
1.15597e-06
0.00181634
6.5138e-07
0.00181588
2.46808e-07
0.00181565
-8.14942e-08
0.00181561
-3.2967e-07
0.00181572
-5.38047e-07
0.00181595
-7.04269e-07
0.00181629
-8.49194e-07
0.00181671
-9.65243e-07
0.0018172
-1.06057e-06
0.00181775
-1.13886e-06
0.00181834
-1.20315e-06
0.00181897
-1.25637e-06
0.00181963
-1.30051e-06
0.00182032
-1.337e-06
0.00182103
-1.36726e-06
0.00182176
-1.39239e-06
0.0018225
-1.41324e-06
0.00182326
-1.43057e-06
0.00182403
-1.44498e-06
0.0018248
-1.45696e-06
0.00182558
-1.46693e-06
0.00182637
-1.47523e-06
0.00182716
-1.48214e-06
0.00182796
-1.4879e-06
0.00182876
-1.4927e-06
0.00182956
-1.4967e-06
0.00183036
-1.50004e-06
0.00183117
-1.50283e-06
0.00183198
-1.50516e-06
0.00183279
-1.5071e-06
0.0018336
-1.50873e-06
0.00183441
-1.5101e-06
0.00183522
-1.51124e-06
0.00183603
-1.5122e-06
0.00183684
-1.51301e-06
0.00183765
-1.51368e-06
0.00183847
-1.51425e-06
0.00183928
-1.51472e-06
0.00184009
-1.51512e-06
0.0018409
-1.51546e-06
0.00184172
-1.51574e-06
0.00184253
-1.51597e-06
0.00184334
-1.51617e-06
0.00184415
-1.51633e-06
0.00184496
-1.51647e-06
0.00184578
-1.51658e-06
0.00184659
-1.51667e-06
0.0018474
-1.51675e-06
0.00184821
-1.51681e-06
0.00184902
-1.51686e-06
0.00184983
-1.51689e-06
0.00185064
-1.51692e-06
0.00185145
-1.51693e-06
0.00185226
-1.51694e-06
0.00185307
-1.51694e-06
0.00185388
-1.51694e-06
0.00185469
-1.51693e-06
0.00185549
-1.51692e-06
0.0018563
-1.5169e-06
0.00185711
-1.51688e-06
0.00185792
-1.51685e-06
0.00185872
-1.51682e-06
0.00185953
-1.51679e-06
0.00186033
-1.51675e-06
0.00186114
-1.51671e-06
0.00186194
-1.51667e-06
0.00186275
-1.51663e-06
0.00186355
-1.51658e-06
0.00186436
-1.51653e-06
0.00186516
-1.51648e-06
0.00186596
-1.51642e-06
0.00186676
-1.51637e-06
0.00186757
-1.51631e-06
0.00186837
-1.51626e-06
0.00186917
-1.5162e-06
0.00186997
-1.51613e-06
0.00187077
-1.51607e-06
0.00187157
-1.516e-06
0.00187237
-1.51593e-06
0.00187317
-1.51586e-06
0.00187396
-1.51579e-06
0.00187476
-1.51571e-06
0.00187556
-1.51564e-06
0.00187636
-1.51556e-06
0.00187715
-1.51547e-06
0.00187795
-1.51539e-06
0.00187874
-1.51531e-06
0.00187954
-1.51522e-06
0.00188033
-1.51513e-06
0.00188112
-1.51503e-06
0.00188192
-1.51493e-06
0.00188271
-1.51483e-06
0.0018835
-1.51472e-06
0.00188429
-1.51461e-06
0.00188508
-1.5145e-06
0.00188587
-1.51438e-06
0.00188666
-1.51426e-06
0.00188745
-1.51413e-06
0.00188824
-1.514e-06
0.00188903
-1.51386e-06
0.00188981
-1.51372e-06
0.0018906
-1.51356e-06
0.00189138
-1.5134e-06
0.00189217
-1.51323e-06
0.00189295
-1.51306e-06
0.00189374
-1.51287e-06
0.00189452
-1.51267e-06
0.0018953
-1.51246e-06
0.00189608
-1.51224e-06
0.00189686
-1.512e-06
0.00189764
-1.51175e-06
0.00189842
-1.51147e-06
0.0018992
-1.51117e-06
0.00189998
-1.51084e-06
0.00190076
-1.51049e-06
0.00190153
-1.51009e-06
0.00190231
-1.50965e-06
0.00190308
-1.50915e-06
0.00190386
-1.50859e-06
0.00190463
-1.50795e-06
0.0019054
-1.50719e-06
0.00190617
-1.50632e-06
0.00190694
-1.50524e-06
0.00190771
-1.504e-06
0.00190848
-1.50238e-06
0.00190924
-1.50047e-06
0.00191001
-1.49801e-06
0.00191077
-1.49447e-06
0.00191153
-1.49142e-06
0.00191229
-1.48029e-06
0.00191304
-1.48727e-06
0.00191378
-1.42597e-06
0.00191454
-1.48872e-06
0.00191522
-1.21014e-06
0.00191611
-9.73674e-07
0.00191709
-1.10174e-06
0.00191796
-1.76119e-06
0.00191869
-1.61351e-06
0.00191949
-1.67851e-06
0.00192032
-1.66682e-06
0.00192115
-1.66867e-06
0.00192197
-1.63752e-06
0.00192277
-1.61428e-06
0.00192358
-1.61779e-06
0.00192438
-1.61485e-06
0.00192518
-1.60704e-06
0.00192598
-1.60259e-06
0.00192678
-1.59799e-06
0.00192757
-1.59443e-06
0.00192836
-1.59241e-06
0.00192914
-1.58993e-06
0.00192993
-1.58711e-06
0.00193071
-1.58452e-06
0.0019315
-1.58212e-06
0.00193228
-1.57992e-06
0.00193305
-1.57777e-06
0.00193383
-1.57552e-06
0.0019346
-1.57322e-06
0.00193538
-1.57092e-06
0.00193615
-1.56856e-06
0.00193692
-1.56612e-06
0.00193768
-1.56362e-06
0.00193845
-1.56106e-06
0.00193921
-1.55845e-06
0.00193997
-1.55581e-06
0.00194073
-1.5531e-06
0.00194148
-1.55036e-06
0.00194224
-1.5476e-06
0.00194299
-1.54485e-06
0.00194374
-1.54211e-06
0.00194449
-1.5394e-06
0.00194523
-1.53675e-06
0.00194598
-1.53419e-06
0.00194672
-1.53172e-06
0.00194746
-1.52937e-06
0.0019482
-1.52714e-06
0.00194893
-1.52505e-06
0.00194967
-1.5231e-06
0.0019504
-1.52131e-06
0.00195113
-1.51967e-06
0.00195186
-1.51816e-06
0.00195258
-1.51678e-06
0.00195331
-1.51553e-06
0.00195403
-1.5144e-06
0.00195476
-1.51337e-06
0.00195548
-1.51244e-06
0.0019562
-1.51159e-06
0.00195692
-1.51082e-06
0.00195763
-1.51012e-06
0.00195835
-1.50948e-06
0.00195907
-1.50888e-06
0.00195978
-1.50833e-06
0.00196049
-1.50783e-06
0.0019612
-1.50736e-06
0.00196191
-1.50693e-06
0.00196262
-1.50651e-06
0.00196333