/*--------------------------------*- C++ -*----------------------------------*\
| =========                 |                                                 |
| \\      /  F ield         | OpenFOAM: The Open Source CFD Toolbox           |
|  \\    /   O peration     | Version:  2512                                  |
|   \\  /    A nd           | Website:  www.openfoam.com                      |
|    \\/     M anipulation  |                                                 |
\*---------------------------------------------------------------------------*/
FoamFile
{
    version     2.0;
    format      ascii;
    arch        "LSB;label=32;scalar=64";
    class       volVectorField;
    location    "0.1";
    object      U;
}
// * * * * * * * * * * * * * * * * * * * * * * * * * * * * * * * * * * * * * //

dimensions      [0 1 -1 0 0 0 0];

internalField   nonuniform List<vector> 
100000
(
(0.050225 0.00351778 1.2905e-20)
(0.040385 0.00253184 6.44782e-21)
(0.0282397 0.00122874 2.26459e-20)
(0.0221272 0.000344447 5.67478e-20)
(0.0195993 3.91032e-05 1.1883e-19)
(0.0185481 -2.82936e-05 -1.3432e-19)
(0.0182271 -4.17217e-05 -2.02365e-19)
(0.0181959 -3.1055e-05 -4.07184e-19)
(0.0182142 -1.57501e-05 -5.66722e-19)
(0.0182082 -9.29368e-06 -5.52509e-19)
(0.0181925 -8.88654e-06 -3.67297e-19)
(0.0181831 -8.79915e-06 -2.77393e-19)
(0.0181802 -8.32887e-06 1.2664e-19)
(0.0181813 -8.03562e-06 -5.33302e-19)
(0.0181858 -7.96257e-06 1.23585e-18)
(0.0181935 -7.9836e-06 -2.40949e-18)
(0.0182039 -8.05714e-06 5.20033e-18)
(0.0182166 -8.07228e-06 -1.47967e-17)
(0.0182311 -7.81032e-06 -5.00025e-18)
(0.0182471 -7.6533e-06 -5.92985e-18)
(0.0182642 -7.54374e-06 3.2821e-18)
(0.0182824 -7.43348e-06 -1.49047e-17)
(0.0183014 -7.40334e-06 -5.43715e-18)
(0.0183211 -7.38916e-06 -6.07092e-18)
(0.0183414 -7.3808e-06 2.96077e-18)
(0.0183622 -7.37804e-06 -1.44855e-17)
(0.0183833 -7.37871e-06 -6.60082e-18)
(0.0184048 -7.38133e-06 -3.63563e-18)
(0.0184265 -7.38431e-06 -1.92295e-18)
(0.0184485 -7.38694e-06 -9.80149e-19)
(0.0184706 -7.38894e-06 -1.70436e-19)
(0.0184929 -7.39025e-06 -6.24391e-19)
(0.0185153 -7.39108e-06 1.17473e-18)
(0.0185378 -7.39149e-06 -2.38401e-18)
(0.0185604 -7.3915e-06 5.00588e-18)
(0.018583 -7.39123e-06 -1.36526e-17)
(0.0186058 -7.39076e-06 -6.21491e-18)
(0.0186285 -7.39009e-06 -3.50889e-18)
(0.0186513 -7.38928e-06 -1.80526e-18)
(0.0186742 -7.38836e-06 -1.00337e-18)
(0.018697 -7.38735e-06 -2.02447e-19)
(0.0187199 -7.38627e-06 -1.5701e-19)
(0.0187428 -7.38514e-06 -6.09282e-20)
(0.0187657 -7.38398e-06 1.14468e-19)
(0.0187886 -7.38279e-06 2.44328e-19)
(0.0188115 -7.38153e-06 1.95793e-19)
(0.0188344 -7.38025e-06 2.43356e-19)
(0.0188573 -7.37896e-06 -6.22841e-21)
(0.0188803 -7.37763e-06 2.16334e-19)
(0.0189032 -7.37625e-06 -6.20011e-21)
(0.0189261 -7.37485e-06 -1.21672e-20)
(0.018949 -7.37343e-06 1.02246e-19)
(0.018972 -7.37197e-06 3.01769e-19)
(0.0189949 -7.37048e-06 -2.18359e-21)
(0.0190178 -7.36897e-06 7.41808e-19)
(0.0190407 -7.36744e-06 -1.19647e-18)
(0.0190636 -7.36588e-06 2.6569e-18)
(0.0190865 -7.36428e-06 -5.08218e-18)
(0.0191094 -7.36265e-06 1.38479e-17)
(0.0191323 -7.361e-06 6.54661e-18)
(0.0191552 -7.35932e-06 3.80757e-18)
(0.019178 -7.35761e-06 2.16153e-18)
(0.0192009 -7.35586e-06 1.09556e-18)
(0.0192238 -7.35408e-06 5.04405e-19)
(0.0192466 -7.35226e-06 2.0642e-19)
(0.0192694 -7.35043e-06 1.3892e-19)
(0.0192923 -7.34856e-06 -2.92656e-21)
(0.0193151 -7.34666e-06 1.76612e-19)
(0.0193379 -7.34474e-06 -8.19387e-20)
(0.0193607 -7.3428e-06 1.25398e-19)
(0.0193836 -7.34082e-06 1.2879e-19)
(0.0194063 -7.33881e-06 -2.06896e-20)
(0.0194291 -7.33679e-06 -1.2265e-19)
(0.0194519 -7.33473e-06 -1.16042e-19)
(0.0194747 -7.33264e-06 -5.54387e-20)
(0.0194974 -7.33051e-06 1.89999e-21)
(0.0195202 -7.32835e-06 3.70874e-20)
(0.0195429 -7.32618e-06 5.16552e-20)
(0.0195657 -7.32397e-06 6.27031e-20)
(0.0195884 -7.32172e-06 4.84087e-20)
(0.0196111 -7.31944e-06 9.32218e-20)
(0.0196338 -7.31714e-06 -8.65549e-21)
(0.0196565 -7.31482e-06 1.836e-19)
(0.0196792 -7.31246e-06 -7.9668e-20)
(0.0197018 -7.31007e-06 1.39285e-19)
(0.0197245 -7.30766e-06 1.36517e-19)
(0.0197472 -7.30522e-06 -2.22596e-20)
(0.0197698 -7.30273e-06 -1.24937e-19)
(0.0197924 -7.30022e-06 -1.14529e-19)
(0.019815 -7.2977e-06 -5.1452e-20)
(0.0198376 -7.29513e-06 6.32008e-21)
(0.0198602 -7.29252e-06 4.02661e-20)
(0.0198828 -7.2899e-06 5.58111e-20)
(0.0199054 -7.28724e-06 5.97365e-20)
(0.019928 -7.28457e-06 6.59231e-20)
(0.0199505 -7.28186e-06 5.02972e-20)
(0.019973 -7.27912e-06 9.36324e-20)
(0.0199956 -7.27635e-06 -7.10419e-21)
(0.0200181 -7.27355e-06 1.83936e-19)
(0.0200406 -7.27071e-06 -7.97506e-20)
(0.0200631 -7.26786e-06 1.41252e-19)
(0.0200855 -7.26495e-06 1.37202e-19)
(0.020108 -7.26201e-06 -2.39554e-20)
(0.0201304 -7.25904e-06 -1.26443e-19)
(0.0201529 -7.25604e-06 -1.14964e-19)
(0.0201753 -7.25301e-06 -5.14073e-20)
(0.0201977 -7.24994e-06 6.2662e-21)
(0.0202201 -7.24683e-06 3.99786e-20)
(0.0202425 -7.2437e-06 5.46417e-20)
(0.0202648 -7.24053e-06 5.92453e-20)
(0.0202872 -7.23733e-06 6.00393e-20)
(0.0203095 -7.23411e-06 5.91226e-20)
(0.0203318 -7.23084e-06 5.87448e-20)
(0.0203541 -7.22752e-06 5.64628e-20)
(0.0203764 -7.22417e-06 5.79733e-20)
(0.0203987 -7.22077e-06 5.25961e-20)
(0.020421 -7.21733e-06 5.34515e-20)
(0.0204432 -7.21386e-06 4.78577e-20)
(0.0204654 -7.21033e-06 3.81233e-20)
(0.0204876 -7.20676e-06 3.1575e-20)
(0.0205098 -7.20315e-06 3.15959e-20)
(0.020532 -7.19949e-06 3.65571e-20)
(0.0205542 -7.19581e-06 4.25727e-20)
(0.0205763 -7.19206e-06 4.761e-20)
(0.0205985 -7.18825e-06 5.10796e-20)
(0.0206206 -7.18438e-06 5.32788e-20)
(0.0206427 -7.18045e-06 5.46955e-20)
(0.0206647 -7.17644e-06 5.55507e-20)
(0.0206868 -7.17235e-06 5.59133e-20)
(0.0207088 -7.16814e-06 5.61983e-20)
(0.0207308 -7.16384e-06 5.65863e-20)
(0.0207528 -7.1594e-06 5.56208e-20)
(0.0207748 -7.15481e-06 6.04036e-20)
(0.0207967 -7.15003e-06 4.08387e-20)
(0.0208187 -7.14505e-06 1.10885e-19)
(0.0208406 -7.13975e-06 -1.17946e-19)
(0.0208624 -7.13418e-06 5.35057e-19)
(0.0208843 -7.12809e-06 -1.10159e-18)
(0.0209061 -7.12161e-06 2.51508e-18)
(0.0209279 -7.11438e-06 -5.11317e-18)
(0.0209496 -7.10534e-06 1.41774e-17)
(0.0209713 -7.09875e-06 6.59087e-18)
(0.0209929 -7.07669e-06 3.66363e-18)
(0.0210145 -7.08868e-06 1.96946e-18)
(0.0210357 -7.00616e-06 9.50998e-19)
(0.0210577 -7.09692e-06 4.20443e-19)
(0.0210773 -6.85893e-06 1.8625e-19)
(0.0211002 -6.98626e-06 9.72557e-20)
(0.0211159 -5.74176e-06 6.76303e-20)
(0.021144 -4.62452e-06 5.88336e-20)
(0.021167 -9.52687e-06 5.6678e-20)
(0.0211893 -8.0791e-06 5.64989e-20)
(0.0212151 -8.50458e-06 5.68904e-20)
(0.0212401 -7.72546e-06 5.74785e-20)
(0.0212644 -7.16066e-06 5.7884e-20)
(0.0212881 -7.07887e-06 5.82164e-20)
(0.0213115 -7.13321e-06 5.85301e-20)
(0.0213346 -7.18594e-06 5.89345e-20)
(0.0213575 -7.20422e-06 5.91986e-20)
(0.0213804 -7.19122e-06 5.96008e-20)
(0.0214032 -7.18183e-06 6.00246e-20)
(0.0214259 -7.18199e-06 6.01536e-20)
(0.0214486 -7.17905e-06 6.12834e-20)
(0.0214711 -7.17363e-06 5.71575e-20)
(0.0214937 -7.1677e-06 7.50344e-20)
(0.0215161 -7.15969e-06 1.00743e-20)
(0.0215385 -7.15083e-06 2.25946e-19)
(0.0215609 -7.14239e-06 -4.0368e-19)
(0.0215832 -7.1342e-06 1.20786e-18)
(0.0216055 -7.12611e-06 -2.41341e-18)
(0.0216277 -7.11793e-06 5.21826e-18)
(0.0216499 -7.1095e-06 -1.34623e-17)
(0.021672 -7.10095e-06 -6.44747e-18)
(0.0216941 -7.09233e-06 -3.57588e-18)
(0.0217161 -7.08356e-06 -1.85026e-18)
(0.0217381 -7.07462e-06 -8.18849e-19)
(0.02176 -7.06559e-06 -2.91087e-19)
(0.0217818 -7.05646e-06 -6.24879e-20)
(0.0218036 -7.04722e-06 2.28278e-20)
(0.0218254 -7.03785e-06 5.07207e-20)
(0.0218471 -7.0283e-06 5.87863e-20)
(0.0218687 -7.01867e-06 6.10769e-20)
(0.0218903 -7.00904e-06 6.1448e-20)
(0.0219118 -6.99942e-06 6.13141e-20)
(0.0219333 -6.98977e-06 6.12423e-20)
(0.0219547 -6.98014e-06 6.12525e-20)
(0.021976 -6.9706e-06 6.1149e-20)
(0.0219973 -6.96118e-06 6.09912e-20)
(0.0220186 -6.95193e-06 6.09761e-20)
(0.0220398 -6.94286e-06 6.118e-20)
(0.0220609 -6.93401e-06 6.11201e-20)
(0.022082 -6.92542e-06 6.09963e-20)
(0.022103 -6.91714e-06 6.09127e-20)
(0.022124 -6.90914e-06 6.08233e-20)
(0.022145 -6.90139e-06 6.06449e-20)
(0.0221659 -6.89388e-06 6.04011e-20)
(0.0221867 -6.88662e-06 6.01316e-20)
(0.0222075 -6.87958e-06 5.99438e-20)
(0.0222283 -6.87271e-06 6.02661e-20)
(0.0222491 -6.86599e-06 5.96199e-20)
(0.0222698 -6.85941e-06 6.06157e-20)
(0.0222905 -6.85294e-06 5.88591e-20)
(0.0223111 -6.84657e-06 6.03892e-20)
(0.0223317 -6.84028e-06 5.91242e-20)
(0.0223523 -6.83404e-06 5.63163e-20)
(0.0223729 -6.82787e-06 5.47031e-20)
(0.0223934 -6.82173e-06 5.52063e-20)
(0.0224139 -6.81564e-06 5.68114e-20)
(0.0224343 -6.80957e-06 5.84503e-20)
(0.0224548 -6.80352e-06 5.94325e-20)
(0.0224752 -6.7975e-06 5.99751e-20)
(0.0224955 -6.79149e-06 6.04168e-20)
(0.0225159 -6.7855e-06 6.05527e-20)
(0.0225362 -6.77951e-06 6.06152e-20)
(0.0225565 -6.7735e-06 6.07489e-20)
(0.0225768 -6.7675e-06 6.09491e-20)
(0.022597 -6.76148e-06 6.11164e-20)
(0.0226172 -6.75546e-06 6.12489e-20)
(0.0226374 -6.74942e-06 6.13052e-20)
(0.0226575 -6.74338e-06 6.13105e-20)
(0.0226776 -6.73732e-06 6.12638e-20)
(0.0226977 -6.73125e-06 6.12838e-20)
(0.0227178 -6.72516e-06 6.11391e-20)
(0.0227378 -6.71906e-06 6.1076e-20)
(0.0227578 -6.71294e-06 6.10078e-20)
(0.0227778 -6.70681e-06 6.0723e-20)
(0.0227977 -6.70067e-06 6.04663e-20)
(0.0228177 -6.6945e-06 6.02999e-20)
(0.0228376 -6.68832e-06 5.99407e-20)
(0.0228574 -6.68213e-06 5.99138e-20)
(0.0228773 -6.6759e-06 5.93363e-20)
(0.0228971 -6.66966e-06 6.04155e-20)
(0.0229168 -6.66341e-06 5.86901e-20)
(0.0229366 -6.65713e-06 6.00474e-20)
(0.0229563 -6.65083e-06 5.86041e-20)
(0.022976 -6.64451e-06 5.53948e-20)
(0.0229957 -6.63817e-06 5.35094e-20)
(0.0230153 -6.63181e-06 5.38817e-20)
(0.0230349 -6.62542e-06 5.55044e-20)
(0.0230545 -6.61901e-06 5.71214e-20)
(0.023074 -6.61257e-06 5.84453e-20)
(0.0230935 -6.60612e-06 5.89455e-20)
(0.023113 -6.59964e-06 5.91086e-20)
(0.0231325 -6.59314e-06 5.92122e-20)
(0.0231519 -6.58662e-06 5.9404e-20)
(0.0231713 -6.58009e-06 5.96562e-20)
(0.0231907 -6.57353e-06 5.99598e-20)
(0.02321 -6.56694e-06 6.02348e-20)
(0.0232293 -6.56034e-06 6.046e-20)
(0.0232486 -6.55371e-06 6.05033e-20)
(0.0232679 -6.54706e-06 6.06713e-20)
(0.0232871 -6.54039e-06 6.08906e-20)
(0.0233063 -6.53369e-06 6.09038e-20)
(0.0233254 -6.52697e-06 6.07514e-20)
(0.0233445 -6.52022e-06 6.07454e-20)
(0.0233636 -6.51345e-06 6.06698e-20)
(0.0233827 -6.50667e-06 6.07914e-20)
(0.0234017 -6.49988e-06 6.10058e-20)
(0.0234207 -6.49306e-06 6.1106e-20)
(0.0234397 -6.48622e-06 6.11892e-20)
(0.0234587 -6.47936e-06 6.1164e-20)
(0.0234776 -6.47248e-06 6.11593e-20)
(0.0234964 -6.46557e-06 6.11964e-20)
(0.0235153 -6.45863e-06 6.10979e-20)
(0.0235341 -6.45167e-06 6.09443e-20)
(0.0235529 -6.44469e-06 6.08977e-20)
(0.0235716 -6.4377e-06 6.09561e-20)
(0.0235904 -6.43069e-06 6.1016e-20)
(0.023609 -6.42366e-06 6.09907e-20)
(0.0236277 -6.41661e-06 6.10092e-20)
(0.0236463 -6.40954e-06 6.09385e-20)
(0.0236649 -6.40245e-06 6.1044e-20)
(0.0236835 -6.39533e-06 6.12273e-20)
(0.023702 -6.3882e-06 6.02103e-20)
(0.0237205 -6.38105e-06 6.32106e-20)
(0.023739 -6.37388e-06 5.26455e-20)
(0.0237574 -6.36668e-06 8.5416e-20)
(0.0237758 -6.35946e-06 1.53282e-21)
(0.0237942 -6.35222e-06 1.77584e-19)
(0.0238125 -6.34495e-06 -9.40267e-20)
(0.0238308 -6.33768e-06 1.63473e-19)
(0.023849 -6.3304e-06 1.31501e-19)
(0.0238673 -6.32308e-06 -5.90906e-20)
(0.0238855 -6.31575e-06 -1.51426e-19)
(0.0239036 -6.3084e-06 -1.1771e-19)
(0.0239218 -6.30104e-06 -4.35498e-20)
(0.0239399 -6.29365e-06 1.36404e-20)
(0.0239579 -6.28625e-06 4.3727e-20)
(0.0239759 -6.27883e-06 5.59994e-20)
(0.0239939 -6.2714e-06 6.00561e-20)
(0.0240119 -6.26393e-06 6.0946e-20)
(0.0240298 -6.25646e-06 6.1162e-20)
(0.0240477 -6.24896e-06 6.10348e-20)
(0.0240656 -6.24144e-06 6.09818e-20)
(0.0240834 -6.23391e-06 6.10441e-20)
(0.0241012 -6.22638e-06 6.10568e-20)
(0.0241189 -6.21883e-06 6.10984e-20)
(0.0241367 -6.21126e-06 6.12353e-20)
(0.0241543 -6.20367e-06 6.13015e-20)
(0.024172 -6.19607e-06 6.12504e-20)
(0.0241896 -6.18846e-06 6.14216e-20)
(0.0242072 -6.18082e-06 6.14993e-20)
(0.0242247 -6.17318e-06 6.16515e-20)
(0.0242422 -6.16552e-06 6.17555e-20)
(0.0242597 -6.15785e-06 6.16742e-20)
(0.0242771 -6.15015e-06 6.1606e-20)
(0.0242945 -6.14243e-06 6.16087e-20)
(0.0243119 -6.13469e-06 6.16068e-20)
(0.0243292 -6.12695e-06 6.16206e-20)
(0.0243465 -6.11919e-06 6.15477e-20)
(0.0243638 -6.11142e-06 6.14522e-20)
(0.024381 -6.10364e-06 6.13924e-20)
(0.0243982 -6.09586e-06 6.13954e-20)
(0.0244154 -6.08806e-06 6.13805e-20)
(0.0244325 -6.08026e-06 6.14764e-20)
(0.0244496 -6.07246e-06 6.1654e-20)
(0.0244666 -6.06466e-06 6.1826e-20)
(0.0244836 -6.05686e-06 6.19278e-20)
(0.0245006 -6.04907e-06 6.20115e-20)
(0.0245175 -6.04128e-06 6.19985e-20)
(0.0245344 -6.03355e-06 6.19204e-20)
(0.0245513 -6.02573e-06 6.18048e-20)
(0.0245681 -6.01825e-06 6.18226e-20)
(0.0245849 -6.01021e-06 6.18527e-20)
(0.0246017 -6.00337e-06 6.1924e-20)
(0.0246184 -5.99476e-06 6.18821e-20)
(0.0246351 -5.98842e-06 6.18288e-20)
(0.0246517 -5.98122e-06 6.17732e-20)
(0.0246683 -5.96861e-06 6.17756e-20)
(0.024685 -5.9752e-06 6.17608e-20)
(0.0247014 -5.93713e-06 6.16349e-20)
(0.0247182 -5.9787e-06 6.18831e-20)
(0.0247342 -5.92143e-06 6.20729e-20)
(0.0247518 -5.91811e-06 6.20164e-20)
(0.0247686 -6.09913e-06 6.19447e-20)
(0.0247854 -6.08542e-06 6.1786e-20)
(0.0248028 -6.06709e-06 6.19137e-20)
(0.02482 -5.9298e-06 6.18376e-20)
(0.0248365 -5.85896e-06 6.22086e-20)
(0.0248527 -5.86276e-06 6.0169e-20)
(0.0248688 -5.87089e-06 6.78416e-20)
(0.0248849 -5.86459e-06 4.13227e-20)
(0.024901 -5.85442e-06 1.13701e-19)
(0.024917 -5.84552e-06 -5.28836e-20)
(0.024933 -5.83718e-06 2.20157e-19)
(0.0249489 -5.82871e-06 -9.12502e-20)
(0.0249648 -5.82018e-06 1.28992e-20)
(0.0249807 -5.81167e-06 3.87957e-20)
(0.0249965 -5.80321e-06 3.83823e-19)
(0.0250123 -5.79474e-06 3.48123e-20)
(0.0250281 -5.78629e-06 7.4223e-20)
(0.0250438 -5.77784e-06 4.39709e-20)
(0.0250594 -5.76939e-06 3.74315e-19)
(0.0250751 -5.76095e-06 1.47461e-20)
(0.0250907 -5.75249e-06 5.17634e-20)
(0.0251062 -5.74401e-06 3.72497e-20)
(0.0251217 -5.73553e-06 3.70052e-19)
(0.0251372 -5.72704e-06 1.44575e-20)
(0.0251526 -5.71851e-06 5.36112e-20)
(0.025168 -5.70999e-06 3.3876e-20)
(0.0251833 -5.70142e-06 3.64705e-19)
(0.0251986 -5.69285e-06 7.12915e-21)
(0.0252139 -5.68429e-06 4.87436e-20)
(0.0252291 -5.67568e-06 3.14586e-20)
(0.0252443 -5.66708e-06 3.65642e-19)
(0.0252595 -5.65843e-06 6.0436e-21)
(0.0252746 -5.64979e-06 4.59466e-20)
(0.0252896 -5.64111e-06 3.74615e-20)
(0.0253047 -5.63244e-06 3.64356e-19)
(0.0253197 -5.62375e-06 6.00502e-21)
(0.0253346 -5.61504e-06 5.01784e-20)
(0.0253495 -5.60632e-06 3.50178e-20)
(0.0253644 -5.59757e-06 3.62359e-19)
(0.0253792 -5.5888e-06 -1.17394e-21)
(0.025394 -5.58e-06 4.25922e-20)
(0.0254087 -5.57122e-06 3.67768e-20)
(0.0254234 -5.56235e-06 3.63262e-19)
(0.025438 -5.5536e-06 2.92385e-21)
(0.0254527 -5.54462e-06 4.71978e-20)
(0.0254672 -5.53596e-06 3.50814e-20)
(0.0254818 -5.52678e-06 3.60886e-19)
(0.0254962 -5.51789e-06 -1.87183e-22)
(0.0255107 -5.50897e-06 4.50042e-20)
(0.0255251 -5.50002e-06 3.36637e-20)
(0.0255395 -5.49106e-06 3.64758e-19)
(0.0255538 -5.48206e-06 -9.81793e-23)
(0.0255681 -5.47301e-06 4.30373e-20)
(0.0255823 -5.46395e-06 3.91965e-20)
(0.0255965 -5.45487e-06 3.64262e-19)
(0.0256106 -5.44575e-06 3.30245e-21)
(0.0256248 -5.43661e-06 4.81942e-20)
(0.0256388 -5.42744e-06 3.62569e-20)
(0.0256529 -5.41824e-06 3.63059e-19)
(0.0256668 -5.40901e-06 -2.90445e-21)
(0.0256808 -5.39976e-06 4.27769e-20)
(0.0256947 -5.39048e-06 4.40821e-20)
(0.0257085 -5.38117e-06 3.62895e-19)
(0.0257223 -5.37183e-06 3.61399e-21)
(0.0257361 -5.36246e-06 4.88089e-20)
(0.0257498 -5.35306e-06 4.7258e-20)
(0.0257635 -5.34363e-06 3.48379e-19)
(0.0257772 -5.33417e-06 3.62973e-20)
(0.0257908 -5.32467e-06 -5.12462e-20)
(0.0258043 -5.31513e-06 2.67266e-19)
(0.0258178 -5.30556e-06 4.70298e-20)
(0.0258313 -5.29597e-06 2.72899e-19)
(0.0258447 -5.28634e-06 1.36401e-19)
(0.0258581 -5.27666e-06 -1.09707e-19)
(0.0258714 -5.26696e-06 -1.95821e-19)
(0.0258847 -5.25722e-06 -1.41173e-19)
(0.025898 -5.24745e-06 -5.55873e-20)
(0.0259112 -5.23763e-06 4.33258e-21)
(0.0259244 -5.22781e-06 3.51047e-20)
(0.0259375 -5.2179e-06 4.81286e-20)
(0.0259506 -5.20804e-06 5.32902e-20)
(0.0259636 -5.198e-06 5.55788e-20)
(0.0259766 -5.188e-06 5.68449e-20)
(0.0259895 -5.17798e-06 5.77498e-20)
(0.0260024 -5.16792e-06 5.83764e-20)
(0.0260153 -5.15782e-06 5.89053e-20)
(0.0260281 -5.14767e-06 5.9359e-20)
(0.0260409 -5.13749e-06 5.96722e-20)
(0.0260536 -5.12727e-06 5.99427e-20)
(0.0260663 -5.11702e-06 6.01487e-20)
(0.0260789 -5.10673e-06 6.03114e-20)
(0.0260915 -5.09641e-06 6.04582e-20)
(0.026104 -5.08605e-06 6.06024e-20)
(0.0261165 -5.07565e-06 6.06106e-20)
(0.026129 -5.06522e-06 6.04789e-20)
(0.0261414 -5.05471e-06 6.05621e-20)
(0.0261538 -5.0442e-06 6.07524e-20)
(0.0261661 -5.03365e-06 6.08811e-20)
(0.0261784 -5.02306e-06 6.10051e-20)
(0.0261906 -5.01243e-06 6.10722e-20)
(0.0262028 -5.00176e-06 6.11832e-20)
(0.0262149 -4.99105e-06 6.13145e-20)
(0.026227 -4.98029e-06 6.13075e-20)
(0.0262391 -4.96953e-06 6.13324e-20)
(0.0262511 -4.95868e-06 6.13533e-20)
(0.0262631 -4.94791e-06 6.14753e-20)
(0.026275 -4.93691e-06 6.15072e-20)
(0.0262869 -4.9262e-06 6.15275e-20)
(0.0262987 -4.91501e-06 6.15374e-20)
(0.0263105 -4.90406e-06 6.1588e-20)
(0.0263222 -4.8931e-06 6.14201e-20)
(0.0263339 -4.88209e-06 6.13529e-20)
(0.0263455 -4.87105e-06 6.13738e-20)
(0.0263571 -4.85996e-06 6.14034e-20)
(0.0263687 -4.84884e-06 6.15372e-20)
(0.0263802 -4.83771e-06 6.15663e-20)
(0.0263917 -4.82655e-06 6.15601e-20)
(0.0264031 -4.81538e-06 6.14629e-20)
(0.0264144 -4.8042e-06 6.13931e-20)
(0.0264258 -4.79303e-06 6.15855e-20)
(0.026437 -4.78186e-06 6.17978e-20)
(0.0264483 -4.77073e-06 6.17413e-20)
(0.0264595 -4.75959e-06 6.17757e-20)
(0.0264706 -4.7485e-06 6.17174e-20)
(0.0264817 -4.73739e-06 6.17742e-20)
(0.0264927 -4.72634e-06 6.17794e-20)
(0.0265037 -4.71533e-06 6.16979e-20)
(0.0265147 -4.70434e-06 6.1754e-20)
(0.0265256 -4.69339e-06 6.15478e-20)
(0.0265364 -4.68247e-06 6.15106e-20)
(0.0265472 -4.67156e-06 5.99441e-20)
(0.026558 -4.66067e-06 6.5249e-20)
(0.0265687 -4.64979e-06 4.50231e-20)
(0.0265794 -4.6389e-06 1.04678e-19)
(0.02659 -4.62801e-06 -4.54589e-20)
(0.0266006 -4.61706e-06 2.23318e-19)
(0.0266111 -4.60611e-06 -1.144e-19)
(0.0266216 -4.59491e-06 1.54151e-20)
(0.026632 -4.58394e-06 7.0962e-20)
(0.0266423 -4.57187e-06 3.98214e-19)
(0.0266527 -4.56118e-06 7.57995e-21)
(0.0266629 -4.54754e-06 5.6874e-20)
(0.0266731 -4.53506e-06 6.89337e-20)
(0.0266833 -4.52815e-06 3.84449e-19)
(0.0266933 -4.48728e-06 -1.13968e-20)
(0.0267034 -4.54139e-06 4.64014e-20)
(0.0267132 -4.35711e-06 6.35471e-20)
(0.0267228 -4.44716e-06 3.78151e-19)
(0.0267325 -4.12226e-06 -1.77119e-20)
(0.0267413 -3.94476e-06 4.0942e-20)
(0.0267495 -4.75366e-06 5.99826e-20)
(0.02676 -5.54164e-06 3.73829e-19)
(0.0267728 -4.87303e-06 -2.37215e-20)
(0.0267853 -4.47247e-06 3.98548e-20)
(0.0267966 -4.48187e-06 6.11461e-20)
(0.0268073 -4.5414e-06 3.69261e-19)
(0.0268178 -4.52882e-06 -2.39552e-20)
(0.026828 -4.50265e-06 3.4112e-20)
(0.0268381 -4.49975e-06 5.31096e-20)
(0.0268482 -4.48811e-06 3.62956e-19)
(0.0268582 -4.46791e-06 -3.3331e-20)
(0.0268682 -4.45558e-06 3.37534e-20)
(0.026878 -4.44498e-06 2.793e-20)
(0.0268878 -4.43167e-06 4.0518e-19)
(0.0268975 -4.41899e-06 -1.55639e-19)
(0.0269072 -4.40759e-06 1.81409e-19)
(0.0269167 -4.39686e-06 -1.38981e-19)
(0.0269263 -4.38654e-06 3.12481e-19)
(0.0269357 -4.37619e-06 -2.72153e-20)
(0.0269451 -4.36576e-06 3.67968e-19)
(0.0269544 -4.35549e-06 -2.99955e-20)
(0.0269637 -4.34542e-06 3.51395e-19)
(0.0269729 -4.33546e-06 -4.17056e-20)
(0.0269821 -4.32557e-06 3.36928e-19)
(0.0269912 -4.31573e-06 -4.5591e-20)
(0.0270002 -4.30595e-06 3.37912e-19)
(0.0270092 -4.29622e-06 -3.90988e-20)
(0.0270181 -4.28654e-06 3.31733e-19)
(0.027027 -4.27692e-06 -5.1984e-20)
(0.0270358 -4.26735e-06 3.28658e-19)
(0.0270445 -4.25786e-06 -6.37703e-20)
(0.0270532 -4.24845e-06 3.2441e-19)
(0.0270618 -4.23914e-06 -5.59655e-20)
(0.0270703 -4.22991e-06 3.22384e-19)
(0.0270788 -4.22079e-06 -5.51886e-20)
(0.0270872 -4.2118e-06 3.34615e-19)
(0.0270956 -4.20297e-06 -5.94209e-20)
(0.0271039 -4.19434e-06 3.2208e-19)
(0.0271121 -4.1859e-06 -5.87226e-20)
(0.0271203 -4.17768e-06 3.24685e-19)
(0.0271284 -4.1697e-06 -6.14848e-20)
(0.0271365 -4.16196e-06 3.32318e-19)
(0.0271445 -4.1545e-06 -6.24624e-20)
(0.0271524 -4.14731e-06 3.17404e-19)
(0.0271603 -4.14038e-06 -5.42351e-20)
(0.0271682 -4.1337e-06 3.32335e-19)
(0.0271759 -4.12727e-06 -5.1994e-20)
(0.0271837 -4.12108e-06 3.30061e-19)
(0.0271913 -4.11512e-06 -5.71995e-20)
(0.027199 -4.10938e-06 3.16647e-19)
(0.0272065 -4.10386e-06 -6.51096e-20)
(0.0272141 -4.09854e-06 3.29775e-19)
(0.0272215 -4.09342e-06 -6.60088e-20)
(0.0272289 -4.08849e-06 3.19241e-19)
(0.0272363 -4.08375e-06 -6.293e-20)
(0.0272436 -4.07919e-06 3.29321e-19)
(0.0272509 -4.07482e-06 -5.2712e-20)
(0.0272581 -4.07065e-06 3.34829e-19)
(0.0272653 -4.06668e-06 -5.80585e-20)
(0.0272724 -4.0629e-06 3.3089e-19)
(0.0272794 -4.05928e-06 -6.20467e-20)
(0.0272865 -4.05582e-06 3.25441e-19)
(0.0272934 -4.05246e-06 -5.83606e-20)
(0.0273004 -4.0492e-06 3.32042e-19)
(0.0273072 -4.04599e-06 -5.16905e-20)
(0.027314 -4.04283e-06 3.22945e-19)
(0.0273208 -4.03969e-06 -5.56166e-20)
(0.0273276 -4.03656e-06 3.27311e-19)
(0.0273342 -4.03341e-06 -6.01295e-20)
(0.0273409 -4.03021e-06 3.23785e-19)
(0.0273474 -4.02695e-06 -6.20989e-20)
(0.027354 -4.0236e-06 3.31655e-19)
(0.0273605 -4.02014e-06 -6.4828e-20)
(0.0273669 -4.01657e-06 3.15177e-19)
(0.0273733 -4.01287e-06 -3.52036e-20)
(0.0273796 -4.00901e-06 2.69509e-19)
(0.0273859 -4.005e-06 1.09083e-19)
(0.0273922 -4.00084e-06 -4.89325e-22)
(0.0273984 -3.99654e-06 4.28686e-19)
(0.0274045 -3.99209e-06 -1.08124e-19)
(0.0274106 -3.9875e-06 1.96869e-19)
(0.0274167 -3.98277e-06 -1.65963e-19)
(0.0274227 -3.9779e-06 2.73154e-19)
(0.0274286 -3.9729e-06 -8.21444e-20)
(0.0274346 -3.96777e-06 3.23764e-19)
(0.0274404 -3.96252e-06 -6.20665e-20)
(0.0274462 -3.95715e-06 3.23616e-19)
(0.027452 -3.95167e-06 -5.00988e-20)
(0.0274577 -3.94608e-06 3.33484e-19)
(0.0274634 -3.94037e-06 -5.545e-20)
(0.027469 -3.93456e-06 3.25212e-19)
(0.0274746 -3.92865e-06 -6.42398e-20)
(0.0274801 -3.92264e-06 3.25382e-19)
(0.0274856 -3.91653e-06 -6.34347e-20)
(0.0274911 -3.91032e-06 3.23342e-19)
(0.0274964 -3.90402e-06 -5.82691e-20)
(0.0275018 -3.89761e-06 3.29507e-19)
(0.0275071 -3.89111e-06 -6.1387e-20)
(0.0275123 -3.88451e-06 3.30014e-19)
(0.0275175 -3.87783e-06 -6.17712e-20)
(0.0275227 -3.87107e-06 3.2159e-19)
(0.0275278 -3.86422e-06 -5.9414e-20)
(0.0275328 -3.85729e-06 3.39387e-19)
(0.0275379 -3.85028e-06 -6.07217e-20)
(0.0275428 -3.8432e-06 3.22314e-19)
(0.0275477 -3.83604e-06 -5.85608e-20)
(0.0275526 -3.82881e-06 3.30213e-19)
(0.0275574 -3.82151e-06 -5.22655e-20)
(0.0275622 -3.81414e-06 3.2709e-19)
(0.0275669 -3.80669e-06 -5.65879e-20)
(0.0275716 -3.79917e-06 3.24326e-19)
(0.0275762 -3.79157e-06 -5.42349e-20)
(0.0275808 -3.78391e-06 3.25412e-19)
(0.0275854 -3.77618e-06 -6.10569e-20)
(0.0275899 -3.76839e-06 3.13428e-19)
(0.0275943 -3.76054e-06 -6.21522e-20)
(0.0275987 -3.75262e-06 3.28188e-19)
(0.0276031 -3.74465e-06 -6.76675e-20)
(0.0276074 -3.73662e-06 3.15511e-19)
(0.0276116 -3.72853e-06 -5.37369e-20)
(0.0276159 -3.72039e-06 3.2449e-19)
(0.02762 -3.71219e-06 -6.23479e-20)
(0.0276241 -3.70393e-06 3.19597e-19)
(0.0276282 -3.69562e-06 -6.22837e-20)
(0.0276322 -3.68726e-06 3.18555e-19)
(0.0276362 -3.67884e-06 -6.02478e-20)
(0.0276402 -3.67036e-06 3.23988e-19)
(0.027644 -3.66184e-06 -6.50013e-20)
(0.0276479 -3.65328e-06 3.20058e-19)
(0.0276517 -3.64467e-06 -6.82493e-20)
(0.0276554 -3.63602e-06 3.22905e-19)
(0.0276591 -3.62733e-06 -6.48677e-20)
(0.0276628 -3.61861e-06 3.26415e-19)
(0.0276664 -3.60985e-06 -5.57006e-20)
(0.02767 -3.60105e-06 3.29882e-19)
(0.0276735 -3.59222e-06 -5.57635e-20)
(0.0276769 -3.58336e-06 3.22828e-19)
(0.0276804 -3.57446e-06 -5.90494e-20)
(0.0276837 -3.56552e-06 3.27333e-19)
(0.0276871 -3.55655e-06 -5.78774e-20)
(0.0276904 -3.54754e-06 3.2451e-19)
(0.0276936 -3.5385e-06 -6.09581e-20)
(0.0276968 -3.52943e-06 3.18186e-19)
(0.0276999 -3.52033e-06 -5.36178e-20)
(0.0277031 -3.5112e-06 3.24271e-19)
(0.0277061 -3.50204e-06 -5.75051e-20)
(0.0277091 -3.49286e-06 3.18338e-19)
(0.0277121 -3.48366e-06 -6.45025e-20)
(0.027715 -3.47443e-06 3.22638e-19)
(0.0277179 -3.46518e-06 -6.41053e-20)
(0.0277207 -3.4559e-06 3.19152e-19)
(0.0277235 -3.44659e-06 -6.03792e-20)
(0.0277262 -3.43727e-06 3.26593e-19)
(0.0277289 -3.42792e-06 -6.01775e-20)
(0.0277316 -3.41853e-06 3.23092e-19)
(0.0277342 -3.40913e-06 -6.16239e-20)
(0.0277367 -3.3997e-06 3.22626e-19)
(0.0277393 -3.39026e-06 -5.70222e-20)
(0.0277417 -3.38079e-06 3.28481e-19)
(0.0277441 -3.3713e-06 -5.5383e-20)
(0.0277465 -3.36179e-06 3.27061e-19)
(0.0277489 -3.35227e-06 -5.78005e-20)
(0.0277511 -3.34272e-06 3.21842e-19)
(0.0277534 -3.33317e-06 -6.03545e-20)
(0.0277556 -3.3236e-06 3.28133e-19)
(0.0277577 -3.314e-06 -5.77375e-20)
(0.0277598 -3.30439e-06 3.23424e-19)
(0.0277619 -3.29477e-06 -5.61907e-20)
(0.0277639 -3.28512e-06 3.25653e-19)
(0.0277659 -3.27548e-06 -6.0068e-20)
(0.0277678 -3.26577e-06 3.2653e-19)
(0.0277697 -3.25621e-06 -5.13845e-20)
(0.0277716 -3.24624e-06 3.37398e-19)
(0.0277734 -3.23717e-06 -6.2019e-20)
(0.0277751 -3.2263e-06 3.24582e-19)
(0.0277768 -3.2184e-06 -4.68385e-20)
(0.0277785 -3.20688e-06 3.37955e-19)
(0.0277801 -3.19558e-06 -3.3119e-20)
(0.0277817 -3.19573e-06 3.01689e-19)
(0.0277832 -3.15447e-06 5.21285e-20)
(0.0277849 -3.21511e-06 1.73452e-19)
(0.027786 -3.15167e-06 1.25643e-19)
(0.0277874 -3.42558e-06 3.6004e-19)
(0.0277875 -3.15656e-06 -2.4719e-19)
(0.0277887 -3.28567e-06 8.76237e-20)
(0.027791 -3.27608e-06 -1.93037e-19)
(0.027793 -3.13103e-06 2.26295e-19)
(0.0277943 -3.06671e-06 2.73051e-20)
(0.0277954 -3.07432e-06 1.74144e-19)
(0.0277964 -3.07917e-06 1.33615e-19)
(0.0277975 -3.07031e-06 3.71895e-19)
(0.0277985 -3.05939e-06 -2.46077e-19)
(0.0277995 -3.04964e-06 1.00796e-19)
(0.0278004 -3.04005e-06 -1.82313e-19)
(0.0278013 -3.03026e-06 2.43311e-19)
(0.0278021 -3.02039e-06 3.54618e-20)
(0.0278029 -3.0105e-06 1.80772e-19)
(0.0278037 -3.0006e-06 1.46333e-19)
(0.0278044 -2.99069e-06 3.73458e-19)
(0.0278051 -2.98076e-06 -2.25444e-19)
(0.0278057 -2.97083e-06 5.85025e-20)
(0.0278063 -2.96089e-06 -4.82901e-20)
(0.0278068 -2.95094e-06 -2.78098e-20)
(0.0278073 -2.941e-06 4.28834e-19)
(0.0278078 -2.93105e-06 -1.05761e-19)
(0.0278082 -2.92109e-06 2.18958e-19)
(0.0278086 -2.91113e-06 -1.14262e-19)
(0.0278089 -2.90117e-06 2.7645e-19)
(0.0278092 -2.89121e-06 5.01977e-20)
(0.0278094 -2.88124e-06 1.91823e-19)
(0.0278096 -2.87128e-06 1.50796e-19)
(0.0278098 -2.86131e-06 3.78597e-19)
(0.0278099 -2.85133e-06 -2.43444e-19)
(0.02781 -2.84136e-06 1.02242e-19)
(0.02781 -2.83139e-06 -1.78161e-19)
(0.02781 -2.82142e-06 2.4893e-19)
(0.02781 -2.81144e-06 3.86276e-20)
(0.0278099 -2.80147e-06 1.79985e-19)
(0.0278098 -2.7915e-06 1.44828e-19)
(0.0278096 -2.78153e-06 3.74923e-19)
(0.0278094 -2.77155e-06 -2.49665e-19)
(0.0278091 -2.76158e-06 1.13391e-19)
(0.0278089 -2.75162e-06 -1.78938e-19)
(0.0278085 -2.74166e-06 2.44454e-19)
(0.0278082 -2.73169e-06 4.0139e-20)
(0.0278077 -2.72173e-06 1.90401e-19)
(0.0278073 -2.71178e-06 1.54612e-19)
(0.0278068 -2.70182e-06 3.80214e-19)
(0.0278063 -2.69186e-06 -2.44499e-19)
(0.0278057 -2.68192e-06 1.07265e-19)
(0.0278051 -2.67198e-06 -1.76133e-19)
(0.0278044 -2.66203e-06 2.53176e-19)
(0.0278037 -2.6521e-06 3.89452e-20)
(0.027803 -2.64217e-06 1.90954e-19)
(0.0278022 -2.63225e-06 1.57408e-19)
(0.0278014 -2.62232e-06 3.77326e-19)
(0.0278006 -2.61241e-06 -2.46688e-19)
(0.0277997 -2.6025e-06 1.04699e-19)
(0.0277987 -2.59259e-06 -1.7272e-19)
(0.0277978 -2.58269e-06 2.49937e-19)
(0.0277968 -2.5728e-06 3.89356e-20)
(0.0277957 -2.56291e-06 1.87265e-19)
(0.0277946 -2.55303e-06 1.51452e-19)
(0.0277935 -2.54315e-06 3.73046e-19)
(0.0277923 -2.53329e-06 -2.55104e-19)
(0.0277911 -2.52343e-06 1.11524e-19)
(0.0277899 -2.51357e-06 -1.7556e-19)
(0.0277886 -2.50373e-06 2.49689e-19)
(0.0277873 -2.4939e-06 4.71075e-20)
(0.0277859 -2.48407e-06 1.96997e-19)
(0.0277845 -2.47426e-06 1.56242e-19)
(0.0277831 -2.46447e-06 3.69264e-19)
(0.0277816 -2.45468e-06 -2.54919e-19)
(0.0277801 -2.44491e-06 1.04119e-19)
(0.0277786 -2.43514e-06 -1.73955e-19)
(0.027777 -2.42538e-06 2.57416e-19)
(0.0277753 -2.41563e-06 3.69968e-20)
(0.0277737 -2.40589e-06 1.88706e-19)
(0.027772 -2.39618e-06 1.57749e-19)
(0.0277703 -2.38647e-06 3.73493e-19)
(0.0277685 -2.37677e-06 -2.55605e-19)
(0.0277667 -2.36709e-06 1.06777e-19)
(0.0277648 -2.35743e-06 -1.66658e-19)
(0.0277629 -2.34779e-06 2.59253e-19)
(0.027761 -2.33816e-06 3.58403e-20)
(0.0277591 -2.32855e-06 1.86174e-19)
(0.0277571 -2.31894e-06 1.54348e-19)
(0.027755 -2.30935e-06 3.72442e-19)
(0.027753 -2.29978e-06 -2.57893e-19)
(0.0277509 -2.29023e-06 1.04537e-19)
(0.0277487 -2.28068e-06 -1.66912e-19)
(0.0277465 -2.27114e-06 2.62315e-19)
(0.0277443 -2.26163e-06 4.11819e-20)
(0.0277421 -2.25213e-06 1.91065e-19)
(0.0277398 -2.24266e-06 1.58827e-19)
(0.0277375 -2.23319e-06 3.66501e-19)
(0.0277351 -2.22376e-06 -2.56663e-19)
(0.0277327 -2.21435e-06 1.03891e-19)
(0.0277303 -2.20494e-06 -1.67442e-19)
(0.0277279 -2.19556e-06 2.60614e-19)
(0.0277254 -2.18619e-06 3.74878e-20)
(0.0277228 -2.17683e-06 1.86054e-19)
(0.0277203 -2.16751e-06 1.56313e-19)
(0.0277177 -2.1582e-06 3.61507e-19)
(0.027715 -2.1489e-06 -2.60944e-19)
(0.0277124 -2.13963e-06 1.05729e-19)
(0.0277097 -2.13038e-06 -1.71951e-19)
(0.0277069 -2.12116e-06 2.59883e-19)
(0.0277042 -2.11195e-06 3.67169e-20)
(0.0277014 -2.10277e-06 1.88898e-19)
(0.0276985 -2.09363e-06 1.60734e-19)
(0.0276956 -2.0845e-06 3.6282e-19)
(0.0276927 -2.0754e-06 -2.62313e-19)
(0.0276898 -2.06632e-06 1.03832e-19)
(0.0276868 -2.05727e-06 -1.64131e-19)
(0.0276838 -2.04824e-06 2.60654e-19)
(0.0276808 -2.03922e-06 3.27313e-20)
(0.0276777 -2.03025e-06 1.82342e-19)
(0.0276746 -2.0213e-06 1.5685e-19)
(0.0276715 -2.01238e-06 3.63157e-19)
(0.0276683 -2.00349e-06 -2.66247e-19)
(0.0276651 -1.99463e-06 1.08704e-19)
(0.0276619 -1.98581e-06 -1.6884e-19)
(0.0276586 -1.97704e-06 2.65808e-19)