/*--------------------------------*- C++ -*----------------------------------*\
| =========                 |                                                 |
| \\      /  F ield         | OpenFOAM: The Open Source CFD Toolbox           |
|  \\    /   O peration     | Version:  2512                                  |
|   \\  /    A nd           | Website:  www.openfoam.com                      |
|    \\/     M anipulation  |                                                 |
\*---------------------------------------------------------------------------*/
FoamFile
{
    version     2.0;
    format      ascii;
    arch        "LSB;label=32;scalar=64";
    class       volScalarField;
    location    "0.1";
    object      Ux;
}
// * * * * * * * * * * * * * * * * * * * * * * * * * * * * * * * * * * * * * //

dimensions      [0 1 -1 0 0 0 0];

internalField   nonuniform List<scalar> 
100000
(
0.050225
0.040385
0.0282397
0.0221272
0.0195993
0.0185481
0.0182271
0.0181959
0.0182142
0.0182082
0.0181925
0.0181831
0.0181802
0.0181813
0.0181858
0.0181935
0.0182039
0.0182166
0.0182311
0.0182471
0.0182642
0.0182824
0.0183014
0.0183211
0.0183414
0.0183622
0.0183833
0.0184048
0.0184265
0.0184485
0.0184706
0.0184929
0.0185153
0.0185378
0.0185604
0.018583
0.0186058
0.0186285
0.0186513
0.0186742
0.018697
0.0187199
0.0187428
0.0187657
0.0187886
0.0188115
0.0188344
0.0188573
0.0188803
0.0189032
0.0189261
0.018949
0.018972
0.0189949
0.0190178
0.0190407
0.0190636
0.0190865
0.0191094
0.0191323
0.0191552
0.019178
0.0192009
0.0192238
0.0192466
0.0192694
0.0192923
0.0193151
0.0193379
0.0193607
0.0193836
0.0194063
0.0194291
0.0194519
0.0194747
0.0194974
0.0195202
0.0195429
0.0195657
0.0195884
0.0196111
0.0196338
0.0196565
0.0196792
0.0197018
0.0197245
0.0197472
0.0197698
0.0197924
0.019815
0.0198376
0.0198602
0.0198828
0.0199054
0.019928
0.0199505
0.019973
0.0199956
0.0200181
0.0200406
0.0200631
0.0200855
0.020108
0.0201304
0.0201529
0.0201753
0.0201977
0.0202201
0.0202425
0.0202648
0.0202872
0.0203095
0.0203318
0.0203541
0.0203764
0.0203987
0.020421
0.0204432
0.0204654
0.0204876
0.0205098
0.020532
0.0205542
0.0205763
0.0205985
0.0206206
0.0206427
0.0206647
0.0206868
0.0207088
0.0207308
0.0207528
0.0207748
0.0207967
0.0208187
0.0208406
0.0208624
0.0208843
0.0209061
0.0209279
0.0209496
0.0209713
0.0209929
0.0210145
0.0210357
0.0210577
0.0210773
0.0211002
0.0211159
0.021144
0.021167
0.0211893
0.0212151
0.0212401
0.0212644
0.0212881
0.0213115
0.0213346
0.0213575
0.0213804
0.0214032
0.0214259
0.0214486
0.0214711
0.0214937
0.0215161
0.0215385
0.0215609
0.0215832
0.0216055
0.0216277
0.0216499
0.021672
0.0216941
0.0217161
0.0217381
0.02176
0.0217818
0.0218036
0.0218254
0.0218471
0.0218687
0.0218903
0.0219118
0.0219333
0.0219547
0.021976
0.0219973
0.0220186
0.0220398
0.0220609
0.022082
0.022103
0.022124
0.022145
0.0221659
0.0221867
0.0222075
0.0222283
0.0222491
0.0222698
0.0222905
0.0223111
0.0223317
0.0223523
0.0223729
0.0223934
0.0224139
0.0224343
0.0224548
0.0224752
0.0224955
0.0225159
0.0225362
0.0225565
0.0225768
0.022597
0.0226172
0.0226374
0.0226575
0.0226776
0.0226977
0.0227178
0.0227378
0.0227578
0.0227778
0.0227977
0.0228177
0.0228376
0.0228574
0.0228773
0.0228971
0.0229168
0.0229366
0.0229563
0.022976
0.0229957
0.0230153
0.0230349
0.0230545
0.023074
0.0230935
0.023113
0.0231325
0.0231519
0.0231713
0.0231907
0.02321
0.0232293
0.0232486
0.0232679
0.0232871
0.0233063
0.0233254
0.0233445
0.0233636
0.0233827
0.0234017
0.0234207
0.0234397
0.0234587
0.0234776
0.0234964
0.0235153
0.0235341
0.0235529
0.0235716
0.0235904
0.023609
0.0236277
0.0236463
0.0236649
0.0236835
0.023702
0.0237205
0.023739
0.0237574
0.0237758
0.0237942
0.0238125
0.0238308
0.023849
0.0238673
0.0238855
0.0239036
0.0239218
0.0239399
0.0239579
0.0239759
0.0239939
0.0240119
0.0240298
0.0240477
0.0240656
0.0240834
0.0241012
0.0241189
0.0241367
0.0241543
0.024172
0.0241896
0.0242072
0.0242247
0.0242422
0.0242597
0.0242771
0.0242945
0.0243119
0.0243292
0.0243465
0.0243638
0.024381
0.0243982
0.0244154
0.0244325
0.0244496
0.0244666
0.0244836
0.0245006
0.0245175
0.0245344
0.0245513
0.0245681
0.0245849
0.0246017
0.0246184
0.0246351
0.0246517
0.0246683
0.024685
0.0247014
0.0247182
0.0247342
0.0247518
0.0247686
0.0247854
0.0248028
0.02482
0.0248365
0.0248527
0.0248688
0.0248849
0.024901
0.024917
0.024933
0.0249489
0.0249648
0.0249807
0.0249965
0.0250123
0.0250281
0.0250438
0.0250594
0.0250751
0.0250907
0.0251062
0.0251217
0.0251372
0.0251526
0.025168
0.0251833
0.0251986
0.0252139
0.0252291
0.0252443
0.0252595
0.0252746
0.0252896
0.0253047
0.0253197
0.0253346
0.0253495
0.0253644
0.0253792
0.025394
0.0254087
0.0254234
0.025438
0.0254527
0.0254672
0.0254818
0.0254962
0.0255107
0.0255251
0.0255395
0.0255538
0.0255681
0.0255823
0.0255965
0.0256106
0.0256248
0.0256388
0.0256529
0.0256668
0.0256808
0.0256947
0.0257085
0.0257223
0.0257361
0.0257498
0.0257635
0.0257772
0.0257908
0.0258043
0.0258178
0.0258313
0.0258447
0.0258581
0.0258714
0.0258847
0.025898
0.0259112
0.0259244
0.0259375
0.0259506
0.0259636
0.0259766
0.0259895
0.0260024
0.0260153
0.0260281
0.0260409
0.0260536
0.0260663
0.0260789
0.0260915
0.026104
0.0261165
0.026129
0.0261414
0.0261538
0.0261661
0.0261784
0.0261906
0.0262028
0.0262149
0.026227
0.0262391
0.0262511
0.0262631
0.026275
0.0262869
0.0262987
0.0263105
0.0263222
0.0263339
0.0263455
0.0263571
0.0263687
0.0263802
0.0263917
0.0264031
0.0264144
0.0264258
0.026437
0.0264483
0.0264595
0.0264706
0.0264817
0.0264927
0.0265037
0.0265147
0.0265256
0.0265364
0.0265472
0.026558
0.0265687
0.0265794
0.02659
0.0266006
0.0266111
0.0266216
0.026632
0.0266423
0.0266527
0.0266629
0.0266731
0.0266833
0.0266933
0.0267034
0.0267132
0.0267228
0.0267325
0.0267413
0.0267495
0.02676
0.0267728
0.0267853
0.0267966
0.0268073
0.0268178
0.026828
0.0268381
0.0268482
0.0268582
0.0268682
0.026878
0.0268878
0.0268975
0.0269072
0.0269167
0.0269263
0.0269357
0.0269451
0.0269544
0.0269637
0.0269729
0.0269821
0.0269912
0.0270002
0.0270092
0.0270181
0.027027
0.0270358
0.0270445
0.0270532
0.0270618
0.0270703
0.0270788
0.0270872
0.0270956
0.0271039
0.0271121
0.0271203
0.0271284
0.0271365
0.0271445
0.0271524
0.0271603
0.0271682
0.0271759
0.0271837
0.0271913
0.027199
0.0272065
0.0272141
0.0272215
0.0272289
0.0272363
0.0272436
0.0272509
0.0272581
0.0272653
0.0272724
0.0272794
0.0272865
0.0272934
0.0273004
0.0273072
0.027314
0.0273208
0.0273276
0.0273342
0.0273409
0.0273474
0.027354
0.0273605
0.0273669
0.0273733
0.0273796
0.0273859
0.0273922
0.0273984
0.0274045
0.0274106
0.0274167
0.0274227
0.0274286
0.0274346
0.0274404
0.0274462
0.027452
0.0274577
0.0274634
0.027469
0.0274746
0.0274801
0.0274856
0.0274911
0.0274964
0.0275018
0.0275071
0.0275123
0.0275175
0.0275227
0.0275278
0.0275328
0.0275379
0.0275428
0.0275477
0.0275526
0.0275574
0.0275622
0.0275669
0.0275716
0.0275762
0.0275808
0.0275854
0.0275899
0.0275943
0.0275987
0.0276031
0.0276074
0.0276116
0.0276159
0.02762
0.0276241
0.0276282
0.0276322
0.0276362
0.0276402
0.027644
0.0276479
0.0276517
0.0276554
0.0276591
0.0276628
0.0276664
0.02767
0.0276735
0.0276769
0.0276804
0.0276837
0.0276871
0.0276904
0.0276936
0.0276968
0.0276999
0.0277031
0.0277061
0.0277091
0.0277121
0.027715
0.0277179
0.0277207
0.0277235
0.0277262
0.0277289
0.0277316
0.0277342
0.0277367
0.0277393
0.0277417
0.0277441
0.0277465
0.0277489
0.0277511
0.0277534
0.0277556
0.0277577
0.0277598
0.0277619
0.0277639
0.0277659
0.0277678
0.0277697
0.0277716
0.0277734
0.0277751
0.0277768
0.0277785
0.0277801
0.0277817
0.0277832
0.0277849
0.027786
0.0277874
0.0277875
0.0277887
0.027791
0.027793
0.0277943
0.0277954
0.0277964
0.0277975
0.0277985
0.0277995
0.0278004
0.0278013
0.0278021
0.0278029
0.0278037
0.0278044
0.0278051
0.0278057
0.0278063
0.0278068
0.0278073
0.0278078
0.0278082
0.0278086
0.0278089
0.0278092
0.0278094
0.0278096
0.0278098
0.0278099
0.02781
0.02781
0.02781
0.02781
0.0278099
0.0278098
0.0278096
0.0278094
0.0278091
0.0278089
0.0278085
0.0278082
0.0278077
0.0278073
0.0278068
0.0278063
0.0278057
0.0278051
0.0278044
0.0278037
0.027803
0.0278022
0.0278014
0.0278006
0.0277997
0.0277987
0.0277978
0.0277968
0.0277957
0.0277946
0.0277935
0.0277923
0.0277911
0.0277899
0.0277886
0.0277873
0.0277859
0.0277845
0.0277831
0.0277816
0.0277801
0.0277786
0.027777
0.0277753
0.0277737
0.027772
0.0277703
0.0277685
0.0277667
0.0277648
0.0277629
0.027761
0.0277591
0.0277571
0.027755
0.027753
0.0277509
0.0277487
0.0277465
0.0277443
0.0277421
0.0277398
0.0277375
0.0277351
0.0277327
0.0277303
0.0277279
0.0277254
0.0277228
0.0277203
0.0277177
0.027715
0.0277124
0.0277097
0.0277069
0.0277042
0.0277014
0.0276985
0.0276956
0.0276927
0.0276898
0.0276868
0.0276838
0.0276808
0.0276777
0.0276746
0.0276715
0.0276683
0.0276651
0.0276619
0.0276586
0.0276553
0.027652
0.0276486
0.0276452
0.0276418
0.0276384
0.0276349
0.0276314
0.0276278
0.0276242
0.0276206
0.027617
0.0276134
0.0276097
0.027606
0.0276022
0.0275985
0.0275947
0.0275909
0.0275871
0.0275833
0.0275795
0.0275757
0.0275719
0.0275686
0.0275643
0.0275632
0.0275583
0.0275544
0.0275423
0.0275369
0.0275328
0.0275287
0.0275246
0.0275203
0.0275157
0.0275111
0.0275066
0.0275019
0.0274973
0.0274926
0.0274878
0.0274831
0.0274783
0.0274735
0.0274687
0.0274639
0.027459
0.0274541
0.0274492
0.0274443
0.0274393
0.0274344
0.0274294
0.0274244
0.0274194
0.0274144
0.0274093
0.0274043
0.0273992
0.0273941
0.027389
0.0273839
0.0273788
0.0273737
0.0273685
0.0273633
0.0273581
0.0273529
0.0273477
0.0273424
0.0273372
0.0273319
0.0273266
0.0273212
0.0273159
0.0273105
0.0273051
0.0272997
0.0272943
0.0272888
0.0272834
0.0272779
0.0272724
0.0272668
0.0272613
0.0272557
0.0272501
0.0272445
0.0272389
0.0272332
0.0272275
0.0272218
0.0272161
0.0272104
0.0272046
0.0271989
0.0271931
0.0271873
0.0271815
0.0271756
0.0271698
0.0271639
0.027158
0.0271521
0.0271462
0.0271402
0.0271343
0.0271283
0.0271223
0.0271163
0.0271103
0.0271042
0.0270982
0.0270921
0.027086
0.0270799
0.0270738
0.0270676
0.0270615
0.0270553
0.0270491
0.027043
0.0270367
0.0270305
0.0270243
0.027018
0.0270118
0.0270055
0.0269992
0.0269929
0.0269866
0.0269803
0.026974
0.0269676
0.0269612
0.0269549
0.0269485
0.0269421
0.0269357
0.0269293
0.0269229
0.0269164
0.02691
0.0269035
0.0268971
0.0268906
0.0268841
0.0268777
0.0268712
0.0268647
0.0268582
0.0268517
0.0268452
0.0268387
0.0268321
0.0268256
0.0268191
0.0268126
0.0268061
0.0267996
0.026793
0.0267865
0.02678
0.0267735
0.026767
0.0267606
0.0267541
0.0267476
0.0267412
0.0267348
0.0267284
0.026722
0.0267156
0.0267093
0.026703
0.0266968
0.0266906
0.0266844
0.0266783
0.0266722
0.0266662
0.0266603
0.0266544
0.0266486
0.0266429
0.0266374
0.0266319
0.0266265
0.0266213
0.0266162
0.0266113
0.0266066
0.0266021
0.0265977
0.0265937
0.0265898
0.0265863
0.0265831
0.0265802
0.0265777
0.0265756
0.0265741
0.0265729
0.0265726
0.0265725
0.0265738
0.0265752
0.0265776
0.0265841
0.0265833
0.0265994
0.0595082
0.0614265
0.0561191
0.0510806
0.0479467
0.0460524
0.0450238
0.0445459
0.0443202
0.0441687
0.0440499
0.0439629
0.0439009
0.0438557
0.0438231
0.0438005
0.043786
0.0437781
0.0437751
0.043776
0.0437803
0.0437873
0.0437965
0.0438076
0.0438201
0.0438339
0.0438487
0.0438643
0.0438806
0.0438975
0.0439149
0.0439326
0.0439507
0.0439691
0.0439876
0.0440064
0.0440253
0.0440444
0.0440635
0.0440827
0.0441021
0.0441214
0.0441408
0.0441603
0.0441798
0.0441993
0.0442188
0.0442384
0.0442579
0.0442775
0.0442971
0.0443167
0.0443363
0.0443559
0.0443755
0.044395
0.0444146
0.0444342
0.0444538
0.0444734
0.0444929
0.0445125
0.0445321
0.0445516
0.0445712
0.0445907
0.0446102
0.0446298
0.0446493
0.0446688
0.0446883
0.0447078
0.0447273
0.0447468
0.0447662
0.0447857
0.0448051
0.0448246
0.044844
0.0448634
0.0448828
0.0449023
0.0449216
0.044941
0.0449604
0.0449798
0.0449991
0.0450185
0.0450378
0.0450571
0.0450764
0.0450957
0.045115
0.0451343
0.0451535
0.0451728
0.045192
0.0452112
0.0452304
0.0452496
0.0452688
0.045288
0.0453072
0.0453263
0.0453454
0.0453646
0.0453837
0.0454028
0.0454218
0.0454409
0.04546
0.045479
0.045498
0.045517
0.045536
0.045555
0.045574
0.0455929
0.0456118
0.0456308
0.0456497
0.0456685
0.0456874
0.0457063
0.0457251
0.0457439
0.0457627
0.0457815
0.0458003
0.045819
0.0458377
0.0458564
0.0458751
0.0458938
0.0459124
0.0459311
0.0459497
0.0459682
0.0459868
0.0460053
0.0460238
0.0460422
0.0460605
0.0460792
0.0460966
0.0461166
0.0461312
0.0461545
0.0461644
0.04619
0.0462143
0.0462321
0.04625
0.0462699
0.0462901
0.0463101
0.0463299
0.0463495
0.0463689
0.0463883
0.0464077
0.0464269
0.0464461
0.0464652
0.0464843
0.0465033
0.0465223
0.0465412
0.0465601
0.0465789
0.0465977
0.0466164
0.0466351
0.0466537
0.0466723
0.0466909
0.0467094
0.0467278
0.0467463
0.0467646
0.0467829
0.0468012
0.0468194
0.0468375
0.0468557
0.0468737
0.0468917
0.0469097
0.0469276
0.0469454
0.0469632
0.046981
0.0469987
0.0470164
0.047034
0.0470516
0.0470692
0.0470867
0.0471042
0.0471216
0.047139
0.0471564
0.0471737
0.0471911
0.0472083
0.0472256
0.0472428
0.04726
0.0472772
0.0472943
0.0473114
0.0473285
0.0473455
0.0473625
0.0473795
0.0473965
0.0474134
0.0474303
0.0474472
0.047464
0.0474808
0.0474976
0.0475144
0.0475311
0.0475478
0.0475645
0.0475811
0.0475977
0.0476143
0.0476309
0.0476474
0.0476639
0.0476804
0.0476969
0.0477133
0.0477297
0.047746
0.0477623
0.0477787
0.0477949
0.0478112
0.0478274
0.0478436
0.0478597
0.0478758
0.0478919
0.047908
0.047924
0.04794
0.047956
0.047972
0.0479879
0.0480038
0.0480196
0.0480354
0.0480512
0.048067
0.0480827
0.0480984
0.0481141
0.0481297
0.0481453
0.0481609
0.0481765
0.048192
0.0482075
0.0482229
0.0482383
0.0482537
0.0482691
0.0482844
0.0482997
0.0483149
0.0483301
0.0483453
0.0483605
0.0483756
0.0483907
0.0484058
0.0484208
0.0484358
0.0484507
0.0484657
0.0484806
0.0484954
0.0485103
0.048525
0.0485398
0.0485545
0.0485692
0.0485839
0.0485985
0.0486131
0.0486276
0.0486422
0.0486566
0.0486711
0.0486855
0.0486999
0.0487142
0.0487285
0.0487428
0.0487571
0.0487713
0.0487854
0.0487996
0.0488137
0.0488277
0.0488417
0.0488557
0.0488697
0.0488836
0.0488975
0.0489113
0.0489252
0.0489389
0.0489527
0.0489664
0.04898
0.0489937
0.0490073
0.0490208
0.0490344
0.0490478
0.0490613
0.0490747
0.0490881
0.0491014
0.0491148
0.0491281
0.0491411
0.0491549
0.0491672
0.0491818
0.0491955
0.0492081
0.0492215
0.0492353
0.0492488
0.0492617
0.0492745
0.0492873
0.0493001
0.0493129
0.0493256
0.0493382
0.0493508
0.0493634
0.0493759
0.0493884
0.0494008
0.0494133
0.0494256
0.0494379
0.0494502
0.0494625
0.0494747
0.0494868
0.049499
0.0495111
0.0495231
0.0495351
0.0495471
0.049559
0.0495709
0.0495827
0.0495945
0.0496063
0.049618
0.0496297
0.0496413
0.0496529
0.0496645
0.049676
0.0496875
0.0496989
0.0497103
0.0497216
0.0497329
0.0497442
0.0497554
0.0497666
0.0497778
0.0497888
0.0497999
0.0498109
0.0498219
0.0498328
0.0498437
0.0498546
0.0498654
0.0498761
0.0498869
0.0498975
0.0499082
0.0499188
0.0499293
0.0499398
0.0499503
0.0499607
0.0499711
0.0499814
0.0499917
0.050002
0.0500122
0.0500223
0.0500324
0.0500425
0.0500526
0.0500625
0.0500725
0.0500824
0.0500923
0.0501021
0.0501118
0.0501216
0.0501313
0.0501409
0.0501505
0.05016
0.0501695
0.050179
0.0501884
0.0501978
0.0502071
0.0502164
0.0502257
0.0502349
0.050244
0.0502531
0.0502622
0.0502712
0.0502802
0.0502891
0.050298
0.0503068
0.0503156
0.0503244
0.0503331
0.0503417
0.0503503
0.0503589
0.0503674
0.0503759
0.0503843
0.0503927
0.0504011
0.0504094
0.0504176
0.0504258
0.050434
0.0504421
0.0504502
0.0504582
0.0504662
0.0504741
0.050482
0.0504898
0.0504976
0.0505054
0.0505131
0.0505207
0.0505283
0.0505359
0.0505434
0.0505509
0.0505583
0.0505657
0.050573
0.0505803
0.0505875
0.0505947
0.0506018
0.0506089
0.050616
0.050623
0.05063
0.0506368
0.0506438
0.0506506
0.0506574
0.0506642
0.0506702
0.0506784
0.0506829
0.0506869
0.0506946
0.050703
0.0507108
0.0507181
0.0507253
0.0507321
0.0507387
0.0507453
0.0507519
0.0507583
0.0507647
0.050771
0.0507773
0.0507835
0.0507896
0.0507956
0.0508017
0.0508076
0.0508135
0.0508194
0.0508251
0.0508309
0.0508365
0.0508422
0.0508477
0.0508532
0.0508587
0.0508641
0.0508694
0.0508747
0.05088
0.0508852
0.0508903
0.0508954
0.0509004
0.0509053
0.0509102
0.0509151
0.0509199
0.0509246
0.0509293
0.050934
0.0509385
0.0509431
0.0509475
0.050952
0.0509563
0.0509606
0.0509649
0.0509691
0.0509733
0.0509774
0.0509815
0.0509855
0.0509894
0.0509933
0.0509972
0.051001
0.0510048
0.0510085
0.0510122
0.0510158
0.0510194
0.0510229
0.0510263
0.0510298
0.0510331
0.0510365
0.0510398
0.051043
0.0510462
0.0510493
0.0510524
0.0510554
0.0510584
0.0510614
0.0510643
0.0510671
0.0510699
0.0510727
0.0510754
0.051078
0.0510807
0.0510832
0.0510857
0.0510882
0.0510906
0.051093
0.0510953
0.0510976
0.0510998
0.051102
0.0511042
0.0511062
0.0511083
0.0511103
0.0511122
0.0511141
0.051116
0.0511178
0.0511196
0.0511213
0.0511229
0.0511245
0.0511261
0.0511276
0.0511291
0.0511305
0.0511319
0.0511333
0.0511346
0.0511358
0.051137
0.0511381
0.0511392
0.0511403
0.0511413
0.0511423
0.0511432
0.051144
0.0511449
0.0511456
0.0511464
0.0511471
0.0511477
0.0511483
0.0511488
0.0511493
0.0511498
0.0511502
0.0511505
0.0511508
0.0511511
0.0511513
0.0511515
0.0511516
0.0511517
0.0511517
0.0511517
0.0511517
0.0511516
0.0511514
0.0511512
0.051151
0.0511507
0.0511504
0.05115
0.0511496
0.0511491
0.0511486
0.051148
0.0511474
0.0511468
0.0511461
0.0511454
0.0511446
0.0511438
0.0511429
0.051142
0.051141
0.05114
0.0511389
0.0511378
0.0511367
0.0511355
0.0511343
0.051133
0.0511317
0.0511303
0.0511289
0.0511275
0.051126
0.0511244
0.0511229
0.0511212
0.0511196
0.0511179
0.0511159
0.0511146
0.0511119
0.0511105
0.0511076
0.0511045
0.0511027
0.0511015
0.0510998
0.0510977
0.0510954
0.0510932
0.0510909
0.0510886
0.0510862
0.0510838
0.0510814
0.0510789
0.0510763
0.0510738
0.0510711
0.0510685
0.0510658
0.051063
0.0510602
0.0510574
0.0510545
0.0510516
0.0510486
0.0510456
0.0510426
0.0510395
0.0510364
0.0510332
0.05103
0.0510268
0.0510235
0.0510201
0.0510168
0.0510133
0.0510099
0.0510064
0.0510028
0.0509993
0.0509956
0.050992
0.0509883
0.0509845
0.0509807
0.0509769
0.0509731
0.0509692
0.0509652
0.0509612
0.0509572
0.0509531
0.050949
0.0509449
0.0509407
0.0509365
0.0509322
0.0509279
0.0509236
0.0509192
0.0509148
0.0509104
0.0509059
0.0509013
0.0508968
0.0508922
0.0508875
0.0508828
0.0508781
0.0508733
0.0508685
0.0508637
0.0508588
0.0508539
0.050849
0.050844
0.050839
0.0508339
0.0508288
0.0508237
0.0508185
0.0508133
0.0508081
0.0508028
0.0507975
0.0507921
0.0507867
0.0507813
0.0507758
0.0507703
0.0507648
0.0507592
0.0507536
0.050748
0.0507423
0.0507366
0.0507308
0.0507251
0.0507193
0.0507134
0.0507075
0.0507016
0.0506957
0.0506897
0.0506836
0.0506776
0.0506715
0.0506654
0.0506592
0.050653
0.0506468
0.0506406
0.0506343
0.050628
0.0506216
0.0506152
0.0506088
0.0506023
0.0505959
0.0505894
0.0505828
0.0505762
0.0505696
0.050563
0.0505563
0.0505496
0.0505429
0.0505361
0.0505293
0.0505225
0.0505157
0.0505088
0.0505019
0.050495
0.050488
0.0504811
0.0504741
0.0504671
0.05046
0.050453
0.0504459
0.0504389
0.0504318
0.0504249
0.0504178
0.0504116
0.0504033
0.0504006
0.0503892
0.0503878
0.0503739
0.0503605
0.0503514
0.0503429
0.0503352
0.0503275
0.0503194
0.0503113
0.0503033
0.0502952
0.0502871
0.0502789
0.0502707
0.0502625
0.0502543
0.0502461
0.0502378
0.0502296
0.0502213
0.050213
0.0502047
0.0501963
0.050188
0.0501796
0.0501712
0.0501629
0.0501545
0.050146
0.0501376
0.0501292
0.0501208
0.0501123
0.0501039
0.0500954
0.050087
0.0500785
0.05007
0.0500615
0.050053
0.0500445
0.050036
0.0500274
0.0500189
0.0500103
0.0500017
0.0499931
0.0499844
0.0499758
0.0499671
0.0499584
0.0499497
0.049941
0.0499322
0.0499235
0.0499147
0.0499058
0.049897
0.0498882
0.0498793
0.0498704
0.0498615
0.0498526
0.0498436
0.0498347
0.0498257
0.0498167
0.0498076
0.0497986
0.0497896
0.0497805
0.0497714
0.0497623
0.0497531
0.049744
0.0497348
0.0497256
0.0497164
0.0497072
0.049698
0.0496887
0.0496795
0.0496702
0.0496609
0.0496516
0.0496423
0.0496329
0.0496236
0.0496142
0.0496048
0.0495954
0.049586
0.0495765
0.0495671
0.0495576
0.0495482
0.0495387
0.0495292
0.0495197
0.0495101
0.0495006
0.049491
0.0494815
0.0494719
0.0494623
0.0494527
0.0494431
0.0494335
0.0494239
0.0494142
0.0494046
0.0493949
0.0493853
0.0493756
0.0493659
0.0493562
0.0493465
0.0493368
0.0493271
0.0493174
0.0493077
0.049298
0.0492883
0.0492785
0.0492688
0.0492591
0.0492494
0.0492397
0.04923
0.0492203
0.0492106
0.0492009
0.0491912
0.0491815
0.0491719
0.0491623
0.0491526
0.0491431
0.0491335
0.049124
0.0491145
0.049105
0.0490956
0.0490862
0.0490769
0.0490676
0.0490584
0.0490493
0.0490402
0.0490312
0.0490223
0.0490136
0.0490049
0.0489963
0.0489879
0.0489797
0.0489716
0.0489636
0.0489559
0.0489484
0.0489411
0.0489341
0.0489274
0.048921
0.0489149
0.0489092
0.0489039
0.0488991
0.0488948
0.048891
0.0488879
0.0488853
0.0488836
0.0488826
0.0488825
0.0488833
0.0488856
0.0488882
0.0488939
0.0488989
0.0489065
0.0489221
0.0489192
0.048958
0.0597658
0.0647143
0.0648194
0.0631021
0.0613264
0.059677
0.0583721
0.057538
0.0570537
0.0567406
0.0565187
0.0563618
0.0562497
0.0561668
0.0561046
0.0560582
0.0560239
0.0559988
0.0559812
0.0559696
0.0559626
0.0559594
0.0559595
0.0559621
0.0559668
0.0559731
0.0559809
0.0559898
0.0559997
0.0560104
0.0560217
0.0560336
0.056046
0.0560587
0.0560717
0.056085
0.0560985
0.0561121
0.0561259
0.0561399
0.0561539
0.056168
0.0561822
0.0561965
0.0562108
0.0562251
0.0562395
0.0562539
0.0562683
0.0562827
0.0562971
0.0563116
0.056326
0.0563405
0.056355
0.0563694
0.0563839
0.0563983
0.0564128
0.0564272
0.0564417
0.0564561
0.0564706
0.056485
0.0564994
0.0565138
0.0565283
0.0565427
0.0565571
0.0565714
0.0565858
0.0566002
0.0566146
0.0566289
0.0566433
0.0566576
0.0566719
0.0566863
0.0567006
0.0567149
0.0567292
0.0567435
0.0567577
0.056772
0.0567862
0.0568005
0.0568147
0.0568289
0.0568431
0.0568573
0.0568715
0.0568857
0.0568999
0.056914
0.0569282
0.0569423
0.0569564
0.0569705
0.0569846
0.0569987
0.0570127
0.0570268
0.0570408
0.0570549
0.0570689
0.0570829
0.0570969
0.0571108
0.0571248
0.0571387
0.0571527
0.0571666
0.0571805
0.0571944
0.0572083
0.0572221
0.057236
0.0572498
0.0572636
0.0572774
0.0572912
0.057305
0.0573187
0.0573324
0.0573462
0.0573599
0.0573735
0.0573872
0.0574009
0.0574145
0.0574281
0.0574417
0.0574553
0.0574688
0.0574824
0.0574959
0.0575094
0.0575228
0.0575363
0.0575497
0.0575631
0.0575764
0.0575897
0.0576031
0.0576158
0.0576301
0.0576407
0.0576569
0.0576658
0.0576815
0.0576999
0.0577167
0.0577303
0.0577427
0.0577565
0.0577706
0.0577849
0.057799
0.0578129
0.0578268
0.0578407
0.0578545
0.0578682
0.0578819
0.0578956
0.0579092
0.0579228
0.0579363
0.0579498
0.0579633
0.0579767
0.0579901
0.0580034
0.0580167
0.05803
0.0580432
0.0580564
0.0580695
0.0580826
0.0580957
0.0581087
0.0581217
0.0581346
0.0581475
0.0581604
0.0581732
0.0581859
0.0581987
0.0582113
0.058224
0.0582366
0.0582492
0.0582617
0.0582742
0.0582867
0.0582991
0.0583115
0.0583238
0.0583362
0.0583485
0.0583607
0.0583729
0.0583851
0.0583973
0.0584095
0.0584216
0.0584337
0.0584457
0.0584577
0.0584697
0.0584817
0.0584936
0.0585056
0.0585174
0.0585293
0.0585411
0.0585529
0.0585647
0.0585764
0.0585882
0.0585999
0.0586115
0.0586232
0.0586348
0.0586463
0.0586579
0.0586694
0.0586809
0.0586924
0.0587038
0.0587152
0.0587266
0.0587379
0.0587493
0.0587606
0.0587718
0.0587831
0.0587943
0.0588054
0.0588166
0.0588277
0.0588388
0.0588499
0.0588609
0.0588719
0.0588829
0.0588938
0.0589047
0.0589156
0.0589264
0.0589373
0.0589481
0.0589588
0.0589695
0.0589802
0.0589909
0.0590016
0.0590122
0.0590227
0.0590333
0.0590438
0.0590543
0.0590647
0.0590751
0.0590855
0.0590959
0.0591062
0.0591165
0.0591268
0.059137
0.0591472
0.0591574
0.0591675
0.0591776
0.0591877
0.0591977
0.0592077
0.0592177
0.0592276
0.0592375
0.0592474
0.0592572
0.059267
0.0592768
0.0592865
0.0592962
0.0593059
0.0593155
0.0593251
0.0593347
0.0593442
0.0593537
0.0593632
0.0593726
0.059382
0.0593913
0.0594007
0.05941
0.0594192
0.0594284
0.0594376
0.0594468
0.0594559
0.059465
0.059474
0.059483
0.059492
0.0595009
0.0595098
0.0595187
0.0595275
0.0595363
0.0595451
0.0595538
0.0595625
0.0595712
0.0595798
0.0595884
0.0595969
0.0596054
0.0596139
0.0596223
0.0596307
0.0596391
0.0596474
0.0596557
0.059664
0.0596722
0.0596804
0.0596886
0.0596965
0.059705
0.0597124
0.0597214
0.0597305
0.0597378
0.0597452
0.0597535
0.0597617
0.0597695
0.0597772
0.0597849
0.0597926
0.0598002
0.0598078
0.0598153
0.0598228
0.0598302
0.0598376
0.059845
0.0598523
0.0598596
0.0598669
0.0598741
0.0598812
0.0598884
0.0598954
0.0599025
0.0599095
0.0599164
0.0599234
0.0599302
0.0599371
0.0599439
0.0599506
0.0599574
0.059964
0.0599707
0.0599773
0.0599838
0.0599903
0.0599968
0.0600033
0.0600096
0.060016
0.0600223
0.0600286
0.0600348
0.060041
0.0600471
0.0600532
0.0600593
0.0600653
0.0600713
0.0600772
0.0600831
0.060089
0.0600948
0.0601005
0.0601063
0.0601119
0.0601176
0.0601232
0.0601287
0.0601342
0.0601397
0.0601451
0.0601505
0.0601559
0.0601612
0.0601664
0.0601716
0.0601768
0.0601819
0.060187
0.0601921
0.060197
0.060202
0.0602069
0.0602118
0.0602166
0.0602214
0.0602261
0.0602308
0.0602355
0.0602401
0.0602446
0.0602491
0.0602536
0.060258
0.0602624
0.0602668
0.0602711
0.0602753
0.0602795
0.0602837
0.0602878
0.0602919
0.0602959
0.0602999
0.0603038
0.0603077
0.0603116
0.0603154
0.0603191
0.0603229
0.0603265
0.0603302
0.0603337
0.0603373
0.0603408
0.0603442
0.0603476
0.060351
0.0603543
0.0603576
0.0603608
0.060364
0.0603671
0.0603702
0.0603732
0.0603762
0.0603792
0.0603821
0.0603849
0.0603877
0.0603905
0.0603932
0.0603959
0.0603985
0.0604011
0.0604036
0.0604061
0.0604086
0.060411
0.0604133
0.0604157
0.0604179
0.0604201
0.0604223
0.0604244
0.0604265
0.0604286
0.0604306
0.0604325
0.0604344
0.0604364
0.060438
0.0604401
0.0604417
0.0604433
0.0604458
0.0604457
0.0604498
0.0604524
0.0604506
0.0604503
0.0604522
0.0604541
0.0604556
0.0604571
0.0604584
0.0604595
0.0604607
0.0604618
0.0604628
0.0604637
0.0604646
0.0604655
0.0604663
0.060467
0.0604677
0.0604684
0.060469
0.0604695
0.06047
0.0604705
0.0604709
0.0604712
0.0604715
0.0604718
0.060472
0.0604722
0.0604723
0.0604723
0.0604724
0.0604723
0.0604723
0.0604722
0.060472
0.0604718
0.0604716
0.0604713
0.0604709
0.0604705
0.0604701
0.0604696
0.0604691
0.0604685
0.0604679
0.0604672
0.0604664
0.0604657
0.0604648
0.060464
0.060463
0.0604621
0.060461
0.06046
0.0604589
0.0604577
0.0604565
0.0604552
0.0604539
0.0604525
0.0604511
0.0604497
0.0604482
0.0604466
0.060445
0.0604434
0.0604417
0.0604399
0.0604381
0.0604363
0.0604344
0.0604324
0.0604305
0.0604284
0.0604264
0.0604242
0.060422
0.0604198
0.0604176
0.0604152
0.0604129
0.0604105
0.060408
0.0604055
0.0604029
0.0604003
0.0603977
0.060395
0.0603922
0.0603894
0.0603866
0.0603837
0.0603808
0.0603778
0.0603748
0.0603717
0.0603686
0.0603654
0.0603622
0.0603589
0.0603556
0.0603522
0.0603488
0.0603454
0.0603419
0.0603383
0.0603347
0.0603311
0.0603274
0.0603236
0.0603199
0.060316
0.0603122
0.0603082
0.0603043
0.0603002
0.0602962
0.0602921
0.0602879
0.0602837
0.0602795
0.0602752
0.0602708
0.0602664
0.060262
0.0602575
0.060253
0.0602484
0.0602438
0.0602391
0.0602344
0.0602296
0.0602248
0.06022
0.0602151
0.0602101
0.0602052
0.0602001
0.060195
0.0601899
0.0601847
0.0601795
0.0601742
0.0601689
0.0601636
0.0601582
0.0601527
0.0601472
0.0601417
0.0601361
0.0601305
0.0601248
0.0601191
0.0601133
0.0601075
0.0601017
0.0600957
0.0600898
0.0600838
0.0600778
0.0600717
0.0600656
0.0600594
0.0600532
0.0600469
0.0600406
0.0600343
0.0600279
0.0600214
0.060015
0.0600084
0.0600018
0.0599952
0.0599886
0.0599819
0.0599751
0.0599684
0.0599615
0.0599545
0.059948
0.0599403
0.0599335
0.0599259
0.0599172
0.0599097
0.059903
0.0598961
0.0598888
0.0598815
0.0598742
0.0598668
0.0598593
0.0598519
0.0598443
0.0598368
0.0598292
0.0598215
0.0598138
0.0598061
0.0597983
0.0597905
0.0597826
0.0597747
0.0597667
0.0597587
0.0597507
0.0597426
0.0597345
0.0597264
0.0597182
0.0597099
0.0597016
0.0596933
0.0596849
0.0596765
0.0596681
0.0596596
0.059651
0.0596425
0.0596339
0.0596252
0.0596165
0.0596078
0.059599
0.0595902
0.0595813
0.0595724
0.0595635
0.0595545
0.0595455
0.0595364
0.0595273
0.0595182
0.059509
0.0594998
0.0594905
0.0594812
0.0594719
0.0594625
0.0594531
0.0594437
0.0594342
0.0594246
0.0594151
0.0594055
0.0593958
0.0593861
0.0593764
0.0593666
0.0593568
0.059347
0.0593371
0.0593272
0.0593173
0.0593073
0.0592972
0.0592872
0.0592771
0.0592669
0.0592568
0.0592466
0.0592363
0.059226
0.0592157
0.0592053
0.0591949
0.0591845
0.059174
0.0591635
0.059153
0.0591424
0.0591318
0.0591212
0.0591105
0.0590998
0.059089
0.0590782
0.0590674
0.0590565
0.0590456
0.0590347
0.0590238
0.0590128
0.0590017
0.0589907
0.0589796
0.0589684
0.0589573
0.0589461
0.0589348
0.0589236
0.0589123
0.0589009
0.0588896
0.0588782
0.0588667
0.0588553
0.0588438
0.0588322
0.0588207
0.0588091
0.0587975
0.0587858
0.0587741
0.0587624
0.0587507
0.0587389
0.0587271
0.0587152
0.0587034
0.0586915
0.0586796
0.0586676
0.0586556
0.0586436
0.0586316
0.0586196
0.0586075
0.0585954
0.0585833
0.0585711
0.058559
0.0585469
0.0585347
0.0585226
0.0585106
0.0584985
0.058487
0.0584743
0.0584651
0.0584503
0.0584422
0.0584261
0.0584058
0.0583905
0.0583766
0.0583628
0.0583493
0.0583357
0.0583221
0.0583085
0.058295
0.0582814
0.0582679
0.0582543
0.0582407
0.0582271
0.0582135
0.0581998
0.0581862
0.0581726
0.0581589
0.0581452
0.0581316
0.0581179
0.0581042
0.0580905
0.0580768
0.0580631
0.0580494
0.0580357
0.058022
0.0580083
0.0579946
0.0579809
0.0579673
0.0579536
0.0579399
0.0579262
0.0579125
0.0578988
0.0578851
0.0578714
0.0578577
0.0578439
0.0578302
0.0578164
0.0578027
0.0577889
0.0577751
0.0577613
0.0577475
0.0577336
0.0577198
0.0577059
0.057692
0.0576781
0.0576641
0.0576502
0.0576362
0.0576222
0.0576082
0.0575942
0.0575801
0.0575661
0.057552
0.0575379
0.0575238
0.0575096
0.0574955
0.0574813
0.0574671
0.0574529
0.0574387
0.0574244
0.0574102
0.0573959
0.0573816
0.0573673
0.0573529
0.0573386
0.0573242
0.0573099
0.0572955
0.0572811
0.0572666
0.0572522
0.0572377
0.0572233
0.0572088
0.0571943
0.0571798
0.0571652
0.0571507
0.0571361
0.0571215
0.057107
0.0570924
0.0570778
0.0570631
0.0570485
0.0570338
0.0570192
0.0570045
0.0569898
0.0569751
0.0569604
0.0569457
0.056931
0.0569162
0.0569015
0.0568867
0.056872
0.0568572
0.0568424
0.0568276
0.0568128
0.056798
0.0567832
0.0567684
0.0567536
0.0567388
0.056724
0.0567092
0.0566944