/*--------------------------------*- C++ -*----------------------------------*\
| =========                 |                                                 |
| \\      /  F ield         | OpenFOAM: The Open Source CFD Toolbox           |
|  \\    /   O peration     | Version:  2512                                  |
|   \\  /    A nd           | Website:  www.openfoam.com                      |
|    \\/     M anipulation  |                                                 |
\*---------------------------------------------------------------------------*/
FoamFile
{
    version     2.0;
    format      ascii;
    arch        "LSB;label=32;scalar=64";
    class       volScalarField;
    location    "0.1";
    object      Uy;
}
// * * * * * * * * * * * * * * * * * * * * * * * * * * * * * * * * * * * * * //

dimensions      [0 1 -1 0 0 0 0];

internalField   nonuniform List<scalar> 
100000
(
0.00351778
0.00253184
0.00122874
0.000344447
3.91032e-05
-2.82936e-05
-4.17217e-05
-3.1055e-05
-1.57501e-05
-9.29368e-06
-8.88654e-06
-8.79915e-06
-8.32887e-06
-8.03562e-06
-7.96257e-06
-7.9836e-06
-8.05714e-06
-8.07228e-06
-7.81032e-06
-7.6533e-06
-7.54374e-06
-7.43348e-06
-7.40334e-06
-7.38916e-06
-7.3808e-06
-7.37804e-06
-7.37871e-06
-7.38133e-06
-7.38431e-06
-7.38694e-06
-7.38894e-06
-7.39025e-06
-7.39108e-06
-7.39149e-06
-7.3915e-06
-7.39123e-06
-7.39076e-06
-7.39009e-06
-7.38928e-06
-7.38836e-06
-7.38735e-06
-7.38627e-06
-7.38514e-06
-7.38398e-06
-7.38279e-06
-7.38153e-06
-7.38025e-06
-7.37896e-06
-7.37763e-06
-7.37625e-06
-7.37485e-06
-7.37343e-06
-7.37197e-06
-7.37048e-06
-7.36897e-06
-7.36744e-06
-7.36588e-06
-7.36428e-06
-7.36265e-06
-7.361e-06
-7.35932e-06
-7.35761e-06
-7.35586e-06
-7.35408e-06
-7.35226e-06
-7.35043e-06
-7.34856e-06
-7.34666e-06
-7.34474e-06
-7.3428e-06
-7.34082e-06
-7.33881e-06
-7.33679e-06
-7.33473e-06
-7.33264e-06
-7.33051e-06
-7.32835e-06
-7.32618e-06
-7.32397e-06
-7.32172e-06
-7.31944e-06
-7.31714e-06
-7.31482e-06
-7.31246e-06
-7.31007e-06
-7.30766e-06
-7.30522e-06
-7.30273e-06
-7.30022e-06
-7.2977e-06
-7.29513e-06
-7.29252e-06
-7.2899e-06
-7.28724e-06
-7.28457e-06
-7.28186e-06
-7.27912e-06
-7.27635e-06
-7.27355e-06
-7.27071e-06
-7.26786e-06
-7.26495e-06
-7.26201e-06
-7.25904e-06
-7.25604e-06
-7.25301e-06
-7.24994e-06
-7.24683e-06
-7.2437e-06
-7.24053e-06
-7.23733e-06
-7.23411e-06
-7.23084e-06
-7.22752e-06
-7.22417e-06
-7.22077e-06
-7.21733e-06
-7.21386e-06
-7.21033e-06
-7.20676e-06
-7.20315e-06
-7.19949e-06
-7.19581e-06
-7.19206e-06
-7.18825e-06
-7.18438e-06
-7.18045e-06
-7.17644e-06
-7.17235e-06
-7.16814e-06
-7.16384e-06
-7.1594e-06
-7.15481e-06
-7.15003e-06
-7.14505e-06
-7.13975e-06
-7.13418e-06
-7.12809e-06
-7.12161e-06
-7.11438e-06
-7.10534e-06
-7.09875e-06
-7.07669e-06
-7.08868e-06
-7.00616e-06
-7.09692e-06
-6.85893e-06
-6.98626e-06
-5.74176e-06
-4.62452e-06
-9.52687e-06
-8.0791e-06
-8.50458e-06
-7.72546e-06
-7.16066e-06
-7.07887e-06
-7.13321e-06
-7.18594e-06
-7.20422e-06
-7.19122e-06
-7.18183e-06
-7.18199e-06
-7.17905e-06
-7.17363e-06
-7.1677e-06
-7.15969e-06
-7.15083e-06
-7.14239e-06
-7.1342e-06
-7.12611e-06
-7.11793e-06
-7.1095e-06
-7.10095e-06
-7.09233e-06
-7.08356e-06
-7.07462e-06
-7.06559e-06
-7.05646e-06
-7.04722e-06
-7.03785e-06
-7.0283e-06
-7.01867e-06
-7.00904e-06
-6.99942e-06
-6.98977e-06
-6.98014e-06
-6.9706e-06
-6.96118e-06
-6.95193e-06
-6.94286e-06
-6.93401e-06
-6.92542e-06
-6.91714e-06
-6.90914e-06
-6.90139e-06
-6.89388e-06
-6.88662e-06
-6.87958e-06
-6.87271e-06
-6.86599e-06
-6.85941e-06
-6.85294e-06
-6.84657e-06
-6.84028e-06
-6.83404e-06
-6.82787e-06
-6.82173e-06
-6.81564e-06
-6.80957e-06
-6.80352e-06
-6.7975e-06
-6.79149e-06
-6.7855e-06
-6.77951e-06
-6.7735e-06
-6.7675e-06
-6.76148e-06
-6.75546e-06
-6.74942e-06
-6.74338e-06
-6.73732e-06
-6.73125e-06
-6.72516e-06
-6.71906e-06
-6.71294e-06
-6.70681e-06
-6.70067e-06
-6.6945e-06
-6.68832e-06
-6.68213e-06
-6.6759e-06
-6.66966e-06
-6.66341e-06
-6.65713e-06
-6.65083e-06
-6.64451e-06
-6.63817e-06
-6.63181e-06
-6.62542e-06
-6.61901e-06
-6.61257e-06
-6.60612e-06
-6.59964e-06
-6.59314e-06
-6.58662e-06
-6.58009e-06
-6.57353e-06
-6.56694e-06
-6.56034e-06
-6.55371e-06
-6.54706e-06
-6.54039e-06
-6.53369e-06
-6.52697e-06
-6.52022e-06
-6.51345e-06
-6.50667e-06
-6.49988e-06
-6.49306e-06
-6.48622e-06
-6.47936e-06
-6.47248e-06
-6.46557e-06
-6.45863e-06
-6.45167e-06
-6.44469e-06
-6.4377e-06
-6.43069e-06
-6.42366e-06
-6.41661e-06
-6.40954e-06
-6.40245e-06
-6.39533e-06
-6.3882e-06
-6.38105e-06
-6.37388e-06
-6.36668e-06
-6.35946e-06
-6.35222e-06
-6.34495e-06
-6.33768e-06
-6.3304e-06
-6.32308e-06
-6.31575e-06
-6.3084e-06
-6.30104e-06
-6.29365e-06
-6.28625e-06
-6.27883e-06
-6.2714e-06
-6.26393e-06
-6.25646e-06
-6.24896e-06
-6.24144e-06
-6.23391e-06
-6.22638e-06
-6.21883e-06
-6.21126e-06
-6.20367e-06
-6.19607e-06
-6.18846e-06
-6.18082e-06
-6.17318e-06
-6.16552e-06
-6.15785e-06
-6.15015e-06
-6.14243e-06
-6.13469e-06
-6.12695e-06
-6.11919e-06
-6.11142e-06
-6.10364e-06
-6.09586e-06
-6.08806e-06
-6.08026e-06
-6.07246e-06
-6.06466e-06
-6.05686e-06
-6.04907e-06
-6.04128e-06
-6.03355e-06
-6.02573e-06
-6.01825e-06
-6.01021e-06
-6.00337e-06
-5.99476e-06
-5.98842e-06
-5.98122e-06
-5.96861e-06
-5.9752e-06
-5.93713e-06
-5.9787e-06
-5.92143e-06
-5.91811e-06
-6.09913e-06
-6.08542e-06
-6.06709e-06
-5.9298e-06
-5.85896e-06
-5.86276e-06
-5.87089e-06
-5.86459e-06
-5.85442e-06
-5.84552e-06
-5.83718e-06
-5.82871e-06
-5.82018e-06
-5.81167e-06
-5.80321e-06
-5.79474e-06
-5.78629e-06
-5.77784e-06
-5.76939e-06
-5.76095e-06
-5.75249e-06
-5.74401e-06
-5.73553e-06
-5.72704e-06
-5.71851e-06
-5.70999e-06
-5.70142e-06
-5.69285e-06
-5.68429e-06
-5.67568e-06
-5.66708e-06
-5.65843e-06
-5.64979e-06
-5.64111e-06
-5.63244e-06
-5.62375e-06
-5.61504e-06
-5.60632e-06
-5.59757e-06
-5.5888e-06
-5.58e-06
-5.57122e-06
-5.56235e-06
-5.5536e-06
-5.54462e-06
-5.53596e-06
-5.52678e-06
-5.51789e-06
-5.50897e-06
-5.50002e-06
-5.49106e-06
-5.48206e-06
-5.47301e-06
-5.46395e-06
-5.45487e-06
-5.44575e-06
-5.43661e-06
-5.42744e-06
-5.41824e-06
-5.40901e-06
-5.39976e-06
-5.39048e-06
-5.38117e-06
-5.37183e-06
-5.36246e-06
-5.35306e-06
-5.34363e-06
-5.33417e-06
-5.32467e-06
-5.31513e-06
-5.30556e-06
-5.29597e-06
-5.28634e-06
-5.27666e-06
-5.26696e-06
-5.25722e-06
-5.24745e-06
-5.23763e-06
-5.22781e-06
-5.2179e-06
-5.20804e-06
-5.198e-06
-5.188e-06
-5.17798e-06
-5.16792e-06
-5.15782e-06
-5.14767e-06
-5.13749e-06
-5.12727e-06
-5.11702e-06
-5.10673e-06
-5.09641e-06
-5.08605e-06
-5.07565e-06
-5.06522e-06
-5.05471e-06
-5.0442e-06
-5.03365e-06
-5.02306e-06
-5.01243e-06
-5.00176e-06
-4.99105e-06
-4.98029e-06
-4.96953e-06
-4.95868e-06
-4.94791e-06
-4.93691e-06
-4.9262e-06
-4.91501e-06
-4.90406e-06
-4.8931e-06
-4.88209e-06
-4.87105e-06
-4.85996e-06
-4.84884e-06
-4.83771e-06
-4.82655e-06
-4.81538e-06
-4.8042e-06
-4.79303e-06
-4.78186e-06
-4.77073e-06
-4.75959e-06
-4.7485e-06
-4.73739e-06
-4.72634e-06
-4.71533e-06
-4.70434e-06
-4.69339e-06
-4.68247e-06
-4.67156e-06
-4.66067e-06
-4.64979e-06
-4.6389e-06
-4.62801e-06
-4.61706e-06
-4.60611e-06
-4.59491e-06
-4.58394e-06
-4.57187e-06
-4.56118e-06
-4.54754e-06
-4.53506e-06
-4.52815e-06
-4.48728e-06
-4.54139e-06
-4.35711e-06
-4.44716e-06
-4.12226e-06
-3.94476e-06
-4.75366e-06
-5.54164e-06
-4.87303e-06
-4.47247e-06
-4.48187e-06
-4.5414e-06
-4.52882e-06
-4.50265e-06
-4.49975e-06
-4.48811e-06
-4.46791e-06
-4.45558e-06
-4.44498e-06
-4.43167e-06
-4.41899e-06
-4.40759e-06
-4.39686e-06
-4.38654e-06
-4.37619e-06
-4.36576e-06
-4.35549e-06
-4.34542e-06
-4.33546e-06
-4.32557e-06
-4.31573e-06
-4.30595e-06
-4.29622e-06
-4.28654e-06
-4.27692e-06
-4.26735e-06
-4.25786e-06
-4.24845e-06
-4.23914e-06
-4.22991e-06
-4.22079e-06
-4.2118e-06
-4.20297e-06
-4.19434e-06
-4.1859e-06
-4.17768e-06
-4.1697e-06
-4.16196e-06
-4.1545e-06
-4.14731e-06
-4.14038e-06
-4.1337e-06
-4.12727e-06
-4.12108e-06
-4.11512e-06
-4.10938e-06
-4.10386e-06
-4.09854e-06
-4.09342e-06
-4.08849e-06
-4.08375e-06
-4.07919e-06
-4.07482e-06
-4.07065e-06
-4.06668e-06
-4.0629e-06
-4.05928e-06
-4.05582e-06
-4.05246e-06
-4.0492e-06
-4.04599e-06
-4.04283e-06
-4.03969e-06
-4.03656e-06
-4.03341e-06
-4.03021e-06
-4.02695e-06
-4.0236e-06
-4.02014e-06
-4.01657e-06
-4.01287e-06
-4.00901e-06
-4.005e-06
-4.00084e-06
-3.99654e-06
-3.99209e-06
-3.9875e-06
-3.98277e-06
-3.9779e-06
-3.9729e-06
-3.96777e-06
-3.96252e-06
-3.95715e-06
-3.95167e-06
-3.94608e-06
-3.94037e-06
-3.93456e-06
-3.92865e-06
-3.92264e-06
-3.91653e-06
-3.91032e-06
-3.90402e-06
-3.89761e-06
-3.89111e-06
-3.88451e-06
-3.87783e-06
-3.87107e-06
-3.86422e-06
-3.85729e-06
-3.85028e-06
-3.8432e-06
-3.83604e-06
-3.82881e-06
-3.82151e-06
-3.81414e-06
-3.80669e-06
-3.79917e-06
-3.79157e-06
-3.78391e-06
-3.77618e-06
-3.76839e-06
-3.76054e-06
-3.75262e-06
-3.74465e-06
-3.73662e-06
-3.72853e-06
-3.72039e-06
-3.71219e-06
-3.70393e-06
-3.69562e-06
-3.68726e-06
-3.67884e-06
-3.67036e-06
-3.66184e-06
-3.65328e-06
-3.64467e-06
-3.63602e-06
-3.62733e-06
-3.61861e-06
-3.60985e-06
-3.60105e-06
-3.59222e-06
-3.58336e-06
-3.57446e-06
-3.56552e-06
-3.55655e-06
-3.54754e-06
-3.5385e-06
-3.52943e-06
-3.52033e-06
-3.5112e-06
-3.50204e-06
-3.49286e-06
-3.48366e-06
-3.47443e-06
-3.46518e-06
-3.4559e-06
-3.44659e-06
-3.43727e-06
-3.42792e-06
-3.41853e-06
-3.40913e-06
-3.3997e-06
-3.39026e-06
-3.38079e-06
-3.3713e-06
-3.36179e-06
-3.35227e-06
-3.34272e-06
-3.33317e-06
-3.3236e-06
-3.314e-06
-3.30439e-06
-3.29477e-06
-3.28512e-06
-3.27548e-06
-3.26577e-06
-3.25621e-06
-3.24624e-06
-3.23717e-06
-3.2263e-06
-3.2184e-06
-3.20688e-06
-3.19558e-06
-3.19573e-06
-3.15447e-06
-3.21511e-06
-3.15167e-06
-3.42558e-06
-3.15656e-06
-3.28567e-06
-3.27608e-06
-3.13103e-06
-3.06671e-06
-3.07432e-06
-3.07917e-06
-3.07031e-06
-3.05939e-06
-3.04964e-06
-3.04005e-06
-3.03026e-06
-3.02039e-06
-3.0105e-06
-3.0006e-06
-2.99069e-06
-2.98076e-06
-2.97083e-06
-2.96089e-06
-2.95094e-06
-2.941e-06
-2.93105e-06
-2.92109e-06
-2.91113e-06
-2.90117e-06
-2.89121e-06
-2.88124e-06
-2.87128e-06
-2.86131e-06
-2.85133e-06
-2.84136e-06
-2.83139e-06
-2.82142e-06
-2.81144e-06
-2.80147e-06
-2.7915e-06
-2.78153e-06
-2.77155e-06
-2.76158e-06
-2.75162e-06
-2.74166e-06
-2.73169e-06
-2.72173e-06
-2.71178e-06
-2.70182e-06
-2.69186e-06
-2.68192e-06
-2.67198e-06
-2.66203e-06
-2.6521e-06
-2.64217e-06
-2.63225e-06
-2.62232e-06
-2.61241e-06
-2.6025e-06
-2.59259e-06
-2.58269e-06
-2.5728e-06
-2.56291e-06
-2.55303e-06
-2.54315e-06
-2.53329e-06
-2.52343e-06
-2.51357e-06
-2.50373e-06
-2.4939e-06
-2.48407e-06
-2.47426e-06
-2.46447e-06
-2.45468e-06
-2.44491e-06
-2.43514e-06
-2.42538e-06
-2.41563e-06
-2.40589e-06
-2.39618e-06
-2.38647e-06
-2.37677e-06
-2.36709e-06
-2.35743e-06
-2.34779e-06
-2.33816e-06
-2.32855e-06
-2.31894e-06
-2.30935e-06
-2.29978e-06
-2.29023e-06
-2.28068e-06
-2.27114e-06
-2.26163e-06
-2.25213e-06
-2.24266e-06
-2.23319e-06
-2.22376e-06
-2.21435e-06
-2.20494e-06
-2.19556e-06
-2.18619e-06
-2.17683e-06
-2.16751e-06
-2.1582e-06
-2.1489e-06
-2.13963e-06
-2.13038e-06
-2.12116e-06
-2.11195e-06
-2.10277e-06
-2.09363e-06
-2.0845e-06
-2.0754e-06
-2.06632e-06
-2.05727e-06
-2.04824e-06
-2.03922e-06
-2.03025e-06
-2.0213e-06
-2.01238e-06
-2.00349e-06
-1.99463e-06
-1.98581e-06
-1.97704e-06
-1.9683e-06
-1.9596e-06
-1.95094e-06
-1.94232e-06
-1.93376e-06
-1.92524e-06
-1.91679e-06
-1.9084e-06
-1.9001e-06
-1.8919e-06
-1.88381e-06
-1.87585e-06
-1.86805e-06
-1.86045e-06
-1.85311e-06
-1.84613e-06
-1.83957e-06
-1.83377e-06
-1.82867e-06
-1.8253e-06
-1.82354e-06
-1.82309e-06
-1.83685e-06
-1.81703e-06
-1.93417e-06
-1.80376e-06
-2.53758e-06
-3.16305e-06
-6.24629e-06
-1.56737e-06
-1.81542e-06
-1.52962e-06
-1.77575e-06
-1.8551e-06
-1.63378e-06
-1.56266e-06
-1.59811e-06
-1.59263e-06
-1.57148e-06
-1.55776e-06
-1.54917e-06
-1.546e-06
-1.54242e-06
-1.53653e-06
-1.53051e-06
-1.52484e-06
-1.51946e-06
-1.51427e-06
-1.50903e-06
-1.50376e-06
-1.49857e-06
-1.49352e-06
-1.48867e-06
-1.484e-06
-1.47944e-06
-1.47501e-06
-1.47071e-06
-1.46649e-06
-1.46235e-06
-1.45822e-06
-1.45409e-06
-1.44995e-06
-1.44578e-06
-1.4415e-06
-1.43709e-06
-1.43258e-06
-1.42797e-06
-1.42326e-06
-1.4184e-06
-1.41341e-06
-1.40831e-06
-1.4031e-06
-1.3978e-06
-1.39241e-06
-1.38694e-06
-1.38141e-06
-1.37585e-06
-1.37025e-06
-1.36462e-06
-1.35897e-06
-1.3533e-06
-1.34761e-06
-1.34192e-06
-1.33623e-06
-1.33055e-06
-1.32488e-06
-1.31923e-06
-1.3136e-06
-1.30798e-06
-1.3024e-06
-1.29684e-06
-1.29131e-06
-1.2858e-06
-1.28033e-06
-1.27489e-06
-1.26949e-06
-1.26412e-06
-1.25879e-06
-1.2535e-06
-1.24825e-06
-1.24304e-06
-1.23787e-06
-1.23274e-06
-1.22765e-06
-1.2226e-06
-1.21759e-06
-1.21262e-06
-1.20771e-06
-1.20283e-06
-1.19799e-06
-1.1932e-06
-1.18845e-06
-1.18375e-06
-1.17909e-06
-1.17447e-06
-1.1699e-06
-1.16538e-06
-1.16092e-06
-1.1565e-06
-1.15213e-06
-1.14782e-06
-1.14355e-06
-1.13934e-06
-1.13517e-06
-1.13106e-06
-1.127e-06
-1.123e-06
-1.11904e-06
-1.11514e-06
-1.1113e-06
-1.1075e-06
-1.10376e-06
-1.10009e-06
-1.09647e-06
-1.0929e-06
-1.0894e-06
-1.08596e-06
-1.08258e-06
-1.07926e-06
-1.07601e-06
-1.07282e-06
-1.06969e-06
-1.06664e-06
-1.06365e-06
-1.06074e-06
-1.0579e-06
-1.05514e-06
-1.05246e-06
-1.04986e-06
-1.04735e-06
-1.04493e-06
-1.04261e-06
-1.04038e-06
-1.03826e-06
-1.03624e-06
-1.03434e-06
-1.03257e-06
-1.03091e-06
-1.0294e-06
-1.02802e-06
-1.02679e-06
-1.02572e-06
-1.02483e-06
-1.02411e-06
-1.02359e-06
-1.02327e-06
-1.02318e-06
-1.02333e-06
-1.02373e-06
-1.0244e-06
-1.02536e-06
-1.02663e-06
-1.02823e-06
-1.0302e-06
-1.03256e-06
-1.03535e-06
-1.03861e-06
-1.04237e-06
-1.04668e-06
-1.05159e-06
-1.05713e-06
-1.06338e-06
-1.07039e-06
-1.07823e-06
-1.08695e-06
-1.09665e-06
-1.10741e-06
-1.11932e-06
-1.13249e-06
-1.14701e-06
-1.16304e-06
-1.18066e-06
-1.20003e-06
-1.22124e-06
-1.24443e-06
-1.26976e-06
-1.29746e-06
-1.32768e-06
-1.36081e-06
-1.39661e-06
-1.43701e-06
-1.47761e-06
-1.53247e-06
-1.56777e-06
-1.66375e-06
-1.6627e-06
-1.82391e-06
-1.8989e-06
-1.7436e-06
-2.85232e-06
-1.58532e-06
-2.17781e-06
0.00566274
0.00607081
0.00490906
0.00273516
0.00120566
0.00047511
0.000135861
1.83159e-05
8.58988e-06
1.40772e-05
1.04272e-05
5.3434e-06
1.99689e-06
-6.35619e-07
-2.99721e-06
-4.9545e-06
-6.49712e-06
-7.80524e-06
-9.14805e-06
-1.01845e-05
-1.09723e-05
-1.18463e-05
-1.24527e-05
-1.29237e-05
-1.33001e-05
-1.36042e-05
-1.38526e-05
-1.40565e-05
-1.42238e-05
-1.4362e-05
-1.44768e-05
-1.45719e-05
-1.46509e-05
-1.47165e-05
-1.47709e-05
-1.4816e-05
-1.48534e-05
-1.48844e-05
-1.49101e-05
-1.49313e-05
-1.49488e-05
-1.49633e-05
-1.49752e-05
-1.49849e-05
-1.49928e-05
-1.49991e-05
-1.50043e-05
-1.50084e-05
-1.50116e-05
-1.50141e-05
-1.5016e-05
-1.50173e-05
-1.50182e-05
-1.50187e-05
-1.50188e-05
-1.50187e-05
-1.50184e-05
-1.50178e-05
-1.50171e-05
-1.50162e-05
-1.50151e-05
-1.5014e-05
-1.50127e-05
-1.50114e-05
-1.50099e-05
-1.50084e-05
-1.50068e-05
-1.50051e-05
-1.50034e-05
-1.50015e-05
-1.49997e-05
-1.49977e-05
-1.49958e-05
-1.49937e-05
-1.49917e-05
-1.49896e-05
-1.49874e-05
-1.49852e-05
-1.4983e-05
-1.49807e-05
-1.49784e-05
-1.4976e-05
-1.49736e-05
-1.49711e-05
-1.49686e-05
-1.49661e-05
-1.49635e-05
-1.49609e-05
-1.49583e-05
-1.49557e-05
-1.4953e-05
-1.49502e-05
-1.49474e-05
-1.49446e-05
-1.49417e-05
-1.49388e-05
-1.49359e-05
-1.49329e-05
-1.49299e-05
-1.49268e-05
-1.49237e-05
-1.49206e-05
-1.49174e-05
-1.49142e-05
-1.49109e-05
-1.49076e-05
-1.49042e-05
-1.49008e-05
-1.48973e-05
-1.48938e-05
-1.48902e-05
-1.48865e-05
-1.48828e-05
-1.4879e-05
-1.48752e-05
-1.48713e-05
-1.48673e-05
-1.48632e-05
-1.48591e-05
-1.48549e-05
-1.48505e-05
-1.48461e-05
-1.48415e-05
-1.48368e-05
-1.48319e-05
-1.48269e-05
-1.48217e-05
-1.48163e-05
-1.48107e-05
-1.48048e-05
-1.47986e-05
-1.4792e-05
-1.4785e-05
-1.47775e-05
-1.47693e-05
-1.47602e-05
-1.47502e-05
-1.47386e-05
-1.47257e-05
-1.47099e-05
-1.46909e-05
-1.46711e-05
-1.46319e-05
-1.46247e-05
-1.44908e-05
-1.46099e-05
-1.40244e-05
-1.45701e-05
-1.15965e-05
-9.50335e-06
-1.40355e-05
-1.59204e-05
-1.56042e-05
-1.62332e-05
-1.61345e-05
-1.61045e-05
-1.57781e-05
-1.55223e-05
-1.55214e-05
-1.55007e-05
-1.54306e-05
-1.53795e-05
-1.53363e-05
-1.53046e-05
-1.52841e-05
-1.52612e-05
-1.52363e-05
-1.52133e-05
-1.51919e-05
-1.51718e-05
-1.51519e-05
-1.51313e-05
-1.51102e-05
-1.50889e-05
-1.50672e-05
-1.50449e-05
-1.5022e-05
-1.49987e-05
-1.49749e-05
-1.49508e-05
-1.49263e-05
-1.49014e-05
-1.48763e-05
-1.48511e-05
-1.48261e-05
-1.48014e-05
-1.47771e-05
-1.47534e-05
-1.47305e-05
-1.47085e-05
-1.46874e-05
-1.46674e-05
-1.46485e-05
-1.46307e-05
-1.4614e-05
-1.45983e-05
-1.45835e-05
-1.45697e-05
-1.45567e-05
-1.45444e-05
-1.45328e-05
-1.45218e-05
-1.45114e-05
-1.45014e-05
-1.44918e-05
-1.44826e-05
-1.44737e-05
-1.44651e-05
-1.44567e-05
-1.44486e-05
-1.44405e-05
-1.44326e-05
-1.44249e-05
-1.44174e-05
-1.44099e-05
-1.44025e-05
-1.43952e-05
-1.43879e-05
-1.43808e-05
-1.43737e-05
-1.43666e-05
-1.43596e-05
-1.43526e-05
-1.43456e-05
-1.43387e-05
-1.43318e-05
-1.43249e-05
-1.4318e-05
-1.43111e-05
-1.43042e-05
-1.42973e-05
-1.42905e-05
-1.42836e-05
-1.42767e-05
-1.42698e-05
-1.42629e-05
-1.42561e-05
-1.42492e-05
-1.42423e-05
-1.42353e-05
-1.42284e-05
-1.42215e-05
-1.42145e-05
-1.42076e-05
-1.42006e-05
-1.41936e-05
-1.41866e-05
-1.41796e-05
-1.41726e-05
-1.41655e-05
-1.41584e-05
-1.41514e-05
-1.41443e-05
-1.41371e-05
-1.413e-05
-1.41229e-05
-1.41157e-05
-1.41085e-05
-1.41012e-05
-1.4094e-05
-1.40867e-05
-1.40795e-05
-1.40722e-05
-1.40649e-05
-1.40575e-05
-1.40502e-05
-1.40428e-05
-1.40354e-05
-1.4028e-05
-1.40205e-05
-1.40131e-05
-1.40056e-05
-1.39981e-05
-1.39906e-05
-1.3983e-05
-1.39755e-05
-1.39679e-05
-1.39603e-05
-1.39527e-05
-1.3945e-05
-1.39373e-05
-1.39296e-05
-1.39219e-05
-1.39142e-05
-1.39064e-05
-1.38987e-05
-1.38909e-05
-1.3883e-05
-1.38752e-05
-1.38673e-05
-1.38594e-05
-1.38515e-05
-1.38436e-05
-1.38357e-05
-1.38277e-05
-1.38197e-05
-1.38117e-05
-1.38036e-05
-1.37956e-05
-1.37875e-05
-1.37794e-05
-1.37712e-05
-1.37631e-05
-1.37549e-05
-1.37467e-05
-1.37385e-05
-1.37303e-05
-1.37221e-05
-1.37139e-05
-1.37057e-05
-1.36974e-05
-1.36892e-05
-1.3681e-05
-1.36727e-05
-1.36645e-05
-1.36564e-05
-1.36482e-05
-1.36401e-05
-1.36321e-05
-1.36242e-05
-1.36165e-05
-1.36086e-05
-1.36016e-05
-1.35933e-05
-1.35881e-05
-1.35784e-05
-1.35756e-05
-1.35675e-05
-1.3555e-05
-1.35766e-05
-1.35038e-05
-1.36121e-05
-1.34493e-05
-1.35335e-05
-1.36408e-05
-1.38944e-05
-1.40954e-05
-1.37927e-05
-1.34984e-05
-1.34308e-05
-1.34438e-05
-1.34415e-05
-1.3428e-05
-1.34162e-05
-1.34061e-05
-1.3396e-05
-1.33857e-05
-1.33757e-05
-1.33658e-05
-1.33561e-05
-1.33466e-05
-1.33371e-05
-1.33276e-05
-1.33182e-05
-1.33089e-05
-1.32996e-05
-1.32903e-05
-1.3281e-05
-1.32717e-05
-1.32624e-05
-1.3253e-05
-1.32437e-05
-1.32344e-05
-1.3225e-05
-1.32157e-05
-1.32063e-05
-1.31969e-05
-1.31874e-05
-1.3178e-05
-1.31685e-05
-1.3159e-05
-1.31495e-05
-1.314e-05
-1.31305e-05
-1.31209e-05
-1.31114e-05
-1.31017e-05
-1.30923e-05
-1.30823e-05
-1.30733e-05
-1.30632e-05
-1.30534e-05
-1.30438e-05
-1.30342e-05
-1.30246e-05
-1.30149e-05
-1.30052e-05
-1.29954e-05
-1.29857e-05
-1.2976e-05
-1.29663e-05
-1.29565e-05
-1.29468e-05
-1.29371e-05
-1.29273e-05
-1.29176e-05
-1.29078e-05
-1.28981e-05
-1.28883e-05
-1.28786e-05
-1.28688e-05
-1.28591e-05
-1.28494e-05
-1.28397e-05
-1.28299e-05
-1.28202e-05
-1.28105e-05
-1.28008e-05
-1.27911e-05
-1.27814e-05
-1.27718e-05
-1.27621e-05
-1.27525e-05
-1.27427e-05
-1.27332e-05
-1.27235e-05
-1.27138e-05
-1.27042e-05
-1.26947e-05
-1.26851e-05
-1.26755e-05
-1.26659e-05
-1.26563e-05
-1.26468e-05
-1.26372e-05
-1.26277e-05
-1.26181e-05
-1.26085e-05
-1.2599e-05
-1.25894e-05
-1.25799e-05
-1.25703e-05
-1.25608e-05
-1.25513e-05
-1.25417e-05
-1.25322e-05
-1.25226e-05
-1.2513e-05
-1.25033e-05
-1.24939e-05
-1.24839e-05
-1.24748e-05
-1.24647e-05
-1.24549e-05
-1.24452e-05
-1.24354e-05
-1.24256e-05
-1.24157e-05
-1.24057e-05
-1.23957e-05
-1.23857e-05
-1.23757e-05
-1.23656e-05
-1.23554e-05
-1.23453e-05
-1.23352e-05
-1.23249e-05
-1.23148e-05
-1.23045e-05
-1.22942e-05
-1.22839e-05
-1.22736e-05
-1.22632e-05
-1.22528e-05
-1.22423e-05
-1.22317e-05
-1.22209e-05
-1.22101e-05
-1.21991e-05
-1.21879e-05
-1.21765e-05
-1.21646e-05
-1.21531e-05
-1.21396e-05
-1.21281e-05
-1.21143e-05
-1.20925e-05
-1.21147e-05
-1.19825e-05
-1.22496e-05
-1.16796e-05
-1.2327e-05
-1.15062e-05
-1.11131e-05
-1.15196e-05
-1.26626e-05
-1.38335e-05
-1.34552e-05
-1.27836e-05
-1.25617e-05
-1.24135e-05
-1.23194e-05
-1.23292e-05
-1.23121e-05
-1.22613e-05
-1.22389e-05
-1.22257e-05
-1.22024e-05
-1.21785e-05
-1.21572e-05
-1.2138e-05
-1.21209e-05
-1.21039e-05
-1.20865e-05
-1.20692e-05
-1.20523e-05
-1.20357e-05
-1.20193e-05
-1.20028e-05
-1.19863e-05
-1.19697e-05
-1.19531e-05
-1.19364e-05
-1.19197e-05
-1.19028e-05
-1.18858e-05
-1.18688e-05
-1.18518e-05
-1.18348e-05
-1.18179e-05
-1.18011e-05
-1.17846e-05
-1.17684e-05
-1.17526e-05
-1.17372e-05
-1.17222e-05
-1.17078e-05
-1.16938e-05
-1.16805e-05
-1.16676e-05
-1.16553e-05
-1.16434e-05
-1.1632e-05
-1.1621e-05
-1.16104e-05
-1.16002e-05
-1.15903e-05
-1.15808e-05
-1.15716e-05
-1.15627e-05
-1.1554e-05
-1.15457e-05
-1.15376e-05
-1.15297e-05
-1.15221e-05
-1.15146e-05
-1.15074e-05
-1.15002e-05
-1.14932e-05
-1.14862e-05
-1.14793e-05
-1.14724e-05
-1.14655e-05
-1.14586e-05
-1.14516e-05
-1.14446e-05
-1.14375e-05
-1.14303e-05
-1.1423e-05
-1.14155e-05
-1.14079e-05
-1.14002e-05
-1.13923e-05
-1.13843e-05
-1.13761e-05
-1.13678e-05
-1.13594e-05
-1.13509e-05
-1.13422e-05
-1.13334e-05
-1.13245e-05
-1.13155e-05
-1.13063e-05
-1.1297e-05
-1.12876e-05
-1.12781e-05
-1.12685e-05
-1.12588e-05
-1.12491e-05
-1.12393e-05
-1.12294e-05
-1.12195e-05
-1.12095e-05
-1.11994e-05
-1.11893e-05
-1.11792e-05
-1.1169e-05
-1.11588e-05
-1.11485e-05
-1.11382e-05
-1.11279e-05
-1.11175e-05
-1.11071e-05
-1.10967e-05
-1.10862e-05
-1.10757e-05
-1.10652e-05
-1.10547e-05
-1.10441e-05
-1.10336e-05
-1.1023e-05
-1.10124e-05
-1.10017e-05
-1.09911e-05
-1.09804e-05
-1.09698e-05
-1.09591e-05
-1.09484e-05
-1.09377e-05
-1.0927e-05
-1.09162e-05
-1.09055e-05
-1.08948e-05
-1.0884e-05
-1.08733e-05
-1.08625e-05
-1.08517e-05
-1.08409e-05
-1.08301e-05
-1.08193e-05
-1.08085e-05
-1.07977e-05
-1.07869e-05
-1.07761e-05
-1.07652e-05
-1.07544e-05
-1.07436e-05
-1.07328e-05
-1.07219e-05
-1.07111e-05
-1.07003e-05
-1.06894e-05
-1.06786e-05
-1.06677e-05
-1.06569e-05
-1.0646e-05
-1.06352e-05
-1.06244e-05
-1.06136e-05
-1.06027e-05
-1.05919e-05
-1.05811e-05
-1.05703e-05
-1.05595e-05
-1.05487e-05
-1.0538e-05
-1.05272e-05
-1.05164e-05
-1.05057e-05
-1.04949e-05
-1.04842e-05
-1.04735e-05
-1.04628e-05
-1.04522e-05
-1.04415e-05
-1.04312e-05
-1.04201e-05
-1.0411e-05
-1.03979e-05
-1.03919e-05
-1.0377e-05
-1.03663e-05
-1.03774e-05
-1.02996e-05
-1.04331e-05
-1.02692e-05
-1.05758e-05
-1.02409e-05
-1.06722e-05
-1.082e-05
-1.04975e-05
-1.02561e-05
-1.02232e-05
-1.02367e-05
-1.02308e-05
-1.02183e-05
-1.02077e-05
-1.01977e-05
-1.01873e-05
-1.01768e-05
-1.01663e-05
-1.01557e-05
-1.01452e-05
-1.01347e-05
-1.01241e-05
-1.01137e-05
-1.01032e-05
-1.00927e-05
-1.00823e-05
-1.00719e-05
-1.00615e-05
-1.00512e-05
-1.00408e-05
-1.00305e-05
-1.00202e-05
-1.00099e-05
-9.99971e-06
-9.98949e-06
-9.97929e-06
-9.96912e-06
-9.95898e-06
-9.94885e-06
-9.93875e-06
-9.92867e-06
-9.91862e-06
-9.90858e-06
-9.89857e-06
-9.88858e-06
-9.87861e-06
-9.86867e-06
-9.85875e-06
-9.84884e-06
-9.83896e-06
-9.82911e-06
-9.81928e-06
-9.80947e-06
-9.79968e-06
-9.78992e-06
-9.78019e-06
-9.77047e-06
-9.76078e-06
-9.75111e-06
-9.74146e-06
-9.73184e-06
-9.72225e-06
-9.71268e-06
-9.70314e-06
-9.69362e-06
-9.68413e-06
-9.67466e-06
-9.66521e-06
-9.65579e-06
-9.6464e-06
-9.63703e-06
-9.62767e-06
-9.61834e-06
-9.60903e-06
-9.59976e-06
-9.59051e-06
-9.58129e-06
-9.57209e-06
-9.56292e-06
-9.55378e-06
-9.54466e-06
-9.53556e-06
-9.52648e-06
-9.51743e-06
-9.5084e-06
-9.49941e-06
-9.49043e-06
-9.48148e-06
-9.47256e-06
-9.46367e-06
-9.45481e-06
-9.44598e-06
-9.43718e-06
-9.4284e-06
-9.41966e-06
-9.41094e-06
-9.40225e-06
-9.39357e-06
-9.38494e-06
-9.37633e-06
-9.36777e-06
-9.35922e-06
-9.35071e-06
-9.34223e-06
-9.33379e-06
-9.32538e-06
-9.31701e-06
-9.30867e-06
-9.30036e-06
-9.29209e-06
-9.28385e-06
-9.27564e-06
-9.26747e-06
-9.25935e-06
-9.25127e-06
-9.24324e-06
-9.23524e-06
-9.22729e-06
-9.21938e-06
-9.21152e-06
-9.20371e-06
-9.19595e-06
-9.18825e-06
-9.1806e-06
-9.173e-06
-9.16545e-06
-9.15798e-06
-9.15059e-06
-9.14328e-06
-9.13605e-06
-9.12892e-06
-9.1219e-06
-9.11501e-06
-9.10826e-06
-9.10169e-06
-9.09533e-06
-9.08925e-06
-9.08352e-06
-9.07826e-06
-9.0736e-06
-9.06978e-06
-9.06697e-06
-9.06587e-06
-9.06648e-06
-9.071e-06
-9.07913e-06
-9.09343e-06
-9.13317e-06
-9.13129e-06
-9.3955e-06
-9.09309e-06
-1.07074e-05
-1.01394e-05
-1.62614e-05
-7.25986e-06
-7.66767e-06
-9.13172e-06
-9.07138e-06
-8.84563e-06
-8.79818e-06
-8.84197e-06
-8.86446e-06
-8.82231e-06
-8.80777e-06
-8.80047e-06
-8.78407e-06
-8.78123e-06
-8.78056e-06
-8.77379e-06
-8.76649e-06
-8.76032e-06
-8.75556e-06
-8.75191e-06
-8.74825e-06
-8.74443e-06
-8.7408e-06
-8.73758e-06
-8.73472e-06
-8.73223e-06
-8.73002e-06
-8.72802e-06
-8.72631e-06
-8.72482e-06
-8.7235e-06
-8.72233e-06
-8.72115e-06
-8.7198e-06
-8.71824e-06
-8.71642e-06
-8.71424e-06
-8.71157e-06
-8.7084e-06
-8.70482e-06
-8.70086e-06
-8.69654e-06
-8.69192e-06
-8.68706e-06
-8.68202e-06
-8.67686e-06
-8.67163e-06
-8.66636e-06
-8.66106e-06
-8.65576e-06
-8.65046e-06
-8.6452e-06
-8.63997e-06
-8.63477e-06
-8.62963e-06
-8.62452e-06
-8.61948e-06
-8.61447e-06
-8.60952e-06
-8.60459e-06
-8.59967e-06
-8.59484e-06
-8.59007e-06
-8.58532e-06
-8.5806e-06
-8.57594e-06
-8.57131e-06
-8.56673e-06
-8.56219e-06
-8.55769e-06
-8.55323e-06
-8.54881e-06
-8.54442e-06
-8.54008e-06
-8.53578e-06
-8.53153e-06
-8.52732e-06
-8.52315e-06
-8.51902e-06
-8.51494e-06
-8.51091e-06
-8.50692e-06
-8.50298e-06
-8.49909e-06
-8.49524e-06
-8.49145e-06
-8.4877e-06
-8.484e-06
-8.48034e-06
-8.47673e-06
-8.47318e-06
-8.46967e-06
-8.46622e-06
-8.46283e-06
-8.45949e-06
-8.45621e-06
-8.45299e-06
-8.44983e-06
-8.44673e-06
-8.44371e-06
-8.44076e-06
-8.43788e-06
-8.43508e-06
-8.43236e-06
-8.42973e-06
-8.42718e-06
-8.42474e-06
-8.42239e-06
-8.42014e-06
-8.41802e-06
-8.41601e-06
-8.41413e-06
-8.41239e-06
-8.41079e-06
-8.40935e-06
-8.40809e-06
-8.407e-06
-8.40611e-06
-8.40542e-06
-8.40496e-06
-8.40474e-06
-8.40478e-06
-8.4051e-06
-8.40573e-06
-8.4067e-06
-8.40802e-06
-8.40973e-06
-8.41186e-06
-8.41444e-06
-8.41752e-06
-8.42114e-06
-8.42535e-06
-8.43019e-06
-8.43573e-06
-8.44204e-06
-8.44916e-06
-8.45719e-06
-8.46618e-06
-8.47624e-06
-8.48745e-06
-8.49994e-06
-8.51381e-06
-8.52919e-06
-8.54622e-06
-8.56507e-06
-8.58589e-06
-8.60885e-06
-8.63416e-06
-8.66205e-06
-8.69273e-06
-8.72648e-06
-8.76357e-06
-8.80433e-06
-8.8491e-06
-8.89828e-06
-8.95227e-06
-9.01151e-06
-9.07657e-06
-9.14793e-06
-9.22621e-06
-9.31209e-06
-9.40631e-06
-9.50965e-06
-9.62307e-06
-9.74754e-06
-9.88423e-06
-1.00344e-05
-1.01994e-05
-1.0381e-05
-1.05807e-05
-1.0801e-05
-1.10433e-05
-1.13136e-05
-1.16056e-05
-1.19494e-05
-1.22823e-05
-1.27701e-05
-1.30858e-05
-1.38316e-05
-1.426e-05
-1.47214e-05
-1.68379e-05
-1.55739e-05
-1.95225e-05
0.00368564
0.00520107
0.00512542
0.00350085
0.00193914
0.00100924
0.000475805
0.000221241
0.000135235
0.000100787
7.36218e-05
5.30643e-05
3.91342e-05
2.88908e-05
2.08356e-05
1.45569e-05
9.71408e-06
5.73532e-06
2.07068e-06
-9.32411e-07
-3.34277e-06
-5.0403e-06
-6.4683e-06
-7.69659e-06
-8.72622e-06
-9.57707e-06
-1.02839e-05
-1.08723e-05
-1.136e-05
-1.17648e-05
-1.21008e-05
-1.23796e-05
-1.26113e-05
-1.2804e-05
-1.29642e-05
-1.30975e-05
-1.32085e-05
-1.33009e-05
-1.3378e-05
-1.34424e-05
-1.34961e-05
-1.3541e-05
-1.35786e-05
-1.36101e-05
-1.36366e-05
-1.36588e-05
-1.36775e-05
-1.36933e-05
-1.37066e-05
-1.3718e-05
-1.37276e-05
-1.37357e-05
-1.37427e-05
-1.37486e-05
-1.37538e-05
-1.37582e-05
-1.37621e-05
-1.37655e-05
-1.37684e-05
-1.3771e-05
-1.37732e-05
-1.37753e-05
-1.37771e-05
-1.37787e-05
-1.37802e-05
-1.37815e-05
-1.37827e-05
-1.37838e-05
-1.37848e-05
-1.37858e-05
-1.37866e-05
-1.37875e-05
-1.37883e-05
-1.3789e-05
-1.37897e-05
-1.37904e-05
-1.3791e-05
-1.37916e-05
-1.37922e-05
-1.37928e-05
-1.37933e-05
-1.37939e-05
-1.37943e-05
-1.37948e-05
-1.37953e-05
-1.37958e-05
-1.37962e-05
-1.37967e-05
-1.37971e-05
-1.37975e-05
-1.3798e-05
-1.37984e-05
-1.37987e-05
-1.37991e-05
-1.37995e-05
-1.37998e-05
-1.38002e-05
-1.38005e-05
-1.38008e-05
-1.38011e-05
-1.38014e-05
-1.38017e-05
-1.38019e-05
-1.38022e-05
-1.38024e-05
-1.38025e-05
-1.38027e-05
-1.38028e-05
-1.38029e-05
-1.38029e-05
-1.3803e-05
-1.3803e-05
-1.38029e-05
-1.38028e-05
-1.38027e-05
-1.38025e-05
-1.38022e-05
-1.38019e-05
-1.38014e-05
-1.38009e-05
-1.38003e-05
-1.37996e-05
-1.37988e-05
-1.37979e-05
-1.37969e-05
-1.37956e-05
-1.37942e-05
-1.37925e-05
-1.37906e-05
-1.37884e-05
-1.37858e-05
-1.37827e-05
-1.37791e-05
-1.37748e-05
-1.37696e-05
-1.37634e-05
-1.37559e-05
-1.37465e-05
-1.37353e-05
-1.37203e-05
-1.37032e-05
-1.36771e-05
-1.36509e-05
-1.36021e-05
-1.35341e-05
-1.35414e-05
-1.30226e-05
-1.35835e-05
-1.13003e-05
-9.31348e-06
-7.81607e-06
-1.36956e-05
-1.48062e-05
-1.52914e-05
-1.51855e-05
-1.52515e-05
-1.50278e-05
-1.48712e-05
-1.49316e-05
-1.48966e-05
-1.48258e-05
-1.47957e-05
-1.47547e-05
-1.47207e-05
-1.47029e-05
-1.46791e-05
-1.46513e-05
-1.46257e-05
-1.46019e-05
-1.45803e-05
-1.45594e-05
-1.45375e-05
-1.4515e-05
-1.44926e-05
-1.44697e-05
-1.44459e-05
-1.44216e-05
-1.43967e-05
-1.43715e-05
-1.43458e-05
-1.43195e-05
-1.42928e-05
-1.42661e-05
-1.42394e-05
-1.42129e-05
-1.41867e-05
-1.41611e-05
-1.41363e-05
-1.41125e-05
-1.40898e-05
-1.40683e-05
-1.40482e-05
-1.40297e-05
-1.40128e-05
-1.39973e-05
-1.39834e-05
-1.39707e-05
-1.39595e-05
-1.39495e-05
-1.39405e-05
-1.39326e-05
-1.39255e-05
-1.39193e-05
-1.39138e-05
-1.39089e-05
-1.39046e-05
-1.39007e-05
-1.38973e-05
-1.38943e-05
-1.38916e-05
-1.38892e-05
-1.38871e-05
-1.38853e-05
-1.38836e-05
-1.38822e-05
-1.38809e-05
-1.38797e-05
-1.38787e-05
-1.38777e-05
-1.38769e-05
-1.38762e-05
-1.38756e-05
-1.38751e-05
-1.38746e-05
-1.38742e-05
-1.38738e-05
-1.38735e-05
-1.38732e-05
-1.3873e-05
-1.38728e-05
-1.38727e-05
-1.38726e-05
-1.38725e-05
-1.38724e-05
-1.38723e-05
-1.38723e-05
-1.38723e-05
-1.38723e-05
-1.38723e-05
-1.38722e-05
-1.38722e-05
-1.38722e-05
-1.38723e-05
-1.38723e-05
-1.38723e-05
-1.38723e-05
-1.38724e-05
-1.38724e-05
-1.38724e-05
-1.38724e-05
-1.38724e-05
-1.38724e-05
-1.38724e-05
-1.38724e-05
-1.38724e-05
-1.38724e-05
-1.38724e-05
-1.38723e-05
-1.38723e-05