/*--------------------------------*- C++ -*----------------------------------*\
| =========                 |                                                 |
| \\      /  F ield         | OpenFOAM: The Open Source CFD Toolbox           |
|  \\    /   O peration     | Version:  2512                                  |
|   \\  /    A nd           | Website:  www.openfoam.com                      |
|    \\/     M anipulation  |                                                 |
\*---------------------------------------------------------------------------*/
FoamFile
{
    version     2.0;
    format      ascii;
    arch        "LSB;label=32;scalar=64";
    class       volScalarField;
    location    "0.1";
    object      Uz;
}
// * * * * * * * * * * * * * * * * * * * * * * * * * * * * * * * * * * * * * //

dimensions      [0 1 -1 0 0 0 0];

internalField   nonuniform List<scalar> 
100000
(
1.2905e-20
6.44782e-21
2.26459e-20
5.67478e-20
1.1883e-19
-1.3432e-19
-2.02365e-19
-4.07184e-19
-5.66722e-19
-5.52509e-19
-3.67297e-19
-2.77393e-19
1.2664e-19
-5.33302e-19
1.23585e-18
-2.40949e-18
5.20033e-18
-1.47967e-17
-5.00025e-18
-5.92985e-18
3.2821e-18
-1.49047e-17
-5.43715e-18
-6.07092e-18
2.96077e-18
-1.44855e-17
-6.60082e-18
-3.63563e-18
-1.92295e-18
-9.80149e-19
-1.70436e-19
-6.24391e-19
1.17473e-18
-2.38401e-18
5.00588e-18
-1.36526e-17
-6.21491e-18
-3.50889e-18
-1.80526e-18
-1.00337e-18
-2.02447e-19
-1.5701e-19
-6.09282e-20
1.14468e-19
2.44328e-19
1.95793e-19
2.43356e-19
-6.22841e-21
2.16334e-19
-6.20011e-21
-1.21672e-20
1.02246e-19
3.01769e-19
-2.18359e-21
7.41808e-19
-1.19647e-18
2.6569e-18
-5.08218e-18
1.38479e-17
6.54661e-18
3.80757e-18
2.16153e-18
1.09556e-18
5.04405e-19
2.0642e-19
1.3892e-19
-2.92656e-21
1.76612e-19
-8.19387e-20
1.25398e-19
1.2879e-19
-2.06896e-20
-1.2265e-19
-1.16042e-19
-5.54387e-20
1.89999e-21
3.70874e-20
5.16552e-20
6.27031e-20
4.84087e-20
9.32218e-20
-8.65549e-21
1.836e-19
-7.9668e-20
1.39285e-19
1.36517e-19
-2.22596e-20
-1.24937e-19
-1.14529e-19
-5.1452e-20
6.32008e-21
4.02661e-20
5.58111e-20
5.97365e-20
6.59231e-20
5.02972e-20
9.36324e-20
-7.10419e-21
1.83936e-19
-7.97506e-20
1.41252e-19
1.37202e-19
-2.39554e-20
-1.26443e-19
-1.14964e-19
-5.14073e-20
6.2662e-21
3.99786e-20
5.46417e-20
5.92453e-20
6.00393e-20
5.91226e-20
5.87448e-20
5.64628e-20
5.79733e-20
5.25961e-20
5.34515e-20
4.78577e-20
3.81233e-20
3.1575e-20
3.15959e-20
3.65571e-20
4.25727e-20
4.761e-20
5.10796e-20
5.32788e-20
5.46955e-20
5.55507e-20
5.59133e-20
5.61983e-20
5.65863e-20
5.56208e-20
6.04036e-20
4.08387e-20
1.10885e-19
-1.17946e-19
5.35057e-19
-1.10159e-18
2.51508e-18
-5.11317e-18
1.41774e-17
6.59087e-18
3.66363e-18
1.96946e-18
9.50998e-19
4.20443e-19
1.8625e-19
9.72557e-20
6.76303e-20
5.88336e-20
5.6678e-20
5.64989e-20
5.68904e-20
5.74785e-20
5.7884e-20
5.82164e-20
5.85301e-20
5.89345e-20
5.91986e-20
5.96008e-20
6.00246e-20
6.01536e-20
6.12834e-20
5.71575e-20
7.50344e-20
1.00743e-20
2.25946e-19
-4.0368e-19
1.20786e-18
-2.41341e-18
5.21826e-18
-1.34623e-17
-6.44747e-18
-3.57588e-18
-1.85026e-18
-8.18849e-19
-2.91087e-19
-6.24879e-20
2.28278e-20
5.07207e-20
5.87863e-20
6.10769e-20
6.1448e-20
6.13141e-20
6.12423e-20
6.12525e-20
6.1149e-20
6.09912e-20
6.09761e-20
6.118e-20
6.11201e-20
6.09963e-20
6.09127e-20
6.08233e-20
6.06449e-20
6.04011e-20
6.01316e-20
5.99438e-20
6.02661e-20
5.96199e-20
6.06157e-20
5.88591e-20
6.03892e-20
5.91242e-20
5.63163e-20
5.47031e-20
5.52063e-20
5.68114e-20
5.84503e-20
5.94325e-20
5.99751e-20
6.04168e-20
6.05527e-20
6.06152e-20
6.07489e-20
6.09491e-20
6.11164e-20
6.12489e-20
6.13052e-20
6.13105e-20
6.12638e-20
6.12838e-20
6.11391e-20
6.1076e-20
6.10078e-20
6.0723e-20
6.04663e-20
6.02999e-20
5.99407e-20
5.99138e-20
5.93363e-20
6.04155e-20
5.86901e-20
6.00474e-20
5.86041e-20
5.53948e-20
5.35094e-20
5.38817e-20
5.55044e-20
5.71214e-20
5.84453e-20
5.89455e-20
5.91086e-20
5.92122e-20
5.9404e-20
5.96562e-20
5.99598e-20
6.02348e-20
6.046e-20
6.05033e-20
6.06713e-20
6.08906e-20
6.09038e-20
6.07514e-20
6.07454e-20
6.06698e-20
6.07914e-20
6.10058e-20
6.1106e-20
6.11892e-20
6.1164e-20
6.11593e-20
6.11964e-20
6.10979e-20
6.09443e-20
6.08977e-20
6.09561e-20
6.1016e-20
6.09907e-20
6.10092e-20
6.09385e-20
6.1044e-20
6.12273e-20
6.02103e-20
6.32106e-20
5.26455e-20
8.5416e-20
1.53282e-21
1.77584e-19
-9.40267e-20
1.63473e-19
1.31501e-19
-5.90906e-20
-1.51426e-19
-1.1771e-19
-4.35498e-20
1.36404e-20
4.3727e-20
5.59994e-20
6.00561e-20
6.0946e-20
6.1162e-20
6.10348e-20
6.09818e-20
6.10441e-20
6.10568e-20
6.10984e-20
6.12353e-20
6.13015e-20
6.12504e-20
6.14216e-20
6.14993e-20
6.16515e-20
6.17555e-20
6.16742e-20
6.1606e-20
6.16087e-20
6.16068e-20
6.16206e-20
6.15477e-20
6.14522e-20
6.13924e-20
6.13954e-20
6.13805e-20
6.14764e-20
6.1654e-20
6.1826e-20
6.19278e-20
6.20115e-20
6.19985e-20
6.19204e-20
6.18048e-20
6.18226e-20
6.18527e-20
6.1924e-20
6.18821e-20
6.18288e-20
6.17732e-20
6.17756e-20
6.17608e-20
6.16349e-20
6.18831e-20
6.20729e-20
6.20164e-20
6.19447e-20
6.1786e-20
6.19137e-20
6.18376e-20
6.22086e-20
6.0169e-20
6.78416e-20
4.13227e-20
1.13701e-19
-5.28836e-20
2.20157e-19
-9.12502e-20
1.28992e-20
3.87957e-20
3.83823e-19
3.48123e-20
7.4223e-20
4.39709e-20
3.74315e-19
1.47461e-20
5.17634e-20
3.72497e-20
3.70052e-19
1.44575e-20
5.36112e-20
3.3876e-20
3.64705e-19
7.12915e-21
4.87436e-20
3.14586e-20
3.65642e-19
6.0436e-21
4.59466e-20
3.74615e-20
3.64356e-19
6.00502e-21
5.01784e-20
3.50178e-20
3.62359e-19
-1.17394e-21
4.25922e-20
3.67768e-20
3.63262e-19
2.92385e-21
4.71978e-20
3.50814e-20
3.60886e-19
-1.87183e-22
4.50042e-20
3.36637e-20
3.64758e-19
-9.81793e-23
4.30373e-20
3.91965e-20
3.64262e-19
3.30245e-21
4.81942e-20
3.62569e-20
3.63059e-19
-2.90445e-21
4.27769e-20
4.40821e-20
3.62895e-19
3.61399e-21
4.88089e-20
4.7258e-20
3.48379e-19
3.62973e-20
-5.12462e-20
2.67266e-19
4.70298e-20
2.72899e-19
1.36401e-19
-1.09707e-19
-1.95821e-19
-1.41173e-19
-5.55873e-20
4.33258e-21
3.51047e-20
4.81286e-20
5.32902e-20
5.55788e-20
5.68449e-20
5.77498e-20
5.83764e-20
5.89053e-20
5.9359e-20
5.96722e-20
5.99427e-20
6.01487e-20
6.03114e-20
6.04582e-20
6.06024e-20
6.06106e-20
6.04789e-20
6.05621e-20
6.07524e-20
6.08811e-20
6.10051e-20
6.10722e-20
6.11832e-20
6.13145e-20
6.13075e-20
6.13324e-20
6.13533e-20
6.14753e-20
6.15072e-20
6.15275e-20
6.15374e-20
6.1588e-20
6.14201e-20
6.13529e-20
6.13738e-20
6.14034e-20
6.15372e-20
6.15663e-20
6.15601e-20
6.14629e-20
6.13931e-20
6.15855e-20
6.17978e-20
6.17413e-20
6.17757e-20
6.17174e-20
6.17742e-20
6.17794e-20
6.16979e-20
6.1754e-20
6.15478e-20
6.15106e-20
5.99441e-20
6.5249e-20
4.50231e-20
1.04678e-19
-4.54589e-20
2.23318e-19
-1.144e-19
1.54151e-20
7.0962e-20
3.98214e-19
7.57995e-21
5.6874e-20
6.89337e-20
3.84449e-19
-1.13968e-20
4.64014e-20
6.35471e-20
3.78151e-19
-1.77119e-20
4.0942e-20
5.99826e-20
3.73829e-19
-2.37215e-20
3.98548e-20
6.11461e-20
3.69261e-19
-2.39552e-20
3.4112e-20
5.31096e-20
3.62956e-19
-3.3331e-20
3.37534e-20
2.793e-20
4.0518e-19
-1.55639e-19
1.81409e-19
-1.38981e-19
3.12481e-19
-2.72153e-20
3.67968e-19
-2.99955e-20
3.51395e-19
-4.17056e-20
3.36928e-19
-4.5591e-20
3.37912e-19
-3.90988e-20
3.31733e-19
-5.1984e-20
3.28658e-19
-6.37703e-20
3.2441e-19
-5.59655e-20
3.22384e-19
-5.51886e-20
3.34615e-19
-5.94209e-20
3.2208e-19
-5.87226e-20
3.24685e-19
-6.14848e-20
3.32318e-19
-6.24624e-20
3.17404e-19
-5.42351e-20
3.32335e-19
-5.1994e-20
3.30061e-19
-5.71995e-20
3.16647e-19
-6.51096e-20
3.29775e-19
-6.60088e-20
3.19241e-19
-6.293e-20
3.29321e-19
-5.2712e-20
3.34829e-19
-5.80585e-20
3.3089e-19
-6.20467e-20
3.25441e-19
-5.83606e-20
3.32042e-19
-5.16905e-20
3.22945e-19
-5.56166e-20
3.27311e-19
-6.01295e-20
3.23785e-19
-6.20989e-20
3.31655e-19
-6.4828e-20
3.15177e-19
-3.52036e-20
2.69509e-19
1.09083e-19
-4.89325e-22
4.28686e-19
-1.08124e-19
1.96869e-19
-1.65963e-19
2.73154e-19
-8.21444e-20
3.23764e-19
-6.20665e-20
3.23616e-19
-5.00988e-20
3.33484e-19
-5.545e-20
3.25212e-19
-6.42398e-20
3.25382e-19
-6.34347e-20
3.23342e-19
-5.82691e-20
3.29507e-19
-6.1387e-20
3.30014e-19
-6.17712e-20
3.2159e-19
-5.9414e-20
3.39387e-19
-6.07217e-20
3.22314e-19
-5.85608e-20
3.30213e-19
-5.22655e-20
3.2709e-19
-5.65879e-20
3.24326e-19
-5.42349e-20
3.25412e-19
-6.10569e-20
3.13428e-19
-6.21522e-20
3.28188e-19
-6.76675e-20
3.15511e-19
-5.37369e-20
3.2449e-19
-6.23479e-20
3.19597e-19
-6.22837e-20
3.18555e-19
-6.02478e-20
3.23988e-19
-6.50013e-20
3.20058e-19
-6.82493e-20
3.22905e-19
-6.48677e-20
3.26415e-19
-5.57006e-20
3.29882e-19
-5.57635e-20
3.22828e-19
-5.90494e-20
3.27333e-19
-5.78774e-20
3.2451e-19
-6.09581e-20
3.18186e-19
-5.36178e-20
3.24271e-19
-5.75051e-20
3.18338e-19
-6.45025e-20
3.22638e-19
-6.41053e-20
3.19152e-19
-6.03792e-20
3.26593e-19
-6.01775e-20
3.23092e-19
-6.16239e-20
3.22626e-19
-5.70222e-20
3.28481e-19
-5.5383e-20
3.27061e-19
-5.78005e-20
3.21842e-19
-6.03545e-20
3.28133e-19
-5.77375e-20
3.23424e-19
-5.61907e-20
3.25653e-19
-6.0068e-20
3.2653e-19
-5.13845e-20
3.37398e-19
-6.2019e-20
3.24582e-19
-4.68385e-20
3.37955e-19
-3.3119e-20
3.01689e-19
5.21285e-20
1.73452e-19
1.25643e-19
3.6004e-19
-2.4719e-19
8.76237e-20
-1.93037e-19
2.26295e-19
2.73051e-20
1.74144e-19
1.33615e-19
3.71895e-19
-2.46077e-19
1.00796e-19
-1.82313e-19
2.43311e-19
3.54618e-20
1.80772e-19
1.46333e-19
3.73458e-19
-2.25444e-19
5.85025e-20
-4.82901e-20
-2.78098e-20
4.28834e-19
-1.05761e-19
2.18958e-19
-1.14262e-19
2.7645e-19
5.01977e-20
1.91823e-19
1.50796e-19
3.78597e-19
-2.43444e-19
1.02242e-19
-1.78161e-19
2.4893e-19
3.86276e-20
1.79985e-19
1.44828e-19
3.74923e-19
-2.49665e-19
1.13391e-19
-1.78938e-19
2.44454e-19
4.0139e-20
1.90401e-19
1.54612e-19
3.80214e-19
-2.44499e-19
1.07265e-19
-1.76133e-19
2.53176e-19
3.89452e-20
1.90954e-19
1.57408e-19
3.77326e-19
-2.46688e-19
1.04699e-19
-1.7272e-19
2.49937e-19
3.89356e-20
1.87265e-19
1.51452e-19
3.73046e-19
-2.55104e-19
1.11524e-19
-1.7556e-19
2.49689e-19
4.71075e-20
1.96997e-19
1.56242e-19
3.69264e-19
-2.54919e-19
1.04119e-19
-1.73955e-19
2.57416e-19
3.69968e-20
1.88706e-19
1.57749e-19
3.73493e-19
-2.55605e-19
1.06777e-19
-1.66658e-19
2.59253e-19
3.58403e-20
1.86174e-19
1.54348e-19
3.72442e-19
-2.57893e-19
1.04537e-19
-1.66912e-19
2.62315e-19
4.11819e-20
1.91065e-19
1.58827e-19
3.66501e-19
-2.56663e-19
1.03891e-19
-1.67442e-19
2.60614e-19
3.74878e-20
1.86054e-19
1.56313e-19
3.61507e-19
-2.60944e-19
1.05729e-19
-1.71951e-19
2.59883e-19
3.67169e-20
1.88898e-19
1.60734e-19
3.6282e-19
-2.62313e-19
1.03832e-19
-1.64131e-19
2.60654e-19
3.27313e-20
1.82342e-19
1.5685e-19
3.63157e-19
-2.66247e-19
1.08704e-19
-1.6884e-19
2.65808e-19
4.28156e-20
1.91957e-19
1.61874e-19
3.60624e-19
-2.63381e-19
1.00181e-19
-1.62679e-19
2.70053e-19
2.84248e-20
1.81979e-19
1.63968e-19
3.62246e-19
-2.64683e-19
1.07687e-19
-1.66943e-19
2.66798e-19
3.67856e-20
1.89162e-19
1.64897e-19
3.54969e-19
-2.56643e-19
6.67164e-20
-5.21373e-20
1.45616e-20
4.33949e-19
-1.19677e-19
2.14669e-19
-1.11241e-19
2.91756e-19
4.45657e-20
1.93359e-19
1.64903e-19
3.5563e-19
-2.76525e-19
1.03898e-19
-1.61548e-19
2.65477e-19
4.05905e-20
1.92609e-19
1.63513e-19
3.42507e-19
-2.73854e-19
1.02133e-19
-1.68544e-19
2.63561e-19
3.31782e-20
1.92049e-19
1.69208e-19
3.45245e-19
-2.7421e-19
1.06813e-19
-1.68177e-19
2.66771e-19
3.13218e-20
1.91511e-19
1.75234e-19
3.46885e-19
-2.70682e-19
1.08351e-19
-1.67847e-19
2.65238e-19
3.0633e-20
1.908e-19
1.70014e-19
3.48262e-19
-2.79073e-19
1.08011e-19
-1.62675e-19
2.69614e-19
3.97961e-20
1.95974e-19
1.74659e-19
3.37283e-19
-2.74471e-19
1.04191e-19
-1.6492e-19
2.66199e-19
2.55663e-20
1.89862e-19
1.70858e-19
3.39989e-19
-2.81833e-19
1.07917e-19
-1.65762e-19
2.76269e-19
3.66207e-20
1.95676e-19
1.78274e-19
3.39022e-19
-2.7568e-19
1.04522e-19
-1.60594e-19
2.72125e-19
2.69079e-20
1.9044e-19
1.72192e-19
3.41914e-19
-2.88577e-19
1.09391e-19
-1.52802e-19
2.77337e-19
3.95669e-20
1.96997e-19
1.76416e-19
3.32307e-19
-2.83184e-19
1.06008e-19
-1.61614e-19
2.77149e-19
2.11125e-20
1.93328e-19
1.81943e-19
3.437e-19
-2.87775e-19
1.09076e-19
-1.54185e-19
2.85137e-19
3.47462e-20
1.96833e-19
1.80374e-19
3.352e-19
-2.90296e-19
1.13734e-19
-1.6177e-19
2.83156e-19
3.15331e-20
2.00749e-19
1.88497e-19
3.38918e-19
-2.86836e-19
1.09237e-19
-1.53028e-19
2.84396e-19
2.687e-20
1.93087e-19
1.80424e-19
3.34041e-19
-2.9277e-19
1.09885e-19
-1.49071e-19
2.80898e-19
3.33362e-20
1.97982e-19
1.78111e-19
3.2209e-19
-2.90165e-19
8.25006e-20
-6.09465e-20
4.84066e-20
4.3287e-19
-1.34756e-19
2.20525e-19
-1.11261e-19
3.00478e-19
4.09633e-20
2.05722e-19
1.9052e-19
3.22991e-19
-2.91129e-19
1.0911e-19
-1.58324e-19
2.77562e-19
2.52076e-20
1.95853e-19
1.82007e-19
3.23476e-19
-2.97494e-19
1.08437e-19
-1.43232e-19
2.91198e-19
2.04797e-20
1.95042e-19
1.88906e-19
3.21586e-19
-2.92309e-19
1.13172e-19
-1.55788e-19
2.82686e-19
2.44108e-20
2.00782e-19
1.92697e-19
3.22953e-19
-2.93842e-19
1.10383e-19
-1.44447e-19
2.86207e-19
2.41811e-20
1.95421e-19
1.83273e-19
3.14484e-19
-3.01771e-19
1.15809e-19
-1.61168e-19
2.9188e-19
3.29996e-20
2.06025e-19
1.95804e-19
3.23488e-19
-2.98953e-19
1.15132e-19
-1.50597e-19
2.91096e-19
3.12852e-20
2.01162e-19
1.8796e-19
3.1287e-19
-3.00473e-19
1.03935e-19
-1.38954e-19
2.54486e-19
8.3707e-20
1.43349e-19
7.34773e-20
-1.64566e-20
-2.97575e-21
6.66422e-21
4.32432e-19
-6.05125e-19
-9.35765e-19
-1.81046e-18
-2.53758e-18
-2.65484e-18
-1.92638e-18
-1.6317e-18
3.28045e-19
-2.38977e-18
4.0747e-18
-6.6492e-18
9.79554e-18
-1.4042e-17
-5.84028e-18
-1.50379e-17
4.09229e-18
-1.72042e-17
-7.88067e-18
-1.56206e-17
2.72077e-18
-1.50062e-17
-1.19232e-17
-9.16924e-18
-6.02954e-18
-3.82683e-18
-7.49106e-19
-2.75072e-18
3.82191e-18
-6.499e-18
9.05544e-18
-1.17909e-17
-1.02023e-17
-8.60539e-18
-5.43564e-18
-3.94896e-18
-1.00073e-18
-8.29986e-19
-4.38594e-19
2.15488e-19
8.90679e-19
7.05589e-19
1.10725e-18
-1.49793e-19
8.40752e-19
-6.94484e-20
-1.36515e-19
1.79397e-19
1.23073e-18
-2.00382e-19
3.16544e-18
-4.20745e-18
7.41755e-18
-9.29351e-18
1.16692e-17
1.09593e-17
9.45215e-18
6.87116e-18
4.11616e-18
2.12392e-18
8.50269e-19
5.96047e-19
-2.08046e-19
7.00307e-19
-4.93479e-19
3.07525e-19
3.7766e-19
-1.47895e-19
-6.43346e-19
-7.28733e-19
-5.15423e-19
-2.51309e-19
-6.11759e-20
2.53622e-20
1.05065e-19
8.60253e-21
2.93886e-19
-2.9661e-19
7.00675e-19
-5.17985e-19
3.42892e-19
4.04296e-19
-1.65832e-19
-6.74111e-19
-7.43551e-19
-5.13833e-19
-2.41894e-19
-5.5887e-20
4.30674e-20
7.18942e-20
1.22234e-19
1.72944e-20
2.93489e-19
-2.91319e-19
7.01079e-19
-5.21055e-19
3.48429e-19
4.11761e-19
-1.70604e-19
-6.80424e-19
-7.44484e-19
-5.11052e-19
-2.38912e-19
-5.33066e-20
4.0994e-20
7.88131e-20
9.18963e-20
9.30671e-20
9.55664e-20
8.80693e-20
9.68156e-20
8.38638e-20
8.5974e-20
8.5299e-20
7.09427e-20
5.36188e-20
4.65306e-20
5.20295e-20
6.24395e-20
7.22686e-20
7.92713e-20
8.36021e-20
8.64341e-20
8.82489e-20
8.88747e-20
8.91931e-20
9.12534e-20
8.36087e-20
1.15974e-19
-2.64223e-21
3.85537e-19
-7.37411e-19
2.06614e-18
-3.89009e-18
6.70726e-18
-9.23034e-18
1.22662e-17
1.08454e-17
8.79342e-18
5.99852e-18
3.40105e-18
1.64589e-18
7.16059e-19
3.09445e-19
1.57744e-19
1.08004e-19
9.36948e-20
9.04156e-20
9.01937e-20
9.11441e-20
9.18316e-20
9.23593e-20
9.2816e-20
9.35915e-20
9.38533e-20
9.43951e-20
9.54098e-20
9.45935e-20
1.01886e-19
7.31854e-20
1.81755e-19
-1.79898e-19
8.87443e-19
-1.8379e-18
4.07876e-18
-6.63215e-18
9.51732e-18
-1.16678e-17
-1.07786e-17
-8.77069e-18
-5.84575e-18
-3.17117e-18
-1.40832e-18
-4.96768e-19
-1.07081e-19
3.52963e-20
8.0435e-20
9.39e-20
9.72511e-20
9.74699e-20
9.73475e-20
9.75242e-20
9.74579e-20
9.70733e-20
9.67822e-20
9.73998e-20
9.73768e-20
9.7048e-20
9.69557e-20
9.68782e-20
9.65688e-20
9.61975e-20
9.57525e-20
9.49055e-20
9.65826e-20
9.37634e-20
9.80818e-20
9.26916e-20
9.55657e-20
9.68465e-20
9.24443e-20
8.7176e-20
8.58792e-20
8.80275e-20
9.13362e-20
9.35802e-20
9.47994e-20
9.58652e-20
9.62395e-20
9.62936e-20
9.64848e-20
9.68127e-20
9.70646e-20
9.72823e-20
9.73334e-20
9.73576e-20
9.72379e-20
9.75e-20
9.72262e-20
9.71211e-20
9.71945e-20
9.6741e-20
9.62324e-20
9.61333e-20
9.513e-20
9.5881e-20
9.3107e-20
9.76298e-20
9.24575e-20
9.51881e-20
9.64155e-20
9.13004e-20
8.54084e-20
8.37883e-20
8.61169e-20
8.91161e-20
9.22622e-20
9.35963e-20
9.40089e-20
9.41992e-20
9.43757e-20
9.45746e-20
9.51258e-20
9.5642e-20
9.61911e-20
9.62166e-20
9.63921e-20
9.68368e-20
9.6963e-20
9.66213e-20
9.65687e-20
9.62658e-20
9.64098e-20
9.68798e-20
9.69911e-20
9.72273e-20
9.71838e-20
9.71634e-20
9.73182e-20
9.72669e-20
9.70111e-20
9.67788e-20
9.67992e-20
9.69785e-20
9.69451e-20
9.70766e-20
9.67869e-20
9.67083e-20
9.85699e-20
9.17507e-20
1.14926e-19
3.88821e-20
2.52861e-19
-2.49177e-19
6.93915e-19
-5.9908e-19
4.44405e-19
4.37231e-19
-2.91167e-19
-7.95136e-19
-7.63973e-19
-4.67303e-19
-1.88146e-19
-2.06018e-20
5.62517e-20
8.53196e-20
9.40578e-20
9.66346e-20
9.69114e-20
9.67966e-20
9.69551e-20
9.69739e-20
9.70159e-20
9.7288e-20
9.74969e-20
9.72696e-20
9.76153e-20
9.7697e-20
9.79345e-20
9.82539e-20
9.81563e-20
9.7973e-20
9.79342e-20
9.78635e-20
9.80479e-20
9.7828e-20
9.76413e-20
9.75349e-20
9.76335e-20
9.74867e-20
9.75339e-20
9.78182e-20
9.82688e-20
9.84252e-20
9.86472e-20
9.86799e-20
9.86223e-20
9.83241e-20
9.82567e-20
9.82362e-20
9.8334e-20
9.82919e-20
9.82672e-20
9.81477e-20
9.8118e-20
9.82048e-20
9.77524e-20
9.81967e-20
9.87107e-20
9.85038e-20
9.8531e-20
9.80488e-20
9.84634e-20
9.76896e-20
1.01694e-19
8.48864e-20
1.44606e-19
-3.72493e-20
4.19706e-19
-5.04303e-19
8.7139e-19
-4.57405e-19
3.22841e-20
-9.89337e-20
1.71891e-18
3.14322e-19
5.22566e-19
9.01891e-20
1.78006e-18
3.04068e-19
4.61078e-19
7.44171e-20
1.77814e-18
3.14086e-19
4.82419e-19
7.87407e-20
1.76986e-18
2.88526e-19
4.68907e-19
7.03361e-20
1.77673e-18
2.89409e-19
4.52374e-19
9.46642e-20
1.78016e-18
2.86628e-19
4.73224e-19
9.1325e-20
1.77779e-18
2.66084e-19
4.30223e-19
8.99076e-20
1.77832e-18
2.76212e-19
4.59239e-19
9.37709e-20
1.7687e-18
2.64137e-19
4.4958e-19
7.98378e-20
1.78103e-18
2.6732e-19
4.34246e-19
1.03013e-19
1.78178e-18
2.76426e-19
4.63592e-19
9.56351e-20
1.7797e-18
2.49536e-19
4.28935e-19
1.25453e-19
1.77945e-18
2.71128e-19
4.50838e-19
1.50698e-19
1.68249e-18
4.85775e-19
-1.69188e-19
1.28556e-18
2.65518e-19
1.2798e-18
8.01423e-19
-2.87882e-19
-8.6386e-19
-7.8324e-19
-4.52053e-19
-1.73941e-19
-1.77594e-20
5.08907e-20
7.66856e-20
8.59319e-20
8.94778e-20
9.13648e-20
9.24931e-20
9.3378e-20
9.42172e-20
9.47411e-20
9.51665e-20
9.55533e-20
9.5812e-20
9.59683e-20
9.62836e-20
9.64304e-20
9.60388e-20
9.60668e-20
9.63892e-20
9.65816e-20
9.69109e-20
9.70182e-20
9.71552e-20
9.74821e-20
9.746e-20
9.74505e-20
9.74218e-20
9.76732e-20
9.76565e-20
9.77215e-20
9.7715e-20
9.80498e-20
9.77328e-20
9.75019e-20
9.74733e-20
9.74938e-20
9.78231e-20
9.78786e-20
9.79398e-20
9.77983e-20
9.7447e-20
9.77513e-20
9.83668e-20
9.81885e-20
9.82458e-20
9.79795e-20
9.8078e-20
9.8254e-20
9.80183e-20
9.82409e-20
9.76935e-20
9.97833e-20
8.7946e-20
1.30995e-19
-1.16819e-20
3.78241e-19
-4.8102e-19
9.15062e-19
-5.5656e-19
9.91333e-21
4.67794e-20
1.83668e-18
2.35299e-19
4.12997e-19
1.77085e-19
1.86804e-18
2.00607e-19
4.04015e-19
1.88809e-19
1.86954e-18
1.92615e-19
3.96017e-19
1.86091e-19
1.86647e-18
1.69206e-19
3.90411e-19
2.06014e-19
1.85376e-18
1.82955e-19
3.81102e-19
1.75914e-19
1.83395e-18
1.49512e-19
4.07103e-19
4.40564e-20
2.12586e-18
-4.41464e-19
1.16012e-18
-5.11623e-19
1.73872e-18
1.1422e-19
2.15386e-18
2.3807e-19
2.14855e-18
2.30325e-19
2.11206e-18
2.16929e-19
2.11988e-18
2.7322e-19
2.12338e-18
2.2026e-19
2.11244e-18
1.6765e-19
2.0842e-18
2.09097e-19
2.0938e-18
2.02063e-19
2.14565e-18
2.12228e-19
2.0882e-18
2.01766e-19
2.10921e-18
1.87844e-19
2.13594e-18
1.98278e-19
2.07469e-18
2.09793e-19
2.13837e-18
2.35104e-19
2.13738e-18
2.34055e-19
2.08069e-18
1.66468e-19
2.1255e-18
1.82227e-19
2.08307e-18
1.75635e-19
2.11856e-18
2.26076e-19
2.15489e-18
2.09649e-19
2.14216e-18
1.9907e-19
2.11418e-18
2.04086e-19
2.13147e-18
2.49527e-19
2.10339e-18
2.16205e-19
2.12017e-18
1.96351e-19
2.10843e-18
1.87325e-19
2.14441e-18
1.95999e-19
2.04091e-18
3.55429e-19
1.7322e-18
1.17484e-18
3.67324e-19
2.55424e-18
8.93878e-20
1.57195e-18
-3.23023e-19
1.81216e-18
5.89253e-20
2.08194e-18
1.85166e-19
2.08981e-18
2.35319e-19
2.14857e-18
2.26459e-19
2.11818e-18
1.84414e-19
2.11093e-18
1.87698e-19
2.10272e-18
2.07766e-19
2.13462e-18
1.96629e-19
2.13569e-18
2.05973e-19
2.10223e-18
1.89329e-19
2.17435e-18
2.1927e-19
2.10085e-18
2.0534e-19
2.12613e-18
2.35964e-19
2.12822e-18
2.18649e-19
2.10453e-18
2.30288e-19
2.11836e-18
2.08904e-19
2.06739e-18
1.80881e-19
2.12844e-18
1.72839e-19
2.06048e-18
2.32964e-19
2.12164e-18
1.97198e-19
2.08331e-18
1.91532e-19
2.08441e-18
2.01849e-19
2.10854e-18
1.92777e-19
2.08855e-18
1.62984e-19
2.10016e-18
1.76351e-19
2.11294e-18
2.26807e-19
2.12886e-18
2.28302e-19
2.10564e-18
2.01518e-19
2.11573e-18
2.15102e-19
2.11178e-18
2.03767e-19
2.07374e-18
2.26552e-19
2.10903e-18
2.14544e-19
2.08876e-18
1.77807e-19
2.09696e-18
1.83734e-19
2.0851e-18
1.95597e-19
2.11609e-18
2.06495e-19
2.10123e-18
1.91455e-19
2.08947e-18
2.00666e-19
2.11839e-18
2.18331e-19
2.11912e-18
2.17899e-19
2.0923e-18
1.84406e-19
2.11697e-18
2.16359e-19
2.09443e-18
2.1136e-19
2.10886e-18
1.84855e-19
2.09885e-18
2.23038e-19
2.15965e-18
1.8757e-19
2.0699e-18
2.208e-19
2.12826e-18
3.19345e-19
1.89556e-18
7.66035e-19
1.31207e-18
9.10824e-19
2.34914e-18
-5.15993e-19
9.86944e-19
-5.16537e-19
1.44924e-18
5.68428e-19
1.25179e-18
8.9802e-19
2.37706e-18
-5.52183e-19
1.01665e-18
-4.91015e-19
1.5085e-18
5.97108e-19
1.26975e-18
9.4852e-19
2.36598e-18
-4.32902e-19
7.19297e-19
2.8464e-19
6.56773e-20
2.44586e-18
-1.27553e-20
1.52833e-18
-1.75244e-19
1.65552e-18
6.47588e-19
1.31256e-18
9.68506e-19
2.4038e-18
-5.45189e-19
1.01437e-18
-4.82228e-19
1.52524e-18
6.16904e-19
1.26751e-18
9.33971e-19
2.38652e-18
-5.90228e-19
1.04939e-18
-4.67461e-19
1.50493e-18
6.00061e-19
1.29945e-18
9.76495e-19
2.40333e-18
-5.56032e-19
1.02172e-18
-4.8665e-19
1.54501e-18
5.98719e-19
1.29283e-18
9.93989e-19
2.39974e-18
-5.64933e-19
1.00658e-18
-4.62543e-19
1.52834e-18
5.95589e-19
1.2869e-18
9.67536e-19
2.38223e-18
-6.16944e-19
1.0344e-18
-4.71023e-19
1.52844e-18
6.2954e-19
1.33495e-18
1.00464e-18
2.37226e-18
-6.07442e-19
1.00503e-18
-4.75434e-19
1.56601e-18
5.93821e-19
1.2922e-18
1.00051e-18
2.393e-18
-6.16451e-19
1.01516e-18
-4.33919e-19
1.58426e-18
5.9702e-19
1.27883e-18
9.82015e-19
2.38122e-18
-6.20184e-19
9.98783e-19
-4.48729e-19
1.58743e-18
6.12128e-19
1.30463e-18
1.01291e-18
2.36021e-18
-6.22637e-19
1.00071e-18
-4.49398e-19
1.58269e-18
6.04641e-19
1.28147e-18
1.00192e-18
2.34103e-18
-6.44253e-19
1.01127e-18
-4.66845e-19
1.58663e-18
6.01966e-19
1.29432e-18
1.02418e-18
2.35446e-18
-6.46517e-19
9.88883e-19
-4.25197e-19
1.5937e-18
5.90739e-19
1.25399e-18
9.91587e-19
2.34887e-18
-6.72952e-19
1.02e-18
-4.54098e-19
1.61065e-18
6.35748e-19
1.31035e-18
1.03177e-18
2.33838e-18
-6.48296e-19
9.68656e-19
-4.39351e-19
1.63223e-18
5.73646e-19
1.24857e-18
1.0281e-18
2.3491e-18
-6.62887e-19
1.00995e-18
-4.47888e-19
1.61939e-18
6.08919e-19
1.28984e-18
1.04786e-18
2.30962e-18
-5.94842e-19
7.38705e-19
2.30196e-19
2.43319e-19
2.50284e-18
-7.44654e-20
1.50081e-18
-1.82306e-19
1.73847e-18
6.40831e-19
1.31013e-18
1.05088e-18
2.33346e-18
-7.11207e-19
9.88541e-19
-4.16607e-19
1.61892e-18
6.20338e-19
1.31342e-18
1.06142e-18
2.27265e-18
-7.03569e-19
9.82459e-19
-4.58348e-19
1.60855e-18
5.80067e-19
1.30056e-18
1.08198e-18
2.28875e-18
-7.11364e-19
9.98428e-19
-4.52397e-19
1.62049e-18
5.7541e-19
1.2861e-18
1.10059e-18
2.2937e-18
-7.00373e-19
1.01174e-18
-4.45668e-19
1.61238e-18
5.73386e-19
1.29206e-18
1.07797e-18
2.2986e-18
-7.33286e-19
9.96668e-19
-4.27764e-19
1.627e-18
6.10082e-19
1.31214e-18
1.10917e-18
2.2539e-18
-7.19865e-19
9.91243e-19
-4.39424e-19
1.63337e-18
5.51227e-19
1.28571e-18
1.09443e-18
2.26979e-18
-7.51257e-19
1.00519e-18
-4.5469e-19
1.6594e-18
6.09109e-19
1.31024e-18
1.1254e-18
2.26124e-18
-7.22731e-19
9.85554e-19
-4.28708e-19
1.64885e-18
5.59439e-19
1.28131e-18
1.09072e-18
2.27952e-18
-7.84588e-19
9.93318e-19
-3.86285e-19
1.67119e-18
6.13882e-19
1.30878e-18
1.11644e-18
2.23291e-18
-7.61749e-19
9.84657e-19
-4.32928e-19
1.68215e-18
5.33762e-19
1.28608e-18
1.13898e-18
2.29572e-18
-7.76147e-19
9.97433e-19
-4.0702e-19
1.71409e-18
6.061e-19
1.31116e-18
1.13685e-18
2.25824e-18
-7.9816e-19
1.01557e-18
-4.30113e-19
1.69896e-18
5.81806e-19
1.32248e-18
1.17322e-18
2.27645e-18
-7.7943e-19
9.961e-19
-3.93933e-19
1.71658e-18
5.73727e-19
1.29587e-18
1.13479e-18
2.25027e-18
-8.10929e-19
9.96314e-19
-3.6993e-19
1.69998e-18
5.8788e-19
1.3205e-18
1.14427e-18
2.19911e-18
-7.78799e-19
7.9803e-19
1.80363e-19
4.01032e-19
2.52711e-18
-1.5045e-19
1.51954e-18
-1.77185e-19
1.78038e-18
6.15791e-19
1.33557e-18
1.19551e-18
2.21222e-18
-8.04077e-19
1.00327e-18
-4.07179e-19
1.68453e-18
5.57272e-19
1.30487e-18
1.15405e-18
2.20924e-18
-8.38259e-19
9.77361e-19
-3.57354e-19
1.75349e-18
5.36758e-19
1.29363e-18
1.18869e-18
2.19963e-18
-8.15258e-19
1.00383e-18
-4.01743e-19
1.70194e-18
5.41853e-19
1.3035e-18
1.19747e-18
2.2065e-18
-8.26668e-19
9.92164e-19
-3.59915e-19
1.72922e-18
5.53499e-19
1.29628e-18
1.1662e-18
2.16951e-18
-8.62384e-19
1.0164e-18
-4.40298e-19
1.73612e-18
5.98922e-19
1.34133e-18
1.21537e-18
2.21256e-18
-8.48569e-19
1.01417e-18
-3.88434e-19
1.74182e-18
5.92525e-19
1.32661e-18
1.19295e-18
2.16571e-18
-8.4591e-19
9.5684e-19
-3.12658e-19
1.55267e-18
8.56263e-19
1.08692e-18
4.10853e-19
-3.55033e-19
1.69978e-19
-3.14328e-19
2.50563e-19
-3.05793e-18
-3.92323e-18
-6.92505e-18
-8.08727e-18
-7.69782e-18
-5.64621e-18
-4.22999e-18
-6.64388e-19
-3.32159e-18
3.79341e-18
-5.54952e-18
6.93714e-18
-9.58834e-18
-2.00959e-18
-1.18996e-17
1.8521e-18
-1.34795e-17
-4.68462e-18
-1.26378e-17
-6.84491e-20
-1.1392e-17
-8.55642e-18
-7.49541e-18
-5.67908e-18
-4.34017e-18
-8.67542e-19
-3.32141e-18
3.5808e-18
-5.2786e-18
6.03938e-18
-7.71811e-18
-6.31148e-18
-7.04438e-18
-4.24229e-18
-5.31523e-18
-1.18833e-19
-2.10195e-18
-7.66258e-20
1.25502e-18
2.60752e-18
1.81791e-18
2.98301e-18
-5.4593e-19
2.43651e-18
-9.25756e-19
4.55357e-19
1.20696e-18
3.11067e-18
6.18572e-19
5.34562e-18
-4.51896e-18
7.70528e-18
-6.92373e-18
7.54248e-18
8.23102e-18
9.0219e-18
7.9857e-18
5.53631e-18
3.28026e-18
1.29848e-18
1.28751e-18
-8.03181e-19
1.84801e-18
-1.68489e-18
1.3407e-18
-2.76343e-20
-1.22829e-18
-2.119e-18
-2.16783e-18
-1.5776e-18
-8.73472e-19
-3.46751e-19
-1.02718e-19
1.49099e-19
-1.50955e-19
7.0906e-19
-1.00956e-18
1.85189e-18
-1.78235e-18
1.41591e-18
3.00429e-20
-1.29115e-18
-2.22656e-18
-2.23567e-18
-1.59593e-18
-8.61824e-19
-3.4431e-19
-5.2913e-20
3.35397e-20
1.99808e-19
-1.25382e-19
7.06082e-19
-9.9575e-19
1.85014e-18
-1.78687e-18
1.41029e-18
8.23234e-20
-1.28242e-18
-2.2359e-18
-2.23473e-18
-1.58539e-18
-8.50765e-19
-3.33345e-19
-5.65988e-20
6.17447e-20
1.08861e-19
1.15403e-19
1.315e-19
1.05054e-19
1.40309e-19
1.07606e-19
1.08183e-19
1.24846e-19
1.11578e-19
7.76465e-20
5.56838e-20
5.99814e-20
7.59486e-20
9.22111e-20
1.03581e-19
1.09937e-19
1.14106e-19
1.1715e-19
1.17285e-19
1.17602e-19
1.21634e-19
1.06068e-19
1.65878e-19
-3.2941e-20
5.56842e-19
-9.7011e-19
2.39451e-18
-3.79093e-18
5.49216e-18
-6.08393e-18
7.81132e-18
7.08892e-18
6.92297e-18
5.66227e-18
3.73397e-18
2.04749e-18
9.85346e-19
4.54206e-19
2.33015e-19
1.52529e-19
1.26738e-19
1.1987e-19
1.18299e-19
1.19745e-19
1.2052e-19
1.21025e-19
1.21283e-19
1.22745e-19
1.22436e-19
1.22871e-19
1.24595e-19
1.2256e-19
1.3714e-19
8.34121e-20
2.66841e-19
-2.86148e-19
1.17551e-18
-2.12899e-18
4.09674e-18
-5.4084e-18
6.36516e-18
-7.07894e-18
-6.89172e-18
-6.89593e-18
-5.53093e-18
-3.48248e-18
-1.75221e-18
-6.97212e-19
-1.84986e-19
2.3425e-20
9.49929e-20
1.1911e-19
1.26227e-19
1.26643e-19
1.26269e-19
1.27003e-19
1.2727e-19
1.26539e-19
1.25265e-19
1.27146e-19
1.27351e-19
1.26469e-19
1.26496e-19
1.2661e-19
1.26031e-19
1.25575e-19
1.25352e-19
1.21849e-19
1.2928e-19
1.17599e-19
1.34442e-19
1.17909e-19
1.22044e-19
1.31537e-19
1.26273e-19
1.13044e-19
1.06665e-19
1.0879e-19
1.15187e-19
1.19844e-19
1.2223e-19
1.24678e-19
1.25554e-19
1.25446e-19
1.25696e-19
1.26206e-19
1.26458e-19
1.26736e-19
1.26539e-19
1.26546e-19
1.26044e-19
1.27187e-19
1.26562e-19
1.26323e-19
1.26923e-19
1.26238e-19
1.2519e-19
1.25968e-19
1.22705e-19
1.27748e-19
1.16239e-19
1.33516e-19
1.17609e-19
1.21668e-19
1.31841e-19
1.25376e-19
1.10922e-19
1.03851e-19
1.07105e-19
1.12085e-19
1.19161e-19
1.22114e-19
1.22965e-19
1.2341e-19
1.23465e-19
1.23077e-19
1.24057e-19
1.24856e-19
1.26073e-19
1.25881e-19
1.25798e-19
1.26537e-19
1.26832e-19
1.25982e-19
1.25924e-19
1.24929e-19
1.24994e-19
1.26066e-19
1.25875e-19
1.26486e-19
1.26368e-19
1.26281e-19
1.26688e-19
1.26825e-19
1.26517e-19
1.25855e-19
1.25674e-19
1.26211e-19
1.26083e-19
1.26794e-19
1.2586e-19
1.24976e-19
1.3181e-19
1.09177e-19
1.85282e-19
-5.45601e-20
5.9388e-19
-8.80276e-19
1.83763e-18
-1.97524e-18
1.64135e-18
1.37112e-19
-1.55514e-18
-2.5039e-18
-2.27549e-18
-1.4598e-18
-6.9956e-19
-2.29172e-19
-4.31344e-21
8.5459e-20
1.14397e-19
1.23826e-19
1.25628e-19
1.25496e-19
1.26033e-19
1.26096e-19
1.26129e-19
1.26636e-19
1.27231e-19
1.26342e-19
1.27191e-19
1.27156e-19
1.27418e-19
1.2821e-19
1.28101e-19
1.27624e-19
1.27478e-19
1.27032e-19
1.27878e-19
1.27203e-19
1.26849e-19
1.26631e-19
1.2716e-19
1.26654e-19
1.26481e-19
1.26815e-19
1.27989e-19
1.28063e-19
1.28556e-19
1.28584e-19
1.28709e-19
1.27998e-19
1.27756e-19
1.27571e-19
1.27674e-19
1.27622e-19
1.27764e-19
1.27501e-19
1.27293e-19
1.2786e-19
1.26417e-19
1.2733e-19
1.28734e-19
1.27829e-19
1.2842e-19
1.27073e-19
1.28179e-19
1.25832e-19
1.38221e-19
8.6585e-20
2.68949e-19
-2.7434e-19
1.06892e-18
-1.61369e-18
2.48149e-18
-1.96272e-18
1.01932e-18
2.2424e-19
5.12753e-18
3.3112e-19
2.47856e-18
8.74974e-19
5.38027e-18
3.90549e-19
2.38379e-18
8.41441e-19
5.37902e-18
4.2618e-19
2.43588e-18
8.60347e-19
5.37954e-18
3.51781e-19
2.42611e-18
8.61623e-19
5.40601e-18
3.61522e-19
2.38001e-18
9.12714e-19
5.42351e-18
3.52977e-19
2.44845e-18
9.14887e-19
5.41711e-18
3.38751e-19
2.30842e-18
8.80762e-19
5.41429e-18
3.32242e-19
2.39986e-18
9.29737e-19
5.39612e-18
3.01798e-19
2.38722e-18
8.86731e-19
5.41497e-18
3.14798e-19
2.32877e-18
9.35371e-19
5.42209e-18
3.2206e-19
2.42413e-18
9.31747e-19
5.4306e-18
2.45521e-19
2.32606e-18
1.01357e-18
5.43624e-18
3.06742e-19
2.38858e-18
1.08581e-18
5.14031e-18
9.61679e-19
5.70522e-19
4.36368e-18