/*--------------------------------*- C++ -*----------------------------------*\
| =========                 |                                                 |
| \\      /  F ield         | OpenFOAM: The Open Source CFD Toolbox           |
|  \\    /   O peration     | Version:  2512                                  |
|   \\  /    A nd           | Website:  www.openfoam.com                      |
|    \\/     M anipulation  |                                                 |
\*---------------------------------------------------------------------------*/
FoamFile
{
    version     2.0;
    format      ascii;
    arch        "LSB;label=32;scalar=64";
    class       volVectorField;
    location    "3e-05";
    object      B;
}
// * * * * * * * * * * * * * * * * * * * * * * * * * * * * * * * * * * * * * //

dimensions      [1 0 -2 0 0 -1 0];

internalField   nonuniform List<vector> 
100000
(
(0.0213892 20.0017 0)
(0.0303086 19.9968 0)
(0.0248434 20.0027 0)
(0.0276883 19.9982 0)
(0.0265343 20.0009 0)
(0.0267857 19.9998 0)
(0.0267386 20.0001 0)
(0.0267159 20 0)
(0.0266933 20 0)
(0.0266706 20 0)
(0.0266478 20 0)
(0.0266251 20 0)
(0.0266024 20 0)
(0.0265797 20 0)
(0.0265569 20 0)
(0.0265342 20 0)
(0.0265114 20 0)
(0.0264887 20 0)
(0.026466 20 0)
(0.0264432 20 0)
(0.0264205 20 0)
(0.0263977 20 0)
(0.026375 20 0)
(0.0263522 20 0)
(0.0263295 20 0)
(0.0263067 20 0)
(0.0262839 20 0)
(0.0262612 20 0)
(0.0262384 20 0)
(0.0262157 20 0)
(0.0261929 20 0)
(0.0261702 20 0)
(0.0261474 20 0)
(0.0261247 20 0)
(0.0261019 20 0)
(0.0260791 20 0)
(0.0260564 20 0)
(0.0260336 20 0)
(0.0260109 20 0)
(0.0259881 20 0)
(0.0259654 20 0)
(0.0259426 20 0)
(0.0259198 20 0)
(0.0258971 20 0)
(0.0258743 20 0)
(0.0258516 20 0)
(0.0258288 20 0)
(0.025806 20 0)
(0.0257833 20 0)
(0.0257605 20 0)
(0.0257377 20 0)
(0.025715 20 0)
(0.0256922 20 0)
(0.0256695 20 0)
(0.0256467 20 0)
(0.0256239 20 0)
(0.0256012 20 0)
(0.0255784 20 0)
(0.0255556 20 0)
(0.0255329 20 0)
(0.0255101 20 0)
(0.0254873 20 0)
(0.0254646 20 0)
(0.0254418 20 0)
(0.0254191 20 0)
(0.0253963 20 0)
(0.0253735 20 0)
(0.0253508 20 0)
(0.025328 20 0)
(0.0253052 20 0)
(0.0252825 20 0)
(0.0252597 20 0)
(0.0252369 20 0)
(0.0252141 20 0)
(0.0251914 20 0)
(0.0251686 20 0)
(0.0251458 20 0)
(0.0251231 20 0)
(0.0251003 20 0)
(0.0250775 20 0)
(0.0250548 20 0)
(0.025032 20 0)
(0.0250092 20 0)
(0.0249864 20 0)
(0.0249637 20 0)
(0.0249409 20 0)
(0.0249181 20 0)
(0.0248954 20 0)
(0.0248726 20 0)
(0.0248498 20 0)
(0.024827 20 0)
(0.0248043 20 0)
(0.0247815 20 0)
(0.0247587 20 0)
(0.0247359 20 0)
(0.0247132 20 0)
(0.0246904 20 0)
(0.0246676 20 0)
(0.0246448 20 0)
(0.0246221 20 0)
(0.0245993 20 0)
(0.0245765 20 0)
(0.0245537 20 0)
(0.0245309 20 0)
(0.0245082 20 0)
(0.0244854 20 0)
(0.0244626 20 0)
(0.0244398 20 0)
(0.024417 20 0)
(0.0243943 20 0)
(0.0243715 20 0)
(0.0243487 20 0)
(0.0243259 20 0)
(0.0243031 20 0)
(0.0242803 20 0)
(0.0242576 20 0)
(0.0242348 20 0)
(0.024212 20 0)
(0.0241892 20 0)
(0.0241664 20 0)
(0.0241436 20 0)
(0.0241208 20 0)
(0.0240981 20 0)
(0.0240753 20 0)
(0.0240525 20 0)
(0.0240297 20 0)
(0.0240069 20 0)
(0.0239841 20 0)
(0.0239613 20 0)
(0.0239385 20 0)
(0.0239157 20 0)
(0.023893 20 0)
(0.0238702 20 0)
(0.0238474 20 0)
(0.0238246 20 0)
(0.0238018 20 0)
(0.023779 20 0)
(0.0237562 20 0)
(0.0237334 20 0)
(0.0237106 20 0)
(0.0236878 20 0)
(0.023665 20 0)
(0.0236422 20 0)
(0.0236194 20 0)
(0.0235966 20 0)
(0.0235738 20 0)
(0.023551 20 0)
(0.0235282 20 0)
(0.0235054 20 0)
(0.0234826 20 0)
(0.0234598 20 0)
(0.023437 20 0)
(0.0234142 20 0)
(0.0233914 20 0)
(0.0233686 20 0)
(0.0233458 20 0)
(0.023323 20 0)
(0.0233002 20 0)
(0.0232774 20 0)
(0.0232546 20 0)
(0.0232318 20 0)
(0.023209 20 0)
(0.0231862 20 0)
(0.0231634 20 0)
(0.0231406 20 0)
(0.0231177 20 0)
(0.0230949 20 0)
(0.0230721 20 0)
(0.0230493 20 0)
(0.0230265 20 0)
(0.0230037 20 0)
(0.0229809 20 0)
(0.0229581 20 0)
(0.0229353 20 0)
(0.0229124 20 0)
(0.0228896 20 0)
(0.0228668 20 0)
(0.022844 20 0)
(0.0228212 20 0)
(0.0227984 20 0)
(0.0227755 20 0)
(0.0227527 20 0)
(0.0227299 20 0)
(0.0227071 20 0)
(0.0226843 20 0)
(0.0226614 20 0)
(0.0226386 20 0)
(0.0226158 20 0)
(0.022593 20 0)
(0.0225701 20 0)
(0.0225473 20 0)
(0.0225245 20 0)
(0.0225017 20 0)
(0.0224788 20 0)
(0.022456 20 0)
(0.0224332 20 0)
(0.0224104 20 0)
(0.0223875 20 0)
(0.0223647 20 0)
(0.0223419 20 0)
(0.022319 20 0)
(0.0222962 20 0)
(0.0222734 20 0)
(0.0222505 20 0)
(0.0222277 20 0)
(0.0222049 20 0)
(0.022182 20 0)
(0.0221592 20 0)
(0.0221363 20 0)
(0.0221135 20 0)
(0.0220907 20 0)
(0.0220678 20 0)
(0.022045 20 0)
(0.0220222 20 0)
(0.0219993 20 0)
(0.0219765 20 0)
(0.0219536 20 0)
(0.0219308 20 0)
(0.0219079 20 0)
(0.0218851 20 0)
(0.0218622 20 0)
(0.0218394 20 0)
(0.0218166 20 0)
(0.0217937 20 0)
(0.0217709 20 0)
(0.021748 20 0)
(0.0217252 20 0)
(0.0217023 20 0)
(0.0216795 20 0)
(0.0216566 20 0)
(0.0216337 20 0)
(0.0216109 20 0)
(0.021588 20 0)
(0.0215652 20 0)
(0.0215423 20 0)
(0.0215195 20 0)
(0.0214966 20 0)
(0.0214738 20 0)
(0.0214509 20 0)
(0.021428 20 0)
(0.0214052 20 0)
(0.0213823 20 0)
(0.0213594 20 0)
(0.0213366 20 0)
(0.0213137 20 0)
(0.0212909 20 0)
(0.021268 20 0)
(0.0212451 20 0)
(0.0212223 20 0)
(0.0211994 20 0)
(0.0211765 20 0)
(0.0211536 20 0)
(0.0211308 20 0)
(0.0211079 20 0)
(0.021085 20 0)
(0.0210622 20 0)
(0.0210393 20 0)
(0.0210164 20 0)
(0.0209935 20 0)
(0.0209707 20 0)
(0.0209478 20 0)
(0.0209249 20 0)
(0.020902 20 0)
(0.0208791 20 0)
(0.0208563 20 0)
(0.0208334 20 0)
(0.0208105 20 0)
(0.0207876 20 0)
(0.0207647 20 0)
(0.0207418 20 0)
(0.020719 20 0)
(0.0206961 20 0)
(0.0206732 20 0)
(0.0206503 20 0)
(0.0206274 20 0)
(0.0206045 20 0)
(0.0205816 20 0)
(0.0205587 20 0)
(0.0205358 20 0)
(0.0205129 20 0)
(0.02049 20 0)
(0.0204672 20 0)
(0.0204443 20 0)
(0.0204214 20 0)
(0.0203985 20 0)
(0.0203756 20 0)
(0.0203527 20 0)
(0.0203298 20 0)
(0.0203069 20 0)
(0.020284 20 0)
(0.0202611 20 0)
(0.0202382 20 0)
(0.0202152 20 0)
(0.0201923 20 0)
(0.0201694 20 0)
(0.0201465 20 0)
(0.0201236 20 0)
(0.0201007 20 0)
(0.0200778 20 0)
(0.0200549 20 0)
(0.020032 20 0)
(0.0200091 20 0)
(0.0199861 20 0)
(0.0199632 20 0)
(0.0199403 20 0)
(0.0199174 20 0)
(0.0198945 20 0)
(0.0198716 20 0)
(0.0198486 20 0)
(0.0198257 20 0)
(0.0198028 20 0)
(0.0197799 20 0)
(0.0197569 20 0)
(0.019734 20 0)
(0.0197111 20 0)
(0.0196882 20 0)
(0.0196652 20 0)
(0.0196423 20 0)
(0.0196194 20 0)
(0.0195965 20 0)
(0.0195735 20 0)
(0.0195506 20 0)
(0.0195277 20 0)
(0.0195047 20 0)
(0.0194818 20 0)
(0.0194589 20 0)
(0.0194359 20 0)
(0.019413 20 0)
(0.01939 20 0)
(0.0193671 20 0)
(0.0193442 20 0)
(0.0193212 20 0)
(0.0192983 20 0)
(0.0192753 20 0)
(0.0192524 20 0)
(0.0192294 20 0)
(0.0192065 20 0)
(0.0191835 20 0)
(0.0191606 20 0)
(0.0191376 20 0)
(0.0191147 20 0)
(0.0190917 20 0)
(0.0190688 20 0)
(0.0190458 20 0)
(0.0190229 20 0)
(0.0189999 20 0)
(0.018977 20 0)
(0.018954 20 0)
(0.0189311 20 0)
(0.0189081 20 0)
(0.0188851 20 0)
(0.0188622 20 0)
(0.0188392 20 0)
(0.0188162 20 0)
(0.0187933 20 0)
(0.0187703 20 0)
(0.0187474 20 0)
(0.0187244 20 0)
(0.0187014 20 0)
(0.0186784 20 0)
(0.0186555 20 0)
(0.0186325 20 0)
(0.0186095 20 0)
(0.0185866 20 0)
(0.0185636 20 0)
(0.0185406 20 0)
(0.0185176 20 0)
(0.0184946 20 0)
(0.0184717 20 0)
(0.0184487 20 0)
(0.0184257 20 0)
(0.0184027 20 0)
(0.0183797 20 0)
(0.0183568 20 0)
(0.0183338 20 0)
(0.0183108 20 0)
(0.0182878 20 0)
(0.0182648 20 0)
(0.0182418 20 0)
(0.0182188 20 0)
(0.0181958 20 0)
(0.0181728 20 0)
(0.0181499 20 0)
(0.0181269 20 0)
(0.0181039 20 0)
(0.0180809 20 0)
(0.0180579 20 0)
(0.0180349 20 0)
(0.0180119 20 0)
(0.0179889 20 0)
(0.0179659 20 0)
(0.0179429 20 0)
(0.0179199 20 0)
(0.0178969 20 0)
(0.0178739 20 0)
(0.0178508 20 0)
(0.0178278 20 0)
(0.0178048 20 0)
(0.0177818 20 0)
(0.0177588 20 0)
(0.0177358 20 0)
(0.0177128 20 0)
(0.0176898 20 0)
(0.0176667 20 0)
(0.0176437 20 0)
(0.0176207 20 0)
(0.0175977 20 0)
(0.0175747 20 0)
(0.0175517 20 0)
(0.0175286 20 0)
(0.0175056 20 0)
(0.0174826 20 0)
(0.0174596 20 0)
(0.0174365 20 0)
(0.0174135 20 0)
(0.0173905 20 0)
(0.0173674 20 0)
(0.0173444 20 0)
(0.0173214 20 0)
(0.0172984 20 0)
(0.0172753 20 0)
(0.0172523 20 0)
(0.0172292 20 0)
(0.0172062 20 0)
(0.0171832 20 0)
(0.0171601 20 0)
(0.0171371 20 0)
(0.017114 20 0)
(0.017091 20 0)
(0.017068 20 0)
(0.0170449 20 0)
(0.0170219 20 0)
(0.0169988 20 0)
(0.0169758 20 0)
(0.0169527 20 0)
(0.0169297 20 0)
(0.0169066 20 0)
(0.0168836 20 0)
(0.0168605 20 0)
(0.0168375 20 0)
(0.0168144 20 0)
(0.0167914 20 0)
(0.0167683 20 0)
(0.0167452 20 0)
(0.0167222 20 0)
(0.0166991 20 0)
(0.0166761 20 0)
(0.016653 20 0)
(0.0166299 20 0)
(0.0166069 20 0)
(0.0165838 20 0)
(0.0165607 20 0)
(0.0165377 20 0)
(0.0165146 20 0)
(0.0164915 20 0)
(0.0164684 20 0)
(0.0164454 20 0)
(0.0164223 20 0)
(0.0163992 20 0)
(0.0163761 20 0)
(0.0163531 20 0)
(0.01633 20 0)
(0.0163069 20 0)
(0.0162838 20 0)
(0.0162607 20 0)
(0.0162377 20 0)
(0.0162146 20 0)
(0.0161915 20 0)
(0.0161684 20 0)
(0.0161453 20 0)
(0.0161222 20 0)
(0.0160991 20 0)
(0.016076 20 0)
(0.016053 20 0)
(0.0160299 20 0)
(0.0160068 20 0)
(0.0159837 20 0)
(0.0159606 20 0)
(0.0159375 20 0)
(0.0159144 20 0)
(0.0158913 20 0)
(0.0158682 20 0)
(0.0158451 20 0)
(0.015822 20 0)
(0.0157989 20 0)
(0.0157758 20 0)
(0.0157527 20 0)
(0.0157295 20 0)
(0.0157064 20 0)
(0.0156833 20 0)
(0.0156602 20 0)
(0.0156371 20 0)
(0.015614 20 0)
(0.0155909 20 0)
(0.0155678 20 0)
(0.0155446 20 0)
(0.0155215 20 0)
(0.0154984 20 0)
(0.0154753 20 0)
(0.0154522 20 0)
(0.015429 20 0)
(0.0154059 20 0)
(0.0153828 20 0)
(0.0153597 20 0)
(0.0153365 20 0)
(0.0153134 20 0)
(0.0152903 20 0)
(0.0152672 20 0)
(0.015244 20 0)
(0.0152209 20 0)
(0.0151978 20 0)
(0.0151746 20 0)
(0.0151515 20 0)
(0.0151284 20 0)
(0.0151052 20 0)
(0.0150821 20 0)
(0.0150589 20 0)
(0.0150358 20 0)
(0.0150127 20 0)
(0.0149895 20 0)
(0.0149664 20 0)
(0.0149432 20 0)
(0.0149201 20 0)
(0.0148969 20 0)
(0.0148738 20 0)
(0.0148506 20 0)
(0.0148275 20 0)
(0.0148043 20 0)
(0.0147812 20 0)
(0.014758 20 0)
(0.0147349 20 0)
(0.0147117 20 0)
(0.0146886 20 0)
(0.0146654 20 0)
(0.0146422 20 0)
(0.0146191 20 0)
(0.0145959 20 0)
(0.0145728 20 0)
(0.0145496 20 0)
(0.0145264 20 0)
(0.0145033 20 0)
(0.0144801 20 0)
(0.0144569 20 0)
(0.0144338 20 0)
(0.0144106 20 0)
(0.0143874 20 0)
(0.0143642 20 0)
(0.0143411 20 0)
(0.0143179 20 0)
(0.0142947 20 0)
(0.0142715 20 0)
(0.0142484 20 0)
(0.0142252 20 0)
(0.014202 20 0)
(0.0141788 20 0)
(0.0141556 20 0)
(0.0141325 20 0)
(0.0141093 20 0)
(0.0140861 20 0)
(0.0140629 20 0)
(0.0140397 20 0)
(0.0140165 20 0)
(0.0139933 20 0)
(0.0139701 20 0)
(0.0139469 20 0)
(0.0139238 20 0)
(0.0139006 20 0)
(0.0138774 20 0)
(0.0138542 20 0)
(0.013831 20 0)
(0.0138078 20 0)
(0.0137846 20 0)
(0.0137614 20 0)
(0.0137382 20 0)
(0.013715 20 0)
(0.0136918 20 0)
(0.0136686 20 0)
(0.0136454 20 0)
(0.0136221 20 0)
(0.0135989 20 0)
(0.0135757 20 0)
(0.0135525 20 0)
(0.0135293 20 0)
(0.0135061 20 0)
(0.0134829 20 0)
(0.0134597 20 0)
(0.0134364 20 0)
(0.0134132 20 0)
(0.01339 20 0)
(0.0133668 20 0)
(0.0133436 20 0)
(0.0133204 20 0)
(0.0132971 20 0)
(0.0132739 20 0)
(0.0132507 20 0)
(0.0132275 20 0)
(0.0132042 20 0)
(0.013181 20 0)
(0.0131578 20 0)
(0.0131345 20 0)
(0.0131113 20 0)
(0.0130881 20 0)
(0.0130649 20 0)
(0.0130416 20 0)
(0.0130184 20 0)
(0.0129952 20 0)
(0.0129719 20 0)
(0.0129487 20 0)
(0.0129254 20 0)
(0.0129022 20 0)
(0.012879 20 0)
(0.0128557 20 0)
(0.0128325 20 0)
(0.0128092 20 0)
(0.012786 20 0)
(0.0127627 20 0)
(0.0127395 20 0)
(0.0127162 20 0)
(0.012693 20 0)
(0.0126697 20 0)
(0.0126465 20 0)
(0.0126232 20 0)
(0.0126 20 0)
(0.0125767 20 0)
(0.0125535 20 0)
(0.0125302 20 0)
(0.012507 20 0)
(0.0124837 20 0)
(0.0124604 20 0)
(0.0124372 20 0)
(0.0124139 20 0)
(0.0123907 20 0)
(0.0123674 20 0)
(0.0123441 20 0)
(0.0123209 20 0)
(0.0122976 20 0)
(0.0122743 20 0)
(0.0122511 20 0)
(0.0122278 20 0)
(0.0122045 20 0)
(0.0121813 20 0)
(0.012158 20 0)
(0.0121347 20 0)
(0.0121114 20 0)
(0.0120882 20 0)
(0.0120649 20 0)
(0.0120416 20 0)
(0.0120183 20 0)
(0.0119951 20 0)
(0.0119718 20 0)
(0.0119485 20 0)
(0.0119252 20 0)
(0.0119019 20 0)
(0.0118786 20 0)
(0.0118554 20 0)
(0.0118321 20 0)
(0.0118088 20 0)
(0.0117855 20 0)
(0.0117622 20 0)
(0.0117389 20 0)
(0.0117156 20 0)
(0.0116923 20 0)
(0.0116691 20 0)
(0.0116458 20 0)
(0.0116225 20 0)
(0.0115992 20 0)
(0.0115759 20 0)
(0.0115526 20 0)
(0.0115293 20 0)
(0.011506 20 0)
(0.0114827 20 0)
(0.0114594 20 0)
(0.0114361 20 0)
(0.0114128 20 0)
(0.0113895 20 0)
(0.0113662 20 0)
(0.0113429 20 0)
(0.0113196 20 0)
(0.0112962 20 0)
(0.0112729 20 0)
(0.0112496 20 0)
(0.0112263 20 0)
(0.011203 20 0)
(0.0111797 20 0)
(0.0111564 20 0)
(0.0111331 20 0)
(0.0111098 20 0)
(0.0110864 20 0)
(0.0110631 20 0)
(0.0110398 20 0)
(0.0110165 20 0)
(0.0109932 20 0)
(0.0109699 20 0)
(0.0109465 20 0)
(0.0109232 20 0)
(0.0108999 20 0)
(0.0108766 20 0)
(0.0108532 20 0)
(0.0108299 20 0)
(0.0108066 20 0)
(0.0107833 20 0)
(0.0107599 20 0)
(0.0107366 20 0)
(0.0107133 20 0)
(0.0106899 20 0)
(0.0106666 20 0)
(0.0106433 20 0)
(0.01062 20 0)
(0.0105966 20 0)
(0.0105733 20 0)
(0.0105499 20 0)
(0.0105266 20 0)
(0.0105033 20 0)
(0.0104799 20 0)
(0.0104566 20 0)
(0.0104333 20 0)
(0.0104099 20 0)
(0.0103866 20 0)
(0.0103632 20 0)
(0.0103399 20 0)
(0.0103165 20 0)
(0.0102932 20 0)
(0.0102699 20 0)
(0.0102465 20 0)
(0.0102232 20 0)
(0.0101998 20 0)
(0.0101765 20 0)
(0.0101531 20 0)
(0.0101298 20 0)
(0.0101064 20 0)
(0.0100831 20 0)
(0.0100597 20 0)
(0.0100364 20 0)
(0.010013 20 0)
(0.00998965 20 0)
(0.00996629 20 0)
(0.00994293 20 0)
(0.00991957 20 0)
(0.00989622 20 0)
(0.00987286 20 0)
(0.0098495 20 0)
(0.00982614 20 0)
(0.00980278 20 0)
(0.00977941 20 0)
(0.00975605 20 0)
(0.00973269 20 0)
(0.00970932 20 0)
(0.00968596 20 0)
(0.00966259 20 0)
(0.00963922 20 0)
(0.00961586 20 0)
(0.00959249 20 0)
(0.00956912 20 0)
(0.00954575 20 0)
(0.00952238 20 0)
(0.00949901 20 0)
(0.00947564 20 0)
(0.00945226 20 0)
(0.00942889 20 0)
(0.00940551 20 0)
(0.00938214 20 0)
(0.00935876 20 0)
(0.00933539 20 0)
(0.00931201 20 0)
(0.00928863 20 0)
(0.00926525 20 0)
(0.00924188 20 0)
(0.0092185 20 0)
(0.00919511 20 0)
(0.00917173 20 0)
(0.00914835 20 0)
(0.00912497 20 0)
(0.00910159 20 0)
(0.0090782 20 0)
(0.00905482 20 0)
(0.00903143 20 0)
(0.00900804 20 0)
(0.00898466 20 0)
(0.00896127 20 0)
(0.00893788 20 0)
(0.00891449 20 0)
(0.0088911 20 0)
(0.00886771 20 0)
(0.00884432 20 0)
(0.00882093 20 0)
(0.00879754 20 0)
(0.00877415 20 0)
(0.00875075 20 0)
(0.00872736 20 0)
(0.00870396 20 0)
(0.00868057 20 0)
(0.00865717 20 0)
(0.00863378 20 0)
(0.00861038 20 0)
(0.00858698 20 0)
(0.00856358 20 0)
(0.00854018 20 0)
(0.00851678 20 0)
(0.00849338 20 0)
(0.00846998 20 0)
(0.00844658 20 0)
(0.00842318 20 0)
(0.00839978 20 0)
(0.00837637 20 0)
(0.00835297 20 0)
(0.00832956 20 0)
(0.00830616 20 0)
(0.00828275 20 0)
(0.00825935 20 0)
(0.00823594 20 0)
(0.00821253 20 0)
(0.00818912 20 0)
(0.00816572 20 0)
(0.00814231 20 0)
(0.0081189 20 0)
(0.00809549 20 0)
(0.00807208 20 0)
(0.00804866 20 0)
(0.00802525 20 0)
(0.00800184 20 0)
(0.00797843 20 0)
(0.00795501 20 0)
(0.0079316 20 0)
(0.00790819 20 0)
(0.00788477 20 0)
(0.00786135 20 0)
(0.00783794 20 0)
(0.00781452 20 0)
(0.0077911 20 0)
(0.00776769 20 0)
(0.00774427 20 0)
(0.00772085 20 0)
(0.00769743 20 0)
(0.00767401 20 0)
(0.00765059 20 0)
(0.00762717 20 0)
(0.00760375 20 0)
(0.00758033 20 0)
(0.0075569 20 0)
(0.00753348 20 0)
(0.00751006 20 0)
(0.00748664 20 0)
(0.00746321 20 0)
(0.00743979 20 0)
(0.00741636 20 0)
(0.00739294 20 0)
(0.00736951 20 0)
(0.00734609 20 0)
(0.00732266 20 0)
(0.00729923 20 0)
(0.0072758 20 0)
(0.00725238 20 0)
(0.00722895 20 0)
(0.00720552 20 0)
(0.00718209 20 0)
(0.00715866 20 0)
(0.00713523 20 0)
(0.0071118 20 0)
(0.00708837 20 0)
(0.00706494 20 0)
(0.00704151 20 0)
(0.00701808 20 0)
(0.00699464 20 0)
(0.00697121 20 0)
(0.00694778 20 0)
(0.00692434 20 0)
(0.00690091 20 0)
(0.00687748 20 0)
(0.00685404 20 0)
(0.00683061 20 0)
(0.00680717 20 0)
(0.00678374 20 0)
(0.0067603 20 0)
(0.00673687 20 0)
(0.00671343 20 0)
(0.00668999 20 0)
(0.00666656 20 0)
(0.00664312 20 0)
(0.00661968 20 0)
(0.00659625 20 0)
(0.00657281 20 0)
(0.00654937 20 0)
(0.00652593 20 0)
(0.00650249 20 0)
(0.00647906 20 0)
(0.00645562 20 0)
(0.00643218 20 0)
(0.00640874 20 0)
(0.0063853 20 0)
(0.00636186 20 0)
(0.00633842 20 0)
(0.00631498 20 0)
(0.00629154 20 0)
(0.0062681 20 0)
(0.00624466 20 0)
(0.00622122 20 0)
(0.00619777 20 0)
(0.00617433 20 0)
(0.00615089 20 0)
(0.00612745 20 0)
(0.00610401 20 0)
(0.00608057 20 0)
(0.00605713 20 0)
(0.00603369 20 0)
(0.00601024 20 0)
(0.0059868 20 0)
(0.00596336 20 0)
(0.00593992 20 0)
(0.00591648 20 0)
(0.00589304 20 0)
(0.00586959 20 0)
(0.00584615 20 0)
(0.00582271 20 0)
(0.00579927 20 0)
(0.00577583 20 0)
(0.00575239 20 0)
(0.00572894 20 0)
(0.0057055 20 0)
(0.00568206 20 0)
(0.00565862 20 0)
(0.00563518 20 0)
(0.00561174 20 0)
(0.0055883 20 0)
(0.00556486 20 0)
(0.00554142 20 0)
(0.00551798 20 0)
(0.00549454 20 0)
(0.0054711 20 0)
(0.00544766 20 0)
(0.00542423 20 0)
(0.00540079 20 0)
(0.00537735 20 0)
(0.00535391 20 0)
(0.00533048 20 0)
(0.00530704 20 0)
(0.00528361 20 0)
(0.00526017 20 0)
(0.00523674 20 0)
(0.0052133 20 0)
(0.00518987 20 0)
(0.00516644 20 0)
(0.00514301 20 0)
(0.00511958 20 0)
(0.00509615 20 0)
(0.00507272 20 0)
(0.00504929 20 0)
(0.00502586 20 0)
(0.00500244 20 0)
(0.00497901 20 0)
(0.00495559 20 0)
(0.00493217 20 0)
(0.00490874 20 0)
(0.00488532 20 0)
(0.00486191 20 0)
(0.00483849 20 0)
(0.00481507 20 0)
(0.00479166 20 0)
(0.00476825 20 0)
(0.00474484 20 0)
(0.00472143 20 0)
(0.00469803 20 0)
(0.00467463 20 0)
(0.00465123 20 0)
(0.00462783 20 0)
(0.00460443 20 0)
(0.00458104 20 0)
(0.00455765 20 0)
(0.00453427 20 0)
(0.00451089 20 0)
(0.00448751 20 0)
(0.00446413 20 0)
(0.00444077 20 0)
(0.0044174 20 0)
(0.00439404 20 0)
(0.00437069 20 0)
(0.00434735 20 0)
(0.00432401 20 0)
(0.00430067 20 0)
(0.00427735 20 0)
(0.00425403 20 0)
(0.00423073 20 0)
(0.00420743 20 0)
(0.00418415 20 0)
(0.00416088 20 0)
(0.00413763 20 0)
(0.0041144 20 0)
(0.00409118 20 0)
(0.00406799 20 0)
(0.00404483 20 0)
(0.0040217 20 0)
(0.0039986 20 0)
(0.00397556 20 0)
(0.00395257 20 0)
(0.00392966 20 0)
(0.00390685 20 0)
(0.00388418 20 0)
(0.00386169 20 0)
(0.00383946 20 0)
(0.00381991 20 0)
(0.00378925 20 0)
(0.00076909 20.0019 0)
(0.00111469 19.9965 0)
(0.000932701 20.003 0)
(0.00101191 19.9981 0)
(0.000986028 20.001 0)
(0.000989281 19.9998 0)
(0.000988148 20.0001 0)
(0.000987214 20.0001 0)
(0.000986293 20.0001 0)
(0.000985377 20.0001 0)
(0.000984463 20.0001 0)
(0.000983552 20.0001 0)
(0.000982641 20.0001 0)
(0.000981732 20.0001 0)
(0.000980823 20.0001 0)
(0.000979914 20.0001 0)
(0.000979005 20.0001 0)
(0.000978097 20.0001 0)
(0.000977188 20.0001 0)
(0.00097628 20.0001 0)
(0.000975372 20.0001 0)
(0.000974463 20.0001 0)
(0.000973555 20.0001 0)
(0.000972647 20.0001 0)
(0.000971739 20.0001 0)
(0.00097083 20.0001 0)
(0.000969922 20.0001 0)
(0.000969014 20.0001 0)
(0.000968106 20.0001 0)
(0.000967198 20.0001 0)
(0.00096629 20.0001 0)
(0.000965382 20.0001 0)
(0.000964474 20.0001 0)
(0.000963566 20.0001 0)
(0.000962658 20.0001 0)
(0.00096175 20.0001 0)
(0.000960842 20.0001 0)
(0.000959933 20.0001 0)
(0.000959025 20.0001 0)
(0.000958117 20.0001 0)
(0.000957209 20.0001 0)
(0.000956302 20.0001 0)
(0.000955394 20.0001 0)
(0.000954486 20.0001 0)
(0.000953578 20.0001 0)
(0.00095267 20.0001 0)
(0.000951762 20.0001 0)
(0.000950854 20.0001 0)
(0.000949946 20.0001 0)
(0.000949038 20.0001 0)
(0.00094813 20.0001 0)
(0.000947222 20.0001 0)
(0.000946314 20.0001 0)
(0.000945406 20.0001 0)
(0.000944499 20.0001 0)
(0.000943591 20.0001 0)
(0.000942683 20.0001 0)
(0.000941775 20.0001 0)
(0.000940868 20.0001 0)
(0.00093996 20.0001 0)
(0.000939052 20.0001 0)
(0.000938144 20.0001 0)
(0.000937237 20.0001 0)
(0.000936329 20.0001 0)
(0.000935421 20.0001 0)
(0.000934514 20.0001 0)
(0.000933606 20.0001 0)
(0.000932698 20.0001 0)
(0.000931791 20.0001 0)
(0.000930883 20.0001 0)
(0.000929975 20.0001 0)
(0.000929068 20.0001 0)
(0.00092816 20.0001 0)
(0.000927253 20.0001 0)
(0.000926345 20.0001 0)
(0.000925438 20.0001 0)
(0.00092453 20.0001 0)
(0.000923623 20.0001 0)
(0.000922716 20.0001 0)
(0.000921808 20.0001 0)
(0.000920901 20.0001 0)
(0.000919993 20.0001 0)
(0.000919086 20.0001 0)
(0.000918179 20.0001 0)
(0.000917271 20.0001 0)
(0.000916364 20.0001 0)
(0.000915457 20.0001 0)
(0.000914549 20.0001 0)
(0.000913642 20.0001 0)
(0.000912735 20.0001 0)
(0.000911827 20.0001 0)
(0.00091092 20.0001 0)
(0.000910013 20.0001 0)
(0.000909106 20.0001 0)
(0.000908198 20.0001 0)
(0.000907291 20.0001 0)
(0.000906384 20.0001 0)
(0.000905477 20.0001 0)
(0.00090457 20.0001 0)
(0.000903663 20.0001 0)
(0.000902756 20.0001 0)
(0.000901849 20.0001 0)
(0.000900942 20.0001 0)
(0.000900035 20.0001 0)
(0.000899128 20.0001 0)
(0.00089822 20.0001 0)
(0.000897313 20.0001 0)
(0.000896406 20.0001 0)
(0.000895499 20.0001 0)
(0.000894592 20.0001 0)
(0.000893686 20.0001 0)
(0.000892779 20.0001 0)
(0.000891872 20.0001 0)
(0.000890965 20.0001 0)
(0.000890058 20.0001 0)
(0.000889151 20.0001 0)
(0.000888244 20.0001 0)
(0.000887337 20.0001 0)
(0.000886431 20.0001 0)
(0.000885524 20.0001 0)
(0.000884617 20.0001 0)
(0.00088371 20.0001 0)
(0.000882804 20.0001 0)
(0.000881897 20.0001 0)
(0.00088099 20.0001 0)
(0.000880083 20.0001 0)
(0.000879177 20.0001 0)
(0.00087827 20.0001 0)
(0.000877363 20.0001 0)
(0.000876457 20.0001 0)
(0.00087555 20.0001 0)
(0.000874643 20.0001 0)
(0.000873737 20.0001 0)
(0.00087283 20.0001 0)
(0.000871924 20.0001 0)
(0.000871017 20.0001 0)
(0.000870111 20.0001 0)
(0.000869204 20.0001 0)
(0.000868298 20.0001 0)
(0.000867391 20.0001 0)
(0.000866485 20.0001 0)
(0.000865578 20.0001 0)
(0.000864672 20.0001 0)
(0.000863765 20.0001 0)
(0.000862859 20.0001 0)
(0.000861953 20.0001 0)
(0.000861046 20.0001 0)
(0.00086014 20.0001 0)
(0.000859233 20.0001 0)
(0.000858327 20.0001 0)
(0.000857421 20.0001 0)
(0.000856515 20.0001 0)
(0.000855608 20.0001 0)
(0.000854702 20.0001 0)
(0.000853796 20.0001 0)
(0.000852889 20.0001 0)
(0.000851983 20.0001 0)
(0.000851077 20.0001 0)
(0.000850171 20.0001 0)
(0.000849264 20.0001 0)
(0.000848358 20.0001 0)
(0.000847452 20.0001 0)
(0.000846546 20.0001 0)
(0.00084564 20.0001 0)
(0.000844734 20.0001 0)
(0.000843828 20.0001 0)
(0.000842922 20.0001 0)
(0.000842016 20.0001 0)
(0.00084111 20.0001 0)
(0.000840204 20.0001 0)
(0.000839298 20.0001 0)
(0.000838392 20.0001 0)
(0.000837486 20.0001 0)
(0.00083658 20.0001 0)
(0.000835674 20.0001 0)
(0.000834768 20.0001 0)
(0.000833862 20.0001 0)
(0.000832956 20.0001 0)
(0.00083205 20.0001 0)
(0.000831144 20.0001 0)
(0.000830238 20.0001 0)
(0.000829332 20.0001 0)
(0.000828426 20.0001 0)
(0.000827521 20.0001 0)
(0.000826615 20.0001 0)
(0.000825709 20.0001 0)
(0.000824803 20.0001 0)
(0.000823897 20.0001 0)
(0.000822992 20.0001 0)
(0.000822086 20.0001 0)
(0.00082118 20.0001 0)
(0.000820275 20.0001 0)
(0.000819369 20.0001 0)
(0.000818463 20.0001 0)
(0.000817558 20.0001 0)
(0.000816652 20.0001 0)
(0.000815746 20.0001 0)
(0.000814841 20.0001 0)
(0.000813935 20.0001 0)
(0.000813029 20.0001 0)
(0.000812124 20.0001 0)
(0.000811218 20.0001 0)
(0.000810313 20.0001 0)
(0.000809407 20.0001 0)
(0.000808502 20.0001 0)
(0.000807596 20.0001 0)
(0.000806691 20.0001 0)
(0.000805785 20.0001 0)
(0.00080488 20.0001 0)
(0.000803974 20.0001 0)
(0.000803069 20.0001 0)
(0.000802163 20.0001 0)
(0.000801258 20.0001 0)
(0.000800353 20.0001 0)
(0.000799447 20.0001 0)
(0.000798542 20.0001 0)
(0.000797637 20.0001 0)
(0.000796731 20.0001 0)
(0.000795826 20.0001 0)
(0.000794921 20.0001 0)
(0.000794015 20.0001 0)
(0.00079311 20.0001 0)
(0.000792205 20.0001 0)
(0.0007913 20.0001 0)
(0.000790394 20.0001 0)
(0.000789489 20.0001 0)
(0.000788584 20.0001 0)
(0.000787679 20.0001 0)
(0.000786774 20.0001 0)
(0.000785868 20.0001 0)
(0.000784963 20.0001 0)
(0.000784058 20.0001 0)
(0.000783153 20.0001 0)
(0.000782248 20.0001 0)
(0.000781343 20.0001 0)
(0.000780438 20.0001 0)
(0.000779533 20.0001 0)
(0.000778628 20.0001 0)
(0.000777723 20.0001 0)
(0.000776818 20.0001 0)
(0.000775913 20.0001 0)
(0.000775008 20.0001 0)
(0.000774103 20.0001 0)
(0.000773198 20.0001 0)
(0.000772293 20.0001 0)
(0.000771388 20.0001 0)
(0.000770483 20.0001 0)
(0.000769578 20.0001 0)
(0.000768673 20.0001 0)
(0.000767768 20.0001 0)
(0.000766863 20.0001 0)
(0.000765959 20.0001 0)
(0.000765054 20.0001 0)
(0.000764149 20.0001 0)
(0.000763244 20.0001 0)
(0.000762339 20.0001 0)
(0.000761435 20.0001 0)
(0.00076053 20.0001 0)
(0.000759625 20.0001 0)
(0.00075872 20.0001 0)
(0.000757816 20.0001 0)
(0.000756911 20.0001 0)
(0.000756006 20.0001 0)
(0.000755102 20.0001 0)
(0.000754197 20.0001 0)
(0.000753292 20.0001 0)
(0.000752388 20.0001 0)
(0.000751483 20.0001 0)
(0.000750579 20.0001 0)
(0.000749674 20.0001 0)
(0.000748769 20.0001 0)
(0.000747865 20.0001 0)
(0.00074696 20.0001 0)
(0.000746056 20.0001 0)
(0.000745151 20.0001 0)
(0.000744246 20.0001 0)
(0.000743342 20.0001 0)
(0.000742438 20.0001 0)
(0.000741533 20.0001 0)
(0.000740629 20.0001 0)
(0.000739724 20.0001 0)
(0.00073882 20.0001 0)
(0.000737915 20.0001 0)
(0.000737011 20.0001 0)
(0.000736107 20.0001 0)
(0.000735202 20.0001 0)
(0.000734298 20.0001 0)
(0.000733394 20.0001 0)
(0.000732489 20.0001 0)
(0.000731585 20.0001 0)
(0.000730681 20.0001 0)
(0.000729776 20.0001 0)
(0.000728872 20.0001 0)
(0.000727968 20.0001 0)
(0.000727064 20.0001 0)
(0.000726159 20.0001 0)
(0.000725255 20.0001 0)
(0.000724351 20.0001 0)
(0.000723447 20.0001 0)
(0.000722542 20.0001 0)
(0.000721638 20.0001 0)
(0.000720734 20.0001 0)
(0.00071983 20.0001 0)
(0.000718926 20.0001 0)
(0.000718022 20.0001 0)
(0.000717118 20.0001 0)
(0.000716214 20.0001 0)
(0.000715309 20.0001 0)
(0.000714405 20.0001 0)
(0.000713501 20.0001 0)
(0.000712597 20.0001 0)
(0.000711693 20.0001 0)
(0.000710789 20.0001 0)
(0.000709885 20.0001 0)
(0.000708981 20.0001 0)
(0.000708077 20.0001 0)
(0.000707173 20.0001 0)
(0.00070627 20.0001 0)
(0.000705366 20.0001 0)
(0.000704462 20.0001 0)
(0.000703558 20.0001 0)
(0.000702654 20.0001 0)
(0.00070175 20.0001 0)
(0.000700846 20.0001 0)
(0.000699942 20.0001 0)
(0.000699038 20.0001 0)
(0.000698134 20.0001 0)
(0.000697231 20.0001 0)
(0.000696327 20.0001 0)
(0.000695423 20.0001 0)
(0.000694519 20.0001 0)
(0.000693616 20.0001 0)
(0.000692712 20.0001 0)
(0.000691808 20.0001 0)
(0.000690904 20.0001 0)
(0.000690001 20.0001 0)
(0.000689097 20.0001 0)
(0.000688193 20.0001 0)
(0.00068729 20.0001 0)
(0.000686386 20.0001 0)
(0.000685482 20.0001 0)
(0.000684579 20.0001 0)
(0.000683675 20.0001 0)
(0.000682772 20.0001 0)
(0.000681868 20.0001 0)
(0.000680964 20.0001 0)
(0.000680061 20.0001 0)
(0.000679157 20.0001 0)
(0.000678254 20.0001 0)
(0.00067735 20.0001 0)
(0.000676447 20.0001 0)
(0.000675543 20.0001 0)
(0.00067464 20.0001 0)
(0.000673736 20.0001 0)
(0.000672833 20.0001 0)
(0.000671929 20.0001 0)
(0.000671026 20.0001 0)
(0.000670122 20.0001 0)
(0.000669219 20.0001 0)
(0.000668316 20.0001 0)
(0.000667412 20.0001 0)
(0.000666509 20.0001 0)
(0.000665606 20.0001 0)
(0.000664702 20.0001 0)
(0.000663799 20.0001 0)
(0.000662896 20.0001 0)
(0.000661992 20.0001 0)
(0.000661089 20.0001 0)
(0.000660186 20.0001 0)
(0.000659282 20.0001 0)
(0.000658379 20.0001 0)
(0.000657476 20.0001 0)
(0.000656573 20.0001 0)
(0.000655669 20.0001 0)
(0.000654766 20.0001 0)
(0.000653863 20.0001 0)
(0.00065296 20.0001 0)
(0.000652057 20.0001 0)
(0.000651154 20.0001 0)
(0.00065025 20.0001 0)
(0.000649347 20.0001 0)
(0.000648444 20.0001 0)
(0.000647541 20.0001 0)
(0.000646638 20.0001 0)
(0.000645735 20.0001 0)
(0.000644832 20.0001 0)
(0.000643929 20.0001 0)
(0.000643026 20.0001 0)
(0.000642123 20.0001 0)
(0.00064122 20.0001 0)
(0.000640317 20.0001 0)
(0.000639414 20.0001 0)
(0.000638511 20.0001 0)
(0.000637608 20.0001 0)
(0.000636705 20.0001 0)
(0.000635802 20.0001 0)
(0.000634899 20.0001 0)
(0.000633996 20.0001 0)
(0.000633093 20.0001 0)
(0.00063219 20.0001 0)
(0.000631287 20.0001 0)
(0.000630384 20.0001 0)
(0.000629481 20.0001 0)
(0.000628579 20.0001 0)
(0.000627676 20.0001 0)
(0.000626773 20.0001 0)
(0.00062587 20.0001 0)
(0.000624967 20.0001 0)
(0.000624065 20.0001 0)
(0.000623162 20.0001 0)
(0.000622259 20.0001 0)
(0.000621356 20.0001 0)
(0.000620454 20.0001 0)
(0.000619551 20.0001 0)
(0.000618648 20.0001 0)
(0.000617746 20.0001 0)
(0.000616843 20.0001 0)
(0.00061594 20.0001 0)
(0.000615037 20.0001 0)
(0.000614135 20.0001 0)
(0.000613232 20.0001 0)
(0.000612329 20.0001 0)
(0.000611427 20.0001 0)
(0.000610524 20.0001 0)
(0.000609622 20.0001 0)
(0.000608719 20.0001 0)
(0.000607816 20.0001 0)
(0.000606914 20.0001 0)
(0.000606011 20.0001 0)
(0.000605109 20.0001 0)
(0.000604206 20.0001 0)
(0.000603304 20.0001 0)
(0.000602401 20.0001 0)
(0.000601499 20.0001 0)
(0.000600596 20.0001 0)
(0.000599694 20.0001 0)
(0.000598792 20.0001 0)
(0.000597889 20.0001 0)
(0.000596987 20.0001 0)
(0.000596084 20.0001 0)
(0.000595182 20.0001 0)
(0.00059428 20.0001 0)
(0.000593377 20.0001 0)
(0.000592475 20.0001 0)
(0.000591572 20.0001 0)
(0.00059067 20.0001 0)
(0.000589768 20.0001 0)
(0.000588865 20.0001 0)
(0.000587963 20.0001 0)
(0.000587061 20.0001 0)
(0.000586158 20.0001 0)
(0.000585256 20.0001 0)
(0.000584354 20.0001 0)
(0.000583452 20.0001 0)
(0.000582549 20.0001 0)
(0.000581647 20.0001 0)
(0.000580745 20.0001 0)
(0.000579843 20.0001 0)
(0.000578941 20.0001 0)
(0.000578039 20.0001 0)
(0.000577136 20.0001 0)
(0.000576234 20.0001 0)
(0.000575332 20.0001 0)
(0.00057443 20.0001 0)
(0.000573528 20.0001 0)
(0.000572626 20.0001 0)
(0.000571724 20.0001 0)
(0.000570822 20.0001 0)
(0.00056992 20.0001 0)
(0.000569018 20.0001 0)
(0.000568116 20.0001 0)
(0.000567214 20.0001 0)
(0.000566312 20.0001 0)
(0.00056541 20.0001 0)
(0.000564508 20.0001 0)
(0.000563606 20.0001 0)
(0.000562704 20.0001 0)
(0.000561802 20.0001 0)
(0.0005609 20.0001 0)
(0.000559998 20.0001 0)
(0.000559096 20.0001 0)
(0.000558194 20.0001 0)
(0.000557292 20.0001 0)
(0.00055639 20.0001 0)
(0.000555488 20.0001 0)
(0.000554586 20.0001 0)
(0.000553684 20.0001 0)
(0.000552782 20.0001 0)
(0.00055188 20.0001 0)
(0.000550979 20.0001 0)
(0.000550077 20.0001 0)
(0.000549175 20.0001 0)
(0.000548273 20.0001 0)
(0.000547371 20.0001 0)
(0.000546469 20.0001 0)
(0.000545567 20.0001 0)
(0.000544666 20.0001 0)