/*--------------------------------*- C++ -*----------------------------------*\
| =========                 |                                                 |
| \\      /  F ield         | OpenFOAM: The Open Source CFD Toolbox           |
|  \\    /   O peration     | Version:  2512                                  |
|   \\  /    A nd           | Website:  www.openfoam.com                      |
|    \\/     M anipulation  |                                                 |
\*---------------------------------------------------------------------------*/
FoamFile
{
    version     2.0;
    format      ascii;
    arch        "LSB;label=32;scalar=64";
    class       volScalarField;
    location    "3e-05";
    object      p;
}
// * * * * * * * * * * * * * * * * * * * * * * * * * * * * * * * * * * * * * //

dimensions      [1 -1 -2 0 0 0 0];

internalField   nonuniform List<scalar> 
100000
(
0
15116.6
-13019.7
5119.18
-19276.3
-22734.7
-35008.3
-48975
-64982.8
-83031.9
-103122
-125254
-149426
-175639
-203893
-234188
-266522
-300897
-337311
-375764
-416256
-458786
-503355
-549961
-598604
-649284
-702000
-756752
-813539
-872360
-933215
-996104
-1.06103e+06
-1.12798e+06
-1.19696e+06
-1.26798e+06
-1.34103e+06
-1.4161e+06
-1.4932e+06
-1.57233e+06
-1.65349e+06
-1.73668e+06
-1.82189e+06
-1.90912e+06
-1.99838e+06
-2.08966e+06
-2.18296e+06
-2.27828e+06
-2.37563e+06
-2.47499e+06
-2.57637e+06
-2.67977e+06
-2.78518e+06
-2.89261e+06
-3.00205e+06
-3.1135e+06
-3.22697e+06
-3.34244e+06
-3.45993e+06
-3.57942e+06
-3.70092e+06
-3.82442e+06
-3.94993e+06
-4.07745e+06
-4.20696e+06
-4.33848e+06
-4.47199e+06
-4.6075e+06
-4.74501e+06
-4.88452e+06
-5.02602e+06
-5.16951e+06
-5.31499e+06
-5.46246e+06
-5.61192e+06
-5.76336e+06
-5.91679e+06
-6.0722e+06
-6.2296e+06
-6.38898e+06
-6.55033e+06
-6.71366e+06
-6.87897e+06
-7.04625e+06
-7.2155e+06
-7.38672e+06
-7.55992e+06
-7.73507e+06
-7.9122e+06
-8.09128e+06
-8.27233e+06
-8.45534e+06
-8.64031e+06
-8.82723e+06
-9.01611e+06
-9.20694e+06
-9.39972e+06
-9.59444e+06
-9.79112e+06
-9.98974e+06
-1.01903e+07
-1.03928e+07
-1.05972e+07
-1.08036e+07
-1.10119e+07
-1.12222e+07
-1.14343e+07
-1.16484e+07
-1.18645e+07
-1.20824e+07
-1.23023e+07
-1.25241e+07
-1.27478e+07
-1.29734e+07
-1.3201e+07
-1.34304e+07
-1.36618e+07
-1.3895e+07
-1.41302e+07
-1.43673e+07
-1.46062e+07
-1.48471e+07
-1.50898e+07
-1.53345e+07
-1.5581e+07
-1.58294e+07
-1.60797e+07
-1.63319e+07
-1.6586e+07
-1.68419e+07
-1.70998e+07
-1.73594e+07
-1.7621e+07
-1.78844e+07
-1.81497e+07
-1.84168e+07
-1.86859e+07
-1.89567e+07
-1.92294e+07
-1.9504e+07
-1.97804e+07
-2.00586e+07
-2.03387e+07
-2.06207e+07
-2.09044e+07
-2.119e+07
-2.14775e+07
-2.17667e+07
-2.20578e+07
-2.23507e+07
-2.26454e+07
-2.2942e+07
-2.32403e+07
-2.35405e+07
-2.38425e+07
-2.41462e+07
-2.44518e+07
-2.47592e+07
-2.50683e+07
-2.53793e+07
-2.5692e+07
-2.60065e+07
-2.63229e+07
-2.66409e+07
-2.69608e+07
-2.72824e+07
-2.76058e+07
-2.7931e+07
-2.82579e+07
-2.85866e+07
-2.89171e+07
-2.92493e+07
-2.95832e+07
-2.99189e+07
-3.02564e+07
-3.05955e+07
-3.09364e+07
-3.12791e+07
-3.16235e+07
-3.19696e+07
-3.23174e+07
-3.26669e+07
-3.30182e+07
-3.33711e+07
-3.37258e+07
-3.40822e+07
-3.44403e+07
-3.48e+07
-3.51615e+07
-3.55246e+07
-3.58895e+07
-3.6256e+07
-3.66242e+07
-3.69941e+07
-3.73656e+07
-3.77389e+07
-3.81137e+07
-3.84903e+07
-3.88685e+07
-3.92483e+07
-3.96298e+07
-4.0013e+07
-4.03978e+07
-4.07842e+07
-4.11722e+07
-4.15619e+07
-4.19532e+07
-4.23462e+07
-4.27407e+07
-4.31369e+07
-4.35346e+07
-4.3934e+07
-4.4335e+07
-4.47376e+07
-4.51417e+07
-4.55475e+07
-4.59548e+07
-4.63638e+07
-4.67743e+07
-4.71863e+07
-4.76e+07
-4.80152e+07
-4.8432e+07
-4.88503e+07
-4.92702e+07
-4.96916e+07
-5.01146e+07
-5.05391e+07
-5.09651e+07
-5.13927e+07
-5.18218e+07
-5.22524e+07
-5.26846e+07
-5.31182e+07
-5.35534e+07
-5.399e+07
-5.44282e+07
-5.48679e+07
-5.5309e+07
-5.57517e+07
-5.61958e+07
-5.66414e+07
-5.70885e+07
-5.7537e+07
-5.7987e+07
-5.84385e+07
-5.88914e+07
-5.93458e+07
-5.98016e+07
-6.02589e+07
-6.07176e+07
-6.11777e+07
-6.16393e+07
-6.21022e+07
-6.25666e+07
-6.30325e+07
-6.34997e+07
-6.39683e+07
-6.44383e+07
-6.49098e+07
-6.53826e+07
-6.58568e+07
-6.63324e+07
-6.68093e+07
-6.72876e+07
-6.77673e+07
-6.82484e+07
-6.87308e+07
-6.92146e+07
-6.96997e+07
-7.01861e+07
-7.06739e+07
-7.1163e+07
-7.16535e+07
-7.21453e+07
-7.26384e+07
-7.31328e+07
-7.36285e+07
-7.41255e+07
-7.46238e+07
-7.51234e+07
-7.56243e+07
-7.61264e+07
-7.66299e+07
-7.71346e+07
-7.76406e+07
-7.81478e+07
-7.86563e+07
-7.91661e+07
-7.96771e+07
-8.01893e+07
-8.07028e+07
-8.12175e+07
-8.17334e+07
-8.22506e+07
-8.2769e+07
-8.32885e+07
-8.38093e+07
-8.43313e+07
-8.48545e+07
-8.53789e+07
-8.59044e+07
-8.64311e+07
-8.6959e+07
-8.74881e+07
-8.80183e+07
-8.85497e+07
-8.90823e+07
-8.9616e+07
-9.01508e+07
-9.06867e+07
-9.12238e+07
-9.17621e+07
-9.23014e+07
-9.28418e+07
-9.33834e+07
-9.39261e+07
-9.44698e+07
-9.50147e+07
-9.55606e+07
-9.61076e+07
-9.66557e+07
-9.72049e+07
-9.77551e+07
-9.83064e+07
-9.88587e+07
-9.94121e+07
-9.99665e+07
-1.00522e+08
-1.01078e+08
-1.01636e+08
-1.02195e+08
-1.02754e+08
-1.03315e+08
-1.03876e+08
-1.04439e+08
-1.05002e+08
-1.05567e+08
-1.06132e+08
-1.06699e+08
-1.07266e+08
-1.07835e+08
-1.08404e+08
-1.08974e+08
-1.09546e+08
-1.10118e+08
-1.10691e+08
-1.11265e+08
-1.1184e+08
-1.12416e+08
-1.12993e+08
-1.1357e+08
-1.14149e+08
-1.14729e+08
-1.15309e+08
-1.1589e+08
-1.16472e+08
-1.17055e+08
-1.17639e+08
-1.18224e+08
-1.1881e+08
-1.19396e+08
-1.19983e+08
-1.20572e+08
-1.2116e+08
-1.2175e+08
-1.22341e+08
-1.22932e+08
-1.23524e+08
-1.24117e+08
-1.24711e+08
-1.25306e+08
-1.25901e+08
-1.26497e+08
-1.27094e+08
-1.27692e+08
-1.2829e+08
-1.28889e+08
-1.29489e+08
-1.3009e+08
-1.30691e+08
-1.31293e+08
-1.31896e+08
-1.32499e+08
-1.33104e+08
-1.33709e+08
-1.34314e+08
-1.3492e+08
-1.35527e+08
-1.36135e+08
-1.36743e+08
-1.37352e+08
-1.37962e+08
-1.38572e+08
-1.39183e+08
-1.39795e+08
-1.40407e+08
-1.4102e+08
-1.41633e+08
-1.42247e+08
-1.42862e+08
-1.43477e+08
-1.44093e+08
-1.4471e+08
-1.45327e+08
-1.45944e+08
-1.46563e+08
-1.47181e+08
-1.47801e+08
-1.48421e+08
-1.49041e+08
-1.49662e+08
-1.50283e+08
-1.50905e+08
-1.51528e+08
-1.52151e+08
-1.52774e+08
-1.53398e+08
-1.54023e+08
-1.54648e+08
-1.55274e+08
-1.55899e+08
-1.56526e+08
-1.57153e+08
-1.5778e+08
-1.58408e+08
-1.59036e+08
-1.59665e+08
-1.60294e+08
-1.60924e+08
-1.61554e+08
-1.62184e+08
-1.62815e+08
-1.63446e+08
-1.64077e+08
-1.64709e+08
-1.65342e+08
-1.65974e+08
-1.66607e+08
-1.67241e+08
-1.67875e+08
-1.68509e+08
-1.69143e+08
-1.69778e+08
-1.70413e+08
-1.71049e+08
-1.71684e+08
-1.7232e+08
-1.72957e+08
-1.73593e+08
-1.7423e+08
-1.74868e+08
-1.75505e+08
-1.76143e+08
-1.76781e+08
-1.77419e+08
-1.78058e+08
-1.78696e+08
-1.79335e+08
-1.79975e+08
-1.80614e+08
-1.81254e+08
-1.81894e+08
-1.82534e+08
-1.83174e+08
-1.83815e+08
-1.84455e+08
-1.85096e+08
-1.85737e+08
-1.86378e+08
-1.8702e+08
-1.87661e+08
-1.88303e+08
-1.88944e+08
-1.89586e+08
-1.90228e+08
-1.9087e+08
-1.91513e+08
-1.92155e+08
-1.92798e+08
-1.9344e+08
-1.94083e+08
-1.94725e+08
-1.95368e+08
-1.96011e+08
-1.96654e+08
-1.97297e+08
-1.9794e+08
-1.98583e+08
-1.99226e+08
-1.99869e+08
-2.00512e+08
-2.01155e+08
-2.01798e+08
-2.02441e+08
-2.03085e+08
-2.03728e+08
-2.04371e+08
-2.05014e+08
-2.05657e+08
-2.063e+08
-2.06943e+08
-2.07586e+08
-2.08228e+08
-2.08871e+08
-2.09514e+08
-2.10156e+08
-2.10799e+08
-2.11441e+08
-2.12084e+08
-2.12726e+08
-2.13368e+08
-2.1401e+08
-2.14652e+08
-2.15294e+08
-2.15935e+08
-2.16577e+08
-2.17218e+08
-2.17859e+08
-2.185e+08
-2.19141e+08
-2.19781e+08
-2.20422e+08
-2.21062e+08
-2.21702e+08
-2.22342e+08
-2.22981e+08
-2.23621e+08
-2.2426e+08
-2.24899e+08
-2.25538e+08
-2.26176e+08
-2.26814e+08
-2.27452e+08
-2.2809e+08
-2.28727e+08
-2.29364e+08
-2.30001e+08
-2.30638e+08
-2.31274e+08
-2.3191e+08
-2.32546e+08
-2.33181e+08
-2.33816e+08
-2.34451e+08
-2.35085e+08
-2.35719e+08
-2.36353e+08
-2.36986e+08
-2.37619e+08
-2.38251e+08
-2.38884e+08
-2.39515e+08
-2.40147e+08
-2.40778e+08
-2.41408e+08
-2.42039e+08
-2.42668e+08
-2.43298e+08
-2.43927e+08
-2.44555e+08
-2.45183e+08
-2.45811e+08
-2.46438e+08
-2.47065e+08
-2.47691e+08
-2.48317e+08
-2.48942e+08
-2.49567e+08
-2.50191e+08
-2.50815e+08
-2.51438e+08
-2.52061e+08
-2.52683e+08
-2.53305e+08
-2.53926e+08
-2.54547e+08
-2.55167e+08
-2.55786e+08
-2.56405e+08
-2.57024e+08
-2.57642e+08
-2.58259e+08
-2.58876e+08
-2.59492e+08
-2.60107e+08
-2.60722e+08
-2.61337e+08
-2.6195e+08
-2.62563e+08
-2.63176e+08
-2.63788e+08
-2.64399e+08
-2.65009e+08
-2.65619e+08
-2.66228e+08
-2.66837e+08
-2.67445e+08
-2.68052e+08
-2.68659e+08
-2.69264e+08
-2.6987e+08
-2.70474e+08
-2.71078e+08
-2.71681e+08
-2.72283e+08
-2.72885e+08
-2.73485e+08
-2.74085e+08
-2.74685e+08
-2.75283e+08
-2.75881e+08
-2.76478e+08
-2.77074e+08
-2.7767e+08
-2.78265e+08
-2.78859e+08
-2.79452e+08
-2.80044e+08
-2.80636e+08
-2.81226e+08
-2.81816e+08
-2.82405e+08
-2.82993e+08
-2.83581e+08
-2.84167e+08
-2.84753e+08
-2.85338e+08
-2.85922e+08
-2.86505e+08
-2.87087e+08
-2.87668e+08
-2.88249e+08
-2.88828e+08
-2.89407e+08
-2.89985e+08
-2.90561e+08
-2.91137e+08
-2.91712e+08
-2.92286e+08
-2.92859e+08
-2.93431e+08
-2.94003e+08
-2.94573e+08
-2.95142e+08
-2.9571e+08
-2.96278e+08
-2.96844e+08
-2.9741e+08
-2.97974e+08
-2.98537e+08
-2.991e+08
-2.99661e+08
-3.00221e+08
-3.00781e+08
-3.01339e+08
-3.01896e+08
-3.02453e+08
-3.03008e+08
-3.03562e+08
-3.04115e+08
-3.04667e+08
-3.05218e+08
-3.05768e+08
-3.06317e+08
-3.06864e+08
-3.07411e+08
-3.07957e+08
-3.08501e+08
-3.09044e+08
-3.09587e+08
-3.10128e+08
-3.10668e+08
-3.11206e+08
-3.11744e+08
-3.12281e+08
-3.12816e+08
-3.1335e+08
-3.13884e+08
-3.14415e+08
-3.14946e+08
-3.15476e+08
-3.16004e+08
-3.16531e+08
-3.17057e+08
-3.17582e+08
-3.18106e+08
-3.18628e+08
-3.1915e+08
-3.19669e+08
-3.20188e+08
-3.20706e+08
-3.21222e+08
-3.21737e+08
-3.22251e+08
-3.22763e+08
-3.23275e+08
-3.23785e+08
-3.24293e+08
-3.24801e+08
-3.25307e+08
-3.25812e+08
-3.26316e+08
-3.26818e+08
-3.27319e+08
-3.27819e+08
-3.28317e+08
-3.28814e+08
-3.2931e+08
-3.29804e+08
-3.30297e+08
-3.30789e+08
-3.3128e+08
-3.31769e+08
-3.32256e+08
-3.32743e+08
-3.33228e+08
-3.33711e+08
-3.34194e+08
-3.34674e+08
-3.35154e+08
-3.35632e+08
-3.36109e+08
-3.36584e+08
-3.37058e+08
-3.3753e+08
-3.38001e+08
-3.38471e+08
-3.38939e+08
-3.39406e+08
-3.39871e+08
-3.40335e+08
-3.40798e+08
-3.41259e+08
-3.41718e+08
-3.42176e+08
-3.42633e+08
-3.43088e+08
-3.43542e+08
-3.43994e+08
-3.44445e+08
-3.44894e+08
-3.45341e+08
-3.45788e+08
-3.46232e+08
-3.46676e+08
-3.47117e+08
-3.47557e+08
-3.47996e+08
-3.48433e+08
-3.48869e+08
-3.49303e+08
-3.49735e+08
-3.50166e+08
-3.50596e+08
-3.51024e+08
-3.5145e+08
-3.51875e+08
-3.52298e+08
-3.52719e+08
-3.53139e+08
-3.53558e+08
-3.53974e+08
-3.5439e+08
-3.54803e+08
-3.55215e+08
-3.55626e+08
-3.56035e+08
-3.56442e+08
-3.56847e+08
-3.57251e+08
-3.57654e+08
-3.58054e+08
-3.58453e+08
-3.58851e+08
-3.59246e+08
-3.59641e+08
-3.60033e+08
-3.60424e+08
-3.60813e+08
-3.612e+08
-3.61586e+08
-3.6197e+08
-3.62353e+08
-3.62733e+08
-3.63112e+08
-3.6349e+08
-3.63866e+08
-3.64239e+08
-3.64612e+08
-3.64982e+08
-3.65351e+08
-3.65718e+08
-3.66084e+08
-3.66447e+08
-3.66809e+08
-3.67169e+08
-3.67528e+08
-3.67885e+08
-3.6824e+08
-3.68593e+08
-3.68944e+08
-3.69294e+08
-3.69642e+08
-3.69988e+08
-3.70333e+08
-3.70675e+08
-3.71016e+08
-3.71355e+08
-3.71693e+08
-3.72028e+08
-3.72362e+08
-3.72694e+08
-3.73024e+08
-3.73352e+08
-3.73679e+08
-3.74003e+08
-3.74326e+08
-3.74647e+08
-3.74967e+08
-3.75284e+08
-3.756e+08
-3.75913e+08
-3.76225e+08
-3.76535e+08
-3.76844e+08
-3.7715e+08
-3.77455e+08
-3.77757e+08
-3.78058e+08
-3.78357e+08
-3.78654e+08
-3.7895e+08
-3.79243e+08
-3.79535e+08
-3.79824e+08
-3.80112e+08
-3.80398e+08
-3.80682e+08
-3.80964e+08
-3.81244e+08
-3.81522e+08
-3.81799e+08
-3.82073e+08
-3.82346e+08
-3.82617e+08
-3.82885e+08
-3.83152e+08
-3.83417e+08
-3.8368e+08
-3.83941e+08
-3.84201e+08
-3.84458e+08
-3.84713e+08
-3.84967e+08
-3.85218e+08
-3.85467e+08
-3.85715e+08
-3.85961e+08
-3.86204e+08
-3.86446e+08
-3.86686e+08
-3.86924e+08
-3.87159e+08
-3.87393e+08
-3.87625e+08
-3.87855e+08
-3.88083e+08
-3.88309e+08
-3.88533e+08
-3.88755e+08
-3.88975e+08
-3.89193e+08
-3.89409e+08
-3.89623e+08
-3.89835e+08
-3.90045e+08
-3.90253e+08
-3.90459e+08
-3.90664e+08
-3.90866e+08
-3.91066e+08
-3.91264e+08
-3.9146e+08
-3.91654e+08
-3.91846e+08
-3.92036e+08
-3.92224e+08
-3.9241e+08
-3.92593e+08
-3.92775e+08
-3.92955e+08
-3.93133e+08
-3.93309e+08
-3.93482e+08
-3.93654e+08
-3.93824e+08
-3.93991e+08
-3.94157e+08
-3.9432e+08
-3.94482e+08
-3.94641e+08
-3.94799e+08
-3.94954e+08
-3.95107e+08
-3.95258e+08
-3.95407e+08
-3.95554e+08
-3.95699e+08
-3.95842e+08
-3.95983e+08
-3.96122e+08
-3.96258e+08
-3.96393e+08
-3.96525e+08
-3.96656e+08
-3.96784e+08
-3.9691e+08
-3.97035e+08
-3.97157e+08
-3.97277e+08
-3.97395e+08
-3.9751e+08
-3.97624e+08
-3.97736e+08
-3.97845e+08
-3.97953e+08
-3.98058e+08
-3.98161e+08
-3.98262e+08
-3.98361e+08
-3.98458e+08
-3.98553e+08
-3.98646e+08
-3.98736e+08
-3.98825e+08
-3.98911e+08
-3.98995e+08
-3.99078e+08
-3.99158e+08
-3.99235e+08
-3.99311e+08
-3.99385e+08
-3.99456e+08
-3.99526e+08
-3.99593e+08
-3.99658e+08
-3.99721e+08
-3.99782e+08
-3.99841e+08
-3.99898e+08
-3.99952e+08
-4.00004e+08
-4.00055e+08
-4.00103e+08
-4.00149e+08
-4.00193e+08
-4.00234e+08
-4.00274e+08
-4.00311e+08
-4.00347e+08
-4.0038e+08
-4.00411e+08
-4.0044e+08
-4.00466e+08
-4.00491e+08
-4.00513e+08
-4.00534e+08
-4.00552e+08
-4.00568e+08
-4.00582e+08
-4.00593e+08
-4.00603e+08
-4.0061e+08
-4.00616e+08
-4.00619e+08
-4.0062e+08
-4.00619e+08
-4.00615e+08
-4.0061e+08
-4.00602e+08
-4.00592e+08
-4.00581e+08
-4.00567e+08
-4.0055e+08
-4.00532e+08
-4.00511e+08
-4.00489e+08
-4.00464e+08
-4.00437e+08
-4.00408e+08
-4.00377e+08
-4.00343e+08
-4.00308e+08
-4.0027e+08
-4.0023e+08
-4.00188e+08
-4.00144e+08
-4.00098e+08
-4.0005e+08
1442.93
16156.8
-12114.2
6001.82
-18420.3
-21888.4
-34165.9
-48134.7
-64143.9
-82193.9
-102285
-124417
-148590
-174804
-203058
-233353
-265687
-300062
-336476
-374930
-415422
-457953
-502522
-549128
-597772
-648452
-701168
-755920
-812707
-871529
-932385
-995274
-1.0602e+06
-1.12715e+06
-1.19613e+06
-1.26715e+06
-1.3402e+06
-1.41527e+06
-1.49238e+06
-1.57151e+06
-1.65267e+06
-1.73585e+06
-1.82106e+06
-1.9083e+06
-1.99755e+06
-2.08883e+06
-2.18214e+06
-2.27746e+06
-2.3748e+06
-2.47417e+06
-2.57555e+06
-2.67894e+06
-2.78436e+06
-2.89178e+06
-3.00123e+06
-3.11268e+06
-3.22615e+06
-3.34162e+06
-3.45911e+06
-3.5786e+06
-3.7001e+06
-3.82361e+06
-3.94912e+06
-4.07663e+06
-4.20615e+06
-4.33766e+06
-4.47118e+06
-4.60669e+06
-4.7442e+06
-4.88371e+06
-5.02521e+06
-5.1687e+06
-5.31418e+06
-5.46165e+06
-5.61111e+06
-5.76256e+06
-5.91599e+06
-6.0714e+06
-6.2288e+06
-6.38817e+06
-6.54953e+06
-6.71286e+06
-6.87817e+06
-7.04545e+06
-7.2147e+06
-7.38593e+06
-7.55912e+06
-7.73428e+06
-7.9114e+06
-8.09049e+06
-8.27154e+06
-8.45455e+06
-8.63952e+06
-8.82644e+06
-9.01532e+06
-9.20615e+06
-9.39893e+06
-9.59366e+06
-9.79033e+06
-9.98895e+06
-1.01895e+07
-1.0392e+07
-1.05965e+07
-1.08028e+07
-1.10111e+07
-1.12214e+07
-1.14336e+07
-1.16477e+07
-1.18637e+07
-1.20817e+07
-1.23015e+07
-1.25233e+07
-1.2747e+07
-1.29727e+07
-1.32002e+07
-1.34296e+07
-1.3661e+07
-1.38943e+07
-1.41294e+07
-1.43665e+07
-1.46055e+07
-1.48463e+07
-1.50891e+07
-1.53337e+07
-1.55803e+07
-1.58287e+07
-1.6079e+07
-1.63312e+07
-1.65852e+07
-1.68412e+07
-1.7099e+07
-1.73587e+07
-1.76202e+07
-1.78837e+07
-1.8149e+07
-1.84161e+07
-1.86851e+07
-1.8956e+07
-1.92287e+07
-1.95032e+07
-1.97797e+07
-2.00579e+07
-2.0338e+07
-2.06199e+07
-2.09037e+07
-2.11893e+07
-2.14767e+07
-2.1766e+07
-2.20571e+07
-2.235e+07
-2.26447e+07
-2.29413e+07
-2.32396e+07
-2.35398e+07
-2.38417e+07
-2.41455e+07
-2.44511e+07
-2.47584e+07
-2.50676e+07
-2.53786e+07
-2.56913e+07
-2.60058e+07
-2.63221e+07
-2.66402e+07
-2.69601e+07
-2.72817e+07
-2.76051e+07
-2.79303e+07
-2.82572e+07
-2.85859e+07
-2.89164e+07
-2.92486e+07
-2.95825e+07
-2.99182e+07
-3.02557e+07
-3.05948e+07
-3.09358e+07
-3.12784e+07
-3.16228e+07
-3.19689e+07
-3.23167e+07
-3.26662e+07
-3.30175e+07
-3.33705e+07
-3.37251e+07
-3.40815e+07
-3.44396e+07
-3.47994e+07
-3.51608e+07
-3.5524e+07
-3.58888e+07
-3.62554e+07
-3.66236e+07
-3.69934e+07
-3.7365e+07
-3.77382e+07
-3.81131e+07
-3.84896e+07
-3.88678e+07
-3.92477e+07
-3.96292e+07
-4.00123e+07
-4.03971e+07
-4.07835e+07
-4.11716e+07
-4.15613e+07
-4.19526e+07
-4.23455e+07
-4.27401e+07
-4.31362e+07
-4.3534e+07
-4.39334e+07
-4.43344e+07
-4.4737e+07
-4.51411e+07
-4.55469e+07
-4.59542e+07
-4.63632e+07
-4.67737e+07
-4.71857e+07
-4.75994e+07
-4.80146e+07
-4.84314e+07
-4.88497e+07
-4.92696e+07
-4.9691e+07
-5.0114e+07
-5.05385e+07
-5.09645e+07
-5.13921e+07
-5.18212e+07
-5.22518e+07
-5.2684e+07
-5.31176e+07
-5.35528e+07
-5.39894e+07
-5.44276e+07
-5.48673e+07
-5.53084e+07
-5.57511e+07
-5.61952e+07
-5.66408e+07
-5.70879e+07
-5.75364e+07
-5.79864e+07
-5.84379e+07
-5.88908e+07
-5.93452e+07
-5.9801e+07
-6.02583e+07
-6.0717e+07
-6.11771e+07
-6.16387e+07
-6.21017e+07
-6.25661e+07
-6.30319e+07
-6.34991e+07
-6.39678e+07
-6.44378e+07
-6.49092e+07
-6.5382e+07
-6.58562e+07
-6.63318e+07
-6.68088e+07
-6.72871e+07
-6.77668e+07
-6.82479e+07
-6.87303e+07
-6.92141e+07
-6.96992e+07
-7.01856e+07
-7.06734e+07
-7.11625e+07
-7.1653e+07
-7.21448e+07
-7.26378e+07
-7.31322e+07
-7.3628e+07
-7.4125e+07
-7.46233e+07
-7.51229e+07
-7.56238e+07
-7.61259e+07
-7.66294e+07
-7.71341e+07
-7.76401e+07
-7.81473e+07
-7.86558e+07
-7.91656e+07
-7.96766e+07
-8.01888e+07
-8.07023e+07
-8.1217e+07
-8.1733e+07
-8.22501e+07
-8.27685e+07
-8.32881e+07
-8.38089e+07
-8.43308e+07
-8.4854e+07
-8.53784e+07
-8.5904e+07
-8.64307e+07
-8.69586e+07
-8.74877e+07
-8.80179e+07
-8.85493e+07
-8.90818e+07
-8.96155e+07
-9.01503e+07
-9.06863e+07
-9.12234e+07
-9.17616e+07
-9.2301e+07
-9.28414e+07
-9.3383e+07
-9.39256e+07
-9.44694e+07
-9.50142e+07
-9.55602e+07
-9.61072e+07
-9.66553e+07
-9.72045e+07
-9.77547e+07
-9.8306e+07
-9.88583e+07
-9.94117e+07
-9.99661e+07
-1.00522e+08
-1.01078e+08
-1.01636e+08
-1.02194e+08
-1.02754e+08
-1.03314e+08
-1.03876e+08
-1.04438e+08
-1.05002e+08
-1.05566e+08
-1.06132e+08
-1.06698e+08
-1.07266e+08
-1.07834e+08
-1.08404e+08
-1.08974e+08
-1.09545e+08
-1.10117e+08
-1.10691e+08
-1.11265e+08
-1.1184e+08
-1.12416e+08
-1.12992e+08
-1.1357e+08
-1.14149e+08
-1.14728e+08
-1.15309e+08
-1.1589e+08
-1.16472e+08
-1.17055e+08
-1.17639e+08
-1.18224e+08
-1.18809e+08
-1.19396e+08
-1.19983e+08
-1.20571e+08
-1.2116e+08
-1.2175e+08
-1.2234e+08
-1.22932e+08
-1.23524e+08
-1.24117e+08
-1.24711e+08
-1.25305e+08
-1.25901e+08
-1.26497e+08
-1.27094e+08
-1.27691e+08
-1.2829e+08
-1.28889e+08
-1.29489e+08
-1.30089e+08
-1.30691e+08
-1.31293e+08
-1.31896e+08
-1.32499e+08
-1.33103e+08
-1.33708e+08
-1.34314e+08
-1.3492e+08
-1.35527e+08
-1.36135e+08
-1.36743e+08
-1.37352e+08
-1.37962e+08
-1.38572e+08
-1.39183e+08
-1.39795e+08
-1.40407e+08
-1.4102e+08
-1.41633e+08
-1.42247e+08
-1.42862e+08
-1.43477e+08
-1.44093e+08
-1.4471e+08
-1.45327e+08
-1.45944e+08
-1.46562e+08
-1.47181e+08
-1.478e+08
-1.4842e+08
-1.49041e+08
-1.49662e+08
-1.50283e+08
-1.50905e+08
-1.51528e+08
-1.52151e+08
-1.52774e+08
-1.53398e+08
-1.54023e+08
-1.54648e+08
-1.55273e+08
-1.55899e+08
-1.56526e+08
-1.57153e+08
-1.5778e+08
-1.58408e+08
-1.59036e+08
-1.59665e+08
-1.60294e+08
-1.60923e+08
-1.61553e+08
-1.62184e+08
-1.62815e+08
-1.63446e+08
-1.64077e+08
-1.64709e+08
-1.65342e+08
-1.65974e+08
-1.66607e+08
-1.67241e+08
-1.67874e+08
-1.68509e+08
-1.69143e+08
-1.69778e+08
-1.70413e+08
-1.71048e+08
-1.71684e+08
-1.7232e+08
-1.72957e+08
-1.73593e+08
-1.7423e+08
-1.74867e+08
-1.75505e+08
-1.76143e+08
-1.76781e+08
-1.77419e+08
-1.78058e+08
-1.78696e+08
-1.79335e+08
-1.79975e+08
-1.80614e+08
-1.81254e+08
-1.81894e+08
-1.82534e+08
-1.83174e+08
-1.83814e+08
-1.84455e+08
-1.85096e+08
-1.85737e+08
-1.86378e+08
-1.87019e+08
-1.87661e+08
-1.88303e+08
-1.88944e+08
-1.89586e+08
-1.90228e+08
-1.9087e+08
-1.91513e+08
-1.92155e+08
-1.92797e+08
-1.9344e+08
-1.94083e+08
-1.94725e+08
-1.95368e+08
-1.96011e+08
-1.96654e+08
-1.97297e+08
-1.9794e+08
-1.98583e+08
-1.99226e+08
-1.99869e+08
-2.00512e+08
-2.01155e+08
-2.01798e+08
-2.02441e+08
-2.03085e+08
-2.03728e+08
-2.04371e+08
-2.05014e+08
-2.05657e+08
-2.063e+08
-2.06943e+08
-2.07586e+08
-2.08228e+08
-2.08871e+08
-2.09514e+08
-2.10156e+08
-2.10799e+08
-2.11441e+08
-2.12084e+08
-2.12726e+08
-2.13368e+08
-2.1401e+08
-2.14652e+08
-2.15294e+08
-2.15935e+08
-2.16577e+08
-2.17218e+08
-2.17859e+08
-2.185e+08
-2.19141e+08
-2.19781e+08
-2.20422e+08
-2.21062e+08
-2.21702e+08
-2.22342e+08
-2.22981e+08
-2.23621e+08
-2.2426e+08
-2.24899e+08
-2.25538e+08
-2.26176e+08
-2.26814e+08
-2.27452e+08
-2.2809e+08
-2.28727e+08
-2.29364e+08
-2.30001e+08
-2.30638e+08
-2.31274e+08
-2.3191e+08
-2.32546e+08
-2.33181e+08
-2.33816e+08
-2.34451e+08
-2.35085e+08
-2.35719e+08
-2.36353e+08
-2.36986e+08
-2.37619e+08
-2.38251e+08
-2.38884e+08
-2.39515e+08
-2.40147e+08
-2.40778e+08
-2.41408e+08
-2.42039e+08
-2.42668e+08
-2.43298e+08
-2.43927e+08
-2.44555e+08
-2.45183e+08
-2.45811e+08
-2.46438e+08
-2.47065e+08
-2.47691e+08
-2.48317e+08
-2.48942e+08
-2.49567e+08
-2.50191e+08
-2.50815e+08
-2.51438e+08
-2.52061e+08
-2.52683e+08
-2.53305e+08
-2.53926e+08
-2.54547e+08
-2.55167e+08
-2.55786e+08
-2.56405e+08
-2.57024e+08
-2.57642e+08
-2.58259e+08
-2.58876e+08
-2.59492e+08
-2.60107e+08
-2.60722e+08
-2.61337e+08
-2.6195e+08
-2.62564e+08
-2.63176e+08
-2.63788e+08
-2.64399e+08
-2.6501e+08
-2.65619e+08
-2.66229e+08
-2.66837e+08
-2.67445e+08
-2.68052e+08
-2.68659e+08
-2.69265e+08
-2.6987e+08
-2.70474e+08
-2.71078e+08
-2.71681e+08
-2.72283e+08
-2.72885e+08
-2.73486e+08
-2.74086e+08
-2.74685e+08
-2.75284e+08
-2.75881e+08
-2.76478e+08
-2.77075e+08
-2.7767e+08
-2.78265e+08
-2.78859e+08
-2.79452e+08
-2.80044e+08
-2.80636e+08
-2.81226e+08
-2.81816e+08
-2.82405e+08
-2.82994e+08
-2.83581e+08
-2.84167e+08
-2.84753e+08
-2.85338e+08
-2.85922e+08
-2.86505e+08
-2.87087e+08
-2.87668e+08
-2.88249e+08
-2.88828e+08
-2.89407e+08
-2.89985e+08
-2.90562e+08
-2.91137e+08
-2.91712e+08
-2.92286e+08
-2.9286e+08
-2.93432e+08
-2.94003e+08
-2.94573e+08
-2.95142e+08
-2.95711e+08
-2.96278e+08
-2.96844e+08
-2.9741e+08
-2.97974e+08
-2.98538e+08
-2.991e+08
-2.99661e+08
-3.00222e+08
-3.00781e+08
-3.01339e+08
-3.01897e+08
-3.02453e+08
-3.03008e+08
-3.03562e+08
-3.04115e+08
-3.04667e+08
-3.05218e+08
-3.05768e+08
-3.06317e+08
-3.06865e+08
-3.07411e+08
-3.07957e+08
-3.08501e+08
-3.09045e+08
-3.09587e+08
-3.10128e+08
-3.10668e+08
-3.11207e+08
-3.11745e+08
-3.12281e+08
-3.12816e+08
-3.13351e+08
-3.13884e+08
-3.14416e+08
-3.14947e+08
-3.15476e+08
-3.16005e+08
-3.16532e+08
-3.17058e+08
-3.17583e+08
-3.18106e+08
-3.18629e+08
-3.1915e+08
-3.1967e+08
-3.20189e+08
-3.20706e+08
-3.21222e+08
-3.21737e+08
-3.22251e+08
-3.22764e+08
-3.23275e+08
-3.23785e+08
-3.24294e+08
-3.24801e+08
-3.25308e+08
-3.25812e+08
-3.26316e+08
-3.26818e+08
-3.27319e+08
-3.27819e+08
-3.28317e+08
-3.28815e+08
-3.2931e+08
-3.29805e+08
-3.30298e+08
-3.3079e+08
-3.3128e+08
-3.31769e+08
-3.32257e+08
-3.32743e+08
-3.33228e+08
-3.33712e+08
-3.34194e+08
-3.34675e+08
-3.35154e+08
-3.35632e+08
-3.36109e+08
-3.36584e+08
-3.37058e+08
-3.37531e+08
-3.38002e+08
-3.38471e+08
-3.3894e+08
-3.39406e+08
-3.39872e+08
-3.40336e+08
-3.40798e+08
-3.41259e+08
-3.41719e+08
-3.42177e+08
-3.42633e+08
-3.43088e+08
-3.43542e+08
-3.43994e+08
-3.44445e+08
-3.44894e+08
-3.45342e+08
-3.45788e+08
-3.46233e+08
-3.46676e+08
-3.47118e+08
-3.47558e+08
-3.47997e+08
-3.48434e+08
-3.48869e+08
-3.49303e+08
-3.49736e+08
-3.50167e+08
-3.50596e+08
-3.51024e+08
-3.5145e+08
-3.51875e+08
-3.52298e+08
-3.5272e+08
-3.5314e+08
-3.53558e+08
-3.53975e+08
-3.5439e+08
-3.54804e+08
-3.55216e+08
-3.55626e+08
-3.56035e+08
-3.56442e+08
-3.56848e+08
-3.57252e+08
-3.57654e+08
-3.58055e+08
-3.58454e+08
-3.58851e+08
-3.59247e+08
-3.59641e+08
-3.60034e+08
-3.60424e+08
-3.60813e+08
-3.61201e+08
-3.61587e+08
-3.61971e+08
-3.62353e+08
-3.62734e+08
-3.63113e+08
-3.6349e+08
-3.63866e+08
-3.6424e+08
-3.64612e+08
-3.64983e+08
-3.65352e+08
-3.65719e+08
-3.66084e+08
-3.66448e+08
-3.6681e+08
-3.6717e+08
-3.67528e+08
-3.67885e+08
-3.6824e+08
-3.68593e+08
-3.68945e+08
-3.69295e+08
-3.69643e+08
-3.69989e+08
-3.70333e+08
-3.70676e+08
-3.71017e+08
-3.71356e+08
-3.71693e+08
-3.72029e+08
-3.72362e+08
-3.72694e+08
-3.73024e+08
-3.73353e+08
-3.73679e+08
-3.74004e+08
-3.74327e+08
-3.74648e+08
-3.74967e+08
-3.75285e+08
-3.756e+08
-3.75914e+08
-3.76226e+08
-3.76536e+08
-3.76844e+08
-3.77151e+08
-3.77455e+08
-3.77758e+08
-3.78059e+08
-3.78358e+08
-3.78655e+08
-3.7895e+08
-3.79244e+08
-3.79535e+08
-3.79825e+08
-3.80113e+08
-3.80398e+08
-3.80682e+08
-3.80965e+08
-3.81245e+08
-3.81523e+08
-3.81799e+08
-3.82074e+08
-3.82347e+08
-3.82617e+08
-3.82886e+08
-3.83153e+08
-3.83418e+08
-3.83681e+08
-3.83942e+08
-3.84201e+08
-3.84458e+08
-3.84714e+08
-3.84967e+08
-3.85219e+08
-3.85468e+08
-3.85716e+08
-3.85961e+08
-3.86205e+08
-3.86447e+08
-3.86686e+08
-3.86924e+08
-3.8716e+08
-3.87394e+08
-3.87626e+08
-3.87856e+08
-3.88084e+08
-3.8831e+08
-3.88534e+08
-3.88756e+08
-3.88976e+08
-3.89194e+08
-3.8941e+08
-3.89624e+08
-3.89836e+08
-3.90046e+08
-3.90254e+08
-3.9046e+08
-3.90664e+08
-3.90866e+08
-3.91066e+08
-3.91264e+08
-3.9146e+08
-3.91654e+08
-3.91846e+08
-3.92036e+08
-3.92224e+08
-3.9241e+08
-3.92594e+08
-3.92776e+08
-3.92956e+08
-3.93134e+08
-3.93309e+08
-3.93483e+08
-3.93655e+08
-3.93824e+08
-3.93992e+08
-3.94158e+08
-3.94321e+08
-3.94482e+08
-3.94642e+08
-3.94799e+08
-3.94954e+08
-3.95108e+08
-3.95259e+08
-3.95408e+08
-3.95555e+08
-3.957e+08
-3.95843e+08
-3.95984e+08
-3.96122e+08
-3.96259e+08
-3.96394e+08
-3.96526e+08
-3.96656e+08
-3.96785e+08
-3.96911e+08
-3.97035e+08
-3.97157e+08
-3.97277e+08
-3.97395e+08
-3.97511e+08
-3.97625e+08
-3.97736e+08
-3.97846e+08
-3.97953e+08
-3.98059e+08
-3.98162e+08
-3.98263e+08
-3.98362e+08
-3.98459e+08
-3.98554e+08
-3.98646e+08
-3.98737e+08
-3.98825e+08
-3.98912e+08
-3.98996e+08
-3.99078e+08
-3.99158e+08
-3.99236e+08
-3.99312e+08
-3.99385e+08
-3.99457e+08
-3.99526e+08
-3.99594e+08
-3.99659e+08
-3.99722e+08
-3.99783e+08
-3.99842e+08
-3.99898e+08
-3.99953e+08
-4.00005e+08
-4.00055e+08
-4.00103e+08
-4.00149e+08
-4.00193e+08
-4.00235e+08
-4.00275e+08
-4.00312e+08
-4.00347e+08
-4.0038e+08
-4.00411e+08
-4.0044e+08
-4.00467e+08
-4.00492e+08
-4.00514e+08
-4.00534e+08
-4.00553e+08
-4.00569e+08
-4.00582e+08
-4.00594e+08
-4.00604e+08
-4.00611e+08
-4.00616e+08
-4.0062e+08
-4.00621e+08
-4.00619e+08
-4.00616e+08
-4.00611e+08
-4.00603e+08
-4.00593e+08
-4.00581e+08
-4.00567e+08
-4.00551e+08
-4.00533e+08
-4.00512e+08
-4.00489e+08
-4.00465e+08
-4.00438e+08
-4.00409e+08
-4.00377e+08
-4.00344e+08
-4.00308e+08
-4.00271e+08
-4.00231e+08
-4.00189e+08
-4.00145e+08
-4.00099e+08
-4.00051e+08
1577.77
16354.1
-11807.3
6338.18
-18057.1
-21517.6
-33791.1
-47757.8
-63765.7
-81814.8
-101905
-124037
-148209
-174423
-202677
-232971
-265306
-299681
-336095
-374548
-415041
-457571
-502140
-548747
-597390
-648070
-700787
-755539
-812326
-871148
-932004
-994893
-1.05981e+06
-1.12677e+06
-1.19575e+06
-1.26677e+06
-1.33982e+06
-1.41489e+06
-1.492e+06
-1.57113e+06
-1.65229e+06
-1.73547e+06
-1.82068e+06
-1.90792e+06
-1.99717e+06
-2.08846e+06
-2.18176e+06
-2.27708e+06
-2.37443e+06
-2.47379e+06
-2.57517e+06
-2.67857e+06
-2.78398e+06
-2.89141e+06
-3.00085e+06
-3.1123e+06
-3.22577e+06
-3.34125e+06
-3.45873e+06
-3.57822e+06
-3.69973e+06
-3.82323e+06
-3.94874e+06
-4.07626e+06
-4.20577e+06
-4.33729e+06
-4.4708e+06
-4.60632e+06
-4.74383e+06
-4.88333e+06
-5.02483e+06
-5.16832e+06
-5.3138e+06
-5.46128e+06
-5.61074e+06
-5.76218e+06
-5.91561e+06
-6.07103e+06
-6.22842e+06
-6.3878e+06
-6.54915e+06
-6.71249e+06
-6.87779e+06
-7.04508e+06
-7.21433e+06
-7.38555e+06
-7.55875e+06
-7.73391e+06
-7.91103e+06
-8.09012e+06
-8.27117e+06
-8.45418e+06
-8.63915e+06
-8.82607e+06
-9.01495e+06
-9.20578e+06
-9.39856e+06
-9.59329e+06
-9.78996e+06
-9.98858e+06
-1.01891e+07
-1.03917e+07
-1.05961e+07
-1.08025e+07
-1.10108e+07
-1.1221e+07
-1.14332e+07
-1.16473e+07
-1.18633e+07
-1.20813e+07
-1.23012e+07
-1.2523e+07
-1.27467e+07
-1.29723e+07
-1.31998e+07
-1.34293e+07
-1.36606e+07
-1.38939e+07
-1.41291e+07
-1.43661e+07
-1.46051e+07
-1.4846e+07
-1.50887e+07
-1.53334e+07
-1.55799e+07
-1.58283e+07
-1.60786e+07
-1.63308e+07
-1.65849e+07
-1.68408e+07
-1.70986e+07
-1.73583e+07
-1.76199e+07
-1.78833e+07
-1.81486e+07
-1.84157e+07
-1.86848e+07
-1.89556e+07
-1.92283e+07
-1.95029e+07
-1.97793e+07
-2.00576e+07
-2.03376e+07
-2.06196e+07
-2.09034e+07
-2.1189e+07
-2.14764e+07
-2.17656e+07
-2.20567e+07
-2.23496e+07
-2.26444e+07
-2.29409e+07
-2.32393e+07
-2.35394e+07
-2.38414e+07
-2.41452e+07
-2.44507e+07
-2.47581e+07
-2.50673e+07
-2.53782e+07
-2.5691e+07
-2.60055e+07
-2.63218e+07
-2.66399e+07
-2.69598e+07
-2.72814e+07
-2.76048e+07
-2.793e+07
-2.82569e+07
-2.85856e+07
-2.8916e+07
-2.92482e+07
-2.95822e+07
-2.99179e+07
-3.02553e+07
-3.05945e+07
-3.09354e+07
-3.12781e+07
-3.16224e+07
-3.19685e+07
-3.23164e+07
-3.26659e+07
-3.30172e+07
-3.33701e+07
-3.37248e+07
-3.40812e+07
-3.44393e+07
-3.4799e+07
-3.51605e+07
-3.55237e+07
-3.58885e+07
-3.6255e+07
-3.66232e+07
-3.69931e+07
-3.73647e+07
-3.77379e+07
-3.81128e+07
-3.84893e+07
-3.88675e+07
-3.92474e+07
-3.96289e+07
-4.0012e+07
-4.03968e+07
-4.07832e+07
-4.11713e+07
-4.1561e+07
-4.19523e+07
-4.23452e+07
-4.27398e+07
-4.31359e+07
-4.35337e+07
-4.39331e+07
-4.43341e+07
-4.47366e+07
-4.51408e+07
-4.55466e+07
-4.59539e+07
-4.63628e+07
-4.67733e+07
-4.71854e+07
-4.75991e+07
-4.80143e+07
-4.84311e+07
-4.88494e+07
-4.92693e+07
-4.96907e+07
-5.01137e+07
-5.05382e+07
-5.09642e+07
-5.13918e+07
-5.18209e+07
-5.22515e+07
-5.26837e+07
-5.31173e+07
-5.35525e+07
-5.39891e+07
-5.44273e+07
-5.4867e+07
-5.53081e+07
-5.57508e+07
-5.61949e+07
-5.66405e+07
-5.70876e+07
-5.75361e+07
-5.79862e+07
-5.84376e+07
-5.88906e+07
-5.93449e+07
-5.98008e+07
-6.0258e+07
-6.07167e+07
-6.11769e+07
-6.16384e+07
-6.21014e+07
-6.25658e+07
-6.30316e+07
-6.34989e+07
-6.39675e+07
-6.44375e+07
-6.49089e+07
-6.53818e+07
-6.5856e+07
-6.63316e+07
-6.68085e+07
-6.72868e+07
-6.77665e+07
-6.82476e+07
-6.873e+07
-6.92138e+07
-6.96989e+07
-7.01853e+07
-7.06731e+07
-7.11623e+07
-7.16527e+07
-7.21445e+07
-7.26376e+07
-7.3132e+07
-7.36277e+07
-7.41247e+07
-7.4623e+07
-7.51226e+07
-7.56235e+07
-7.61257e+07
-7.66291e+07
-7.71338e+07
-7.76398e+07
-7.81471e+07
-7.86556e+07
-7.91653e+07
-7.96763e+07
-8.01886e+07
-8.07021e+07