/*--------------------------------*- C++ -*----------------------------------*\
| =========                 |                                                 |
| \\      /  F ield         | OpenFOAM: The Open Source CFD Toolbox           |
|  \\    /   O peration     | Version:  2512                                  |
|   \\  /    A nd           | Website:  www.openfoam.com                      |
|    \\/     M anipulation  |                                                 |
\*---------------------------------------------------------------------------*/
FoamFile
{
    version     2.0;
    format      ascii;
    arch        "LSB;label=32;scalar=64";
    class       volScalarField;
    location    "3e-05";
    object      p_rgh;
}
// * * * * * * * * * * * * * * * * * * * * * * * * * * * * * * * * * * * * * //

dimensions      [1 -1 -2 0 0 0 0];

internalField   nonuniform List<scalar> 
100000
(
-1.53136e+10
-1.53136e+10
-1.53136e+10
-1.53136e+10
-1.53136e+10
-1.53136e+10
-1.53136e+10
-1.53136e+10
-1.53137e+10
-1.53137e+10
-1.53137e+10
-1.53137e+10
-1.53138e+10
-1.53138e+10
-1.53138e+10
-1.53138e+10
-1.53139e+10
-1.53139e+10
-1.53139e+10
-1.5314e+10
-1.5314e+10
-1.53141e+10
-1.53141e+10
-1.53142e+10
-1.53142e+10
-1.53142e+10
-1.53143e+10
-1.53144e+10
-1.53144e+10
-1.53145e+10
-1.53145e+10
-1.53146e+10
-1.53147e+10
-1.53147e+10
-1.53148e+10
-1.53149e+10
-1.53149e+10
-1.5315e+10
-1.53151e+10
-1.53152e+10
-1.53153e+10
-1.53153e+10
-1.53154e+10
-1.53155e+10
-1.53156e+10
-1.53157e+10
-1.53158e+10
-1.53159e+10
-1.5316e+10
-1.53161e+10
-1.53162e+10
-1.53163e+10
-1.53164e+10
-1.53165e+10
-1.53166e+10
-1.53167e+10
-1.53168e+10
-1.53169e+10
-1.53171e+10
-1.53172e+10
-1.53173e+10
-1.53174e+10
-1.53176e+10
-1.53177e+10
-1.53178e+10
-1.53179e+10
-1.53181e+10
-1.53182e+10
-1.53183e+10
-1.53185e+10
-1.53186e+10
-1.53188e+10
-1.53189e+10
-1.53191e+10
-1.53192e+10
-1.53194e+10
-1.53195e+10
-1.53197e+10
-1.53198e+10
-1.532e+10
-1.53202e+10
-1.53203e+10
-1.53205e+10
-1.53206e+10
-1.53208e+10
-1.5321e+10
-1.53212e+10
-1.53213e+10
-1.53215e+10
-1.53217e+10
-1.53219e+10
-1.53221e+10
-1.53222e+10
-1.53224e+10
-1.53226e+10
-1.53228e+10
-1.5323e+10
-1.53232e+10
-1.53234e+10
-1.53236e+10
-1.53238e+10
-1.5324e+10
-1.53242e+10
-1.53244e+10
-1.53246e+10
-1.53248e+10
-1.5325e+10
-1.53252e+10
-1.53255e+10
-1.53257e+10
-1.53259e+10
-1.53261e+10
-1.53263e+10
-1.53266e+10
-1.53268e+10
-1.5327e+10
-1.53273e+10
-1.53275e+10
-1.53277e+10
-1.5328e+10
-1.53282e+10
-1.53284e+10
-1.53287e+10
-1.53289e+10
-1.53292e+10
-1.53294e+10
-1.53297e+10
-1.53299e+10
-1.53302e+10
-1.53304e+10
-1.53307e+10
-1.5331e+10
-1.53312e+10
-1.53315e+10
-1.53318e+10
-1.5332e+10
-1.53323e+10
-1.53326e+10
-1.53328e+10
-1.53331e+10
-1.53334e+10
-1.53337e+10
-1.53339e+10
-1.53342e+10
-1.53345e+10
-1.53348e+10
-1.53351e+10
-1.53354e+10
-1.53357e+10
-1.5336e+10
-1.53362e+10
-1.53365e+10
-1.53368e+10
-1.53371e+10
-1.53374e+10
-1.53377e+10
-1.53381e+10
-1.53384e+10
-1.53387e+10
-1.5339e+10
-1.53393e+10
-1.53396e+10
-1.53399e+10
-1.53402e+10
-1.53406e+10
-1.53409e+10
-1.53412e+10
-1.53415e+10
-1.53419e+10
-1.53422e+10
-1.53425e+10
-1.53428e+10
-1.53432e+10
-1.53435e+10
-1.53439e+10
-1.53442e+10
-1.53445e+10
-1.53449e+10
-1.53452e+10
-1.53456e+10
-1.53459e+10
-1.53463e+10
-1.53466e+10
-1.5347e+10
-1.53473e+10
-1.53477e+10
-1.5348e+10
-1.53484e+10
-1.53488e+10
-1.53491e+10
-1.53495e+10
-1.53499e+10
-1.53502e+10
-1.53506e+10
-1.5351e+10
-1.53513e+10
-1.53517e+10
-1.53521e+10
-1.53525e+10
-1.53528e+10
-1.53532e+10
-1.53536e+10
-1.5354e+10
-1.53544e+10
-1.53548e+10
-1.53552e+10
-1.53556e+10
-1.53559e+10
-1.53563e+10
-1.53567e+10
-1.53571e+10
-1.53575e+10
-1.53579e+10
-1.53583e+10
-1.53587e+10
-1.53591e+10
-1.53596e+10
-1.536e+10
-1.53604e+10
-1.53608e+10
-1.53612e+10
-1.53616e+10
-1.5362e+10
-1.53625e+10
-1.53629e+10
-1.53633e+10
-1.53637e+10
-1.53641e+10
-1.53646e+10
-1.5365e+10
-1.53654e+10
-1.53659e+10
-1.53663e+10
-1.53667e+10
-1.53672e+10
-1.53676e+10
-1.5368e+10
-1.53685e+10
-1.53689e+10
-1.53694e+10
-1.53698e+10
-1.53702e+10
-1.53707e+10
-1.53711e+10
-1.53716e+10
-1.5372e+10
-1.53725e+10
-1.53729e+10
-1.53734e+10
-1.53739e+10
-1.53743e+10
-1.53748e+10
-1.53752e+10
-1.53757e+10
-1.53762e+10
-1.53766e+10
-1.53771e+10
-1.53776e+10
-1.5378e+10
-1.53785e+10
-1.5379e+10
-1.53795e+10
-1.53799e+10
-1.53804e+10
-1.53809e+10
-1.53814e+10
-1.53818e+10
-1.53823e+10
-1.53828e+10
-1.53833e+10
-1.53838e+10
-1.53843e+10
-1.53848e+10
-1.53853e+10
-1.53857e+10
-1.53862e+10
-1.53867e+10
-1.53872e+10
-1.53877e+10
-1.53882e+10
-1.53887e+10
-1.53892e+10
-1.53897e+10
-1.53902e+10
-1.53907e+10
-1.53912e+10
-1.53917e+10
-1.53923e+10
-1.53928e+10
-1.53933e+10
-1.53938e+10
-1.53943e+10
-1.53948e+10
-1.53953e+10
-1.53959e+10
-1.53964e+10
-1.53969e+10
-1.53974e+10
-1.53979e+10
-1.53985e+10
-1.5399e+10
-1.53995e+10
-1.54e+10
-1.54006e+10
-1.54011e+10
-1.54016e+10
-1.54022e+10
-1.54027e+10
-1.54032e+10
-1.54038e+10
-1.54043e+10
-1.54048e+10
-1.54054e+10
-1.54059e+10
-1.54064e+10
-1.5407e+10
-1.54075e+10
-1.54081e+10
-1.54086e+10
-1.54092e+10
-1.54097e+10
-1.54103e+10
-1.54108e+10
-1.54114e+10
-1.54119e+10
-1.54125e+10
-1.5413e+10
-1.54136e+10
-1.54141e+10
-1.54147e+10
-1.54152e+10
-1.54158e+10
-1.54164e+10
-1.54169e+10
-1.54175e+10
-1.5418e+10
-1.54186e+10
-1.54192e+10
-1.54197e+10
-1.54203e+10
-1.54209e+10
-1.54214e+10
-1.5422e+10
-1.54226e+10
-1.54231e+10
-1.54237e+10
-1.54243e+10
-1.54249e+10
-1.54254e+10
-1.5426e+10
-1.54266e+10
-1.54272e+10
-1.54277e+10
-1.54283e+10
-1.54289e+10
-1.54295e+10
-1.54301e+10
-1.54307e+10
-1.54312e+10
-1.54318e+10
-1.54324e+10
-1.5433e+10
-1.54336e+10
-1.54342e+10
-1.54348e+10
-1.54354e+10
-1.54359e+10
-1.54365e+10
-1.54371e+10
-1.54377e+10
-1.54383e+10
-1.54389e+10
-1.54395e+10
-1.54401e+10
-1.54407e+10
-1.54413e+10
-1.54419e+10
-1.54425e+10
-1.54431e+10
-1.54437e+10
-1.54443e+10
-1.54449e+10
-1.54455e+10
-1.54461e+10
-1.54467e+10
-1.54473e+10
-1.54479e+10
-1.54485e+10
-1.54491e+10
-1.54497e+10
-1.54503e+10
-1.5451e+10
-1.54516e+10
-1.54522e+10
-1.54528e+10
-1.54534e+10
-1.5454e+10
-1.54546e+10
-1.54552e+10
-1.54558e+10
-1.54565e+10
-1.54571e+10
-1.54577e+10
-1.54583e+10
-1.54589e+10
-1.54595e+10
-1.54602e+10
-1.54608e+10
-1.54614e+10
-1.5462e+10
-1.54626e+10
-1.54633e+10
-1.54639e+10
-1.54645e+10
-1.54651e+10
-1.54658e+10
-1.54664e+10
-1.5467e+10
-1.54676e+10
-1.54682e+10
-1.54689e+10
-1.54695e+10
-1.54701e+10
-1.54708e+10
-1.54714e+10
-1.5472e+10
-1.54726e+10
-1.54733e+10
-1.54739e+10
-1.54745e+10
-1.54752e+10
-1.54758e+10
-1.54764e+10
-1.5477e+10
-1.54777e+10
-1.54783e+10
-1.54789e+10
-1.54796e+10
-1.54802e+10
-1.54808e+10
-1.54815e+10
-1.54821e+10
-1.54827e+10
-1.54834e+10
-1.5484e+10
-1.54846e+10
-1.54853e+10
-1.54859e+10
-1.54866e+10
-1.54872e+10
-1.54878e+10
-1.54885e+10
-1.54891e+10
-1.54897e+10
-1.54904e+10
-1.5491e+10
-1.54917e+10
-1.54923e+10
-1.54929e+10
-1.54936e+10
-1.54942e+10
-1.54949e+10
-1.54955e+10
-1.54961e+10
-1.54968e+10
-1.54974e+10
-1.54981e+10
-1.54987e+10
-1.54993e+10
-1.55e+10
-1.55006e+10
-1.55013e+10
-1.55019e+10
-1.55025e+10
-1.55032e+10
-1.55038e+10
-1.55045e+10
-1.55051e+10
-1.55058e+10
-1.55064e+10
-1.5507e+10
-1.55077e+10
-1.55083e+10
-1.5509e+10
-1.55096e+10
-1.55103e+10
-1.55109e+10
-1.55115e+10
-1.55122e+10
-1.55128e+10
-1.55135e+10
-1.55141e+10
-1.55148e+10
-1.55154e+10
-1.5516e+10
-1.55167e+10
-1.55173e+10
-1.5518e+10
-1.55186e+10
-1.55193e+10
-1.55199e+10
-1.55205e+10
-1.55212e+10
-1.55218e+10
-1.55225e+10
-1.55231e+10
-1.55238e+10
-1.55244e+10
-1.5525e+10
-1.55257e+10
-1.55263e+10
-1.5527e+10
-1.55276e+10
-1.55283e+10
-1.55289e+10
-1.55295e+10
-1.55302e+10
-1.55308e+10
-1.55315e+10
-1.55321e+10
-1.55327e+10
-1.55334e+10
-1.5534e+10
-1.55347e+10
-1.55353e+10
-1.55359e+10
-1.55366e+10
-1.55372e+10
-1.55379e+10
-1.55385e+10
-1.55391e+10
-1.55398e+10
-1.55404e+10
-1.55411e+10
-1.55417e+10
-1.55423e+10
-1.5543e+10
-1.55436e+10
-1.55442e+10
-1.55449e+10
-1.55455e+10
-1.55461e+10
-1.55468e+10
-1.55474e+10
-1.55481e+10
-1.55487e+10
-1.55493e+10
-1.555e+10
-1.55506e+10
-1.55512e+10
-1.55519e+10
-1.55525e+10
-1.55531e+10
-1.55537e+10
-1.55544e+10
-1.5555e+10
-1.55556e+10
-1.55563e+10
-1.55569e+10
-1.55575e+10
-1.55582e+10
-1.55588e+10
-1.55594e+10
-1.556e+10
-1.55607e+10
-1.55613e+10
-1.55619e+10
-1.55625e+10
-1.55632e+10
-1.55638e+10
-1.55644e+10
-1.5565e+10
-1.55657e+10
-1.55663e+10
-1.55669e+10
-1.55675e+10
-1.55681e+10
-1.55688e+10
-1.55694e+10
-1.557e+10
-1.55706e+10
-1.55712e+10
-1.55719e+10
-1.55725e+10
-1.55731e+10
-1.55737e+10
-1.55743e+10
-1.55749e+10
-1.55756e+10
-1.55762e+10
-1.55768e+10
-1.55774e+10
-1.5578e+10
-1.55786e+10
-1.55792e+10
-1.55798e+10
-1.55804e+10
-1.5581e+10
-1.55817e+10
-1.55823e+10
-1.55829e+10
-1.55835e+10
-1.55841e+10
-1.55847e+10
-1.55853e+10
-1.55859e+10
-1.55865e+10
-1.55871e+10
-1.55877e+10
-1.55883e+10
-1.55889e+10
-1.55895e+10
-1.55901e+10
-1.55907e+10
-1.55913e+10
-1.55919e+10
-1.55925e+10
-1.55931e+10
-1.55936e+10
-1.55942e+10
-1.55948e+10
-1.55954e+10
-1.5596e+10
-1.55966e+10
-1.55972e+10
-1.55978e+10
-1.55984e+10
-1.55989e+10
-1.55995e+10
-1.56001e+10
-1.56007e+10
-1.56013e+10
-1.56018e+10
-1.56024e+10
-1.5603e+10
-1.56036e+10
-1.56042e+10
-1.56047e+10
-1.56053e+10
-1.56059e+10
-1.56065e+10
-1.5607e+10
-1.56076e+10
-1.56082e+10
-1.56087e+10
-1.56093e+10
-1.56099e+10
-1.56104e+10
-1.5611e+10
-1.56116e+10
-1.56121e+10
-1.56127e+10
-1.56133e+10
-1.56138e+10
-1.56144e+10
-1.56149e+10
-1.56155e+10
-1.56161e+10
-1.56166e+10
-1.56172e+10
-1.56177e+10
-1.56183e+10
-1.56188e+10
-1.56194e+10
-1.56199e+10
-1.56205e+10
-1.5621e+10
-1.56216e+10
-1.56221e+10
-1.56226e+10
-1.56232e+10
-1.56237e+10
-1.56243e+10
-1.56248e+10
-1.56253e+10
-1.56259e+10
-1.56264e+10
-1.5627e+10
-1.56275e+10
-1.5628e+10
-1.56285e+10
-1.56291e+10
-1.56296e+10
-1.56301e+10
-1.56307e+10
-1.56312e+10
-1.56317e+10
-1.56322e+10
-1.56328e+10
-1.56333e+10
-1.56338e+10
-1.56343e+10
-1.56348e+10
-1.56353e+10
-1.56359e+10
-1.56364e+10
-1.56369e+10
-1.56374e+10
-1.56379e+10
-1.56384e+10
-1.56389e+10
-1.56394e+10
-1.56399e+10
-1.56404e+10
-1.56409e+10
-1.56414e+10
-1.56419e+10
-1.56424e+10
-1.56429e+10
-1.56434e+10
-1.56439e+10
-1.56444e+10
-1.56449e+10
-1.56454e+10
-1.56459e+10
-1.56463e+10
-1.56468e+10
-1.56473e+10
-1.56478e+10
-1.56483e+10
-1.56488e+10
-1.56492e+10
-1.56497e+10
-1.56502e+10
-1.56507e+10
-1.56511e+10
-1.56516e+10
-1.56521e+10
-1.56525e+10
-1.5653e+10
-1.56535e+10
-1.56539e+10
-1.56544e+10
-1.56549e+10
-1.56553e+10
-1.56558e+10
-1.56562e+10
-1.56567e+10
-1.56571e+10
-1.56576e+10
-1.5658e+10
-1.56585e+10
-1.56589e+10
-1.56594e+10
-1.56598e+10
-1.56603e+10
-1.56607e+10
-1.56612e+10
-1.56616e+10
-1.5662e+10
-1.56625e+10
-1.56629e+10
-1.56633e+10
-1.56638e+10
-1.56642e+10
-1.56646e+10
-1.56651e+10
-1.56655e+10
-1.56659e+10
-1.56663e+10
-1.56667e+10
-1.56672e+10
-1.56676e+10
-1.5668e+10
-1.56684e+10
-1.56688e+10
-1.56692e+10
-1.56696e+10
-1.567e+10
-1.56704e+10
-1.56709e+10
-1.56713e+10
-1.56717e+10
-1.56721e+10
-1.56725e+10
-1.56728e+10
-1.56732e+10
-1.56736e+10
-1.5674e+10
-1.56744e+10
-1.56748e+10
-1.56752e+10
-1.56756e+10
-1.5676e+10
-1.56763e+10
-1.56767e+10
-1.56771e+10
-1.56775e+10
-1.56778e+10
-1.56782e+10
-1.56786e+10
-1.5679e+10
-1.56793e+10
-1.56797e+10
-1.568e+10
-1.56804e+10
-1.56808e+10
-1.56811e+10
-1.56815e+10
-1.56818e+10
-1.56822e+10
-1.56825e+10
-1.56829e+10
-1.56832e+10
-1.56836e+10
-1.56839e+10
-1.56843e+10
-1.56846e+10
-1.5685e+10
-1.56853e+10
-1.56856e+10
-1.5686e+10
-1.56863e+10
-1.56866e+10
-1.5687e+10
-1.56873e+10
-1.56876e+10
-1.56879e+10
-1.56882e+10
-1.56886e+10
-1.56889e+10
-1.56892e+10
-1.56895e+10
-1.56898e+10
-1.56901e+10
-1.56904e+10
-1.56908e+10
-1.56911e+10
-1.56914e+10
-1.56917e+10
-1.5692e+10
-1.56923e+10
-1.56926e+10
-1.56928e+10
-1.56931e+10
-1.56934e+10
-1.56937e+10
-1.5694e+10
-1.56943e+10
-1.56946e+10
-1.56948e+10
-1.56951e+10
-1.56954e+10
-1.56957e+10
-1.56959e+10
-1.56962e+10
-1.56965e+10
-1.56968e+10
-1.5697e+10
-1.56973e+10
-1.56975e+10
-1.56978e+10
-1.56981e+10
-1.56983e+10
-1.56986e+10
-1.56988e+10
-1.56991e+10
-1.56993e+10
-1.56996e+10
-1.56998e+10
-1.57e+10
-1.57003e+10
-1.57005e+10
-1.57008e+10
-1.5701e+10
-1.57012e+10
-1.57015e+10
-1.57017e+10
-1.57019e+10
-1.57021e+10
-1.57024e+10
-1.57026e+10
-1.57028e+10
-1.5703e+10
-1.57032e+10
-1.57034e+10
-1.57036e+10
-1.57039e+10
-1.57041e+10
-1.57043e+10
-1.57045e+10
-1.57047e+10
-1.57049e+10
-1.57051e+10
-1.57053e+10
-1.57054e+10
-1.57056e+10
-1.57058e+10
-1.5706e+10
-1.57062e+10
-1.57064e+10
-1.57066e+10
-1.57067e+10
-1.57069e+10
-1.57071e+10
-1.57073e+10
-1.57074e+10
-1.57076e+10
-1.57078e+10
-1.57079e+10
-1.57081e+10
-1.57082e+10
-1.57084e+10
-1.57086e+10
-1.57087e+10
-1.57089e+10
-1.5709e+10
-1.57092e+10
-1.57093e+10
-1.57094e+10
-1.57096e+10
-1.57097e+10
-1.57099e+10
-1.571e+10
-1.57101e+10
-1.57103e+10
-1.57104e+10
-1.57105e+10
-1.57106e+10
-1.57108e+10
-1.57109e+10
-1.5711e+10
-1.57111e+10
-1.57112e+10
-1.57113e+10
-1.57114e+10
-1.57116e+10
-1.57117e+10
-1.57118e+10
-1.57119e+10
-1.5712e+10
-1.57121e+10
-1.57122e+10
-1.57122e+10
-1.57123e+10
-1.57124e+10
-1.57125e+10
-1.57126e+10
-1.57127e+10
-1.57128e+10
-1.57128e+10
-1.57129e+10
-1.5713e+10
-1.57131e+10
-1.57131e+10
-1.57132e+10
-1.57133e+10
-1.57133e+10
-1.57134e+10
-1.57134e+10
-1.57135e+10
-1.57136e+10
-1.57136e+10
-1.57137e+10
-1.57137e+10
-1.57137e+10
-1.57138e+10
-1.57138e+10
-1.57139e+10
-1.57139e+10
-1.57139e+10
-1.5714e+10
-1.5714e+10
-1.5714e+10
-1.57141e+10
-1.57141e+10
-1.57141e+10
-1.57141e+10
-1.57142e+10
-1.57142e+10
-1.57142e+10
-1.57142e+10
-1.57142e+10
-1.57142e+10
-1.57142e+10
-1.57142e+10
-1.57142e+10
-1.57142e+10
-1.57142e+10
-1.57142e+10
-1.57142e+10
-1.57142e+10
-1.57142e+10
-1.57142e+10
-1.57142e+10
-1.57141e+10
-1.57141e+10
-1.57141e+10
-1.57141e+10
-1.5714e+10
-1.5714e+10
-1.5714e+10
-1.57139e+10
-1.57139e+10
-1.57139e+10
-1.57138e+10
-1.57138e+10
-1.57137e+10
-1.57137e+10
-1.57137e+10
-1.53136e+10
-1.53136e+10
-1.53136e+10
-1.53136e+10
-1.53136e+10
-1.53136e+10
-1.53136e+10
-1.53136e+10
-1.53137e+10
-1.53137e+10
-1.53137e+10
-1.53137e+10
-1.53137e+10
-1.53138e+10
-1.53138e+10
-1.53138e+10
-1.53139e+10
-1.53139e+10
-1.53139e+10
-1.5314e+10
-1.5314e+10
-1.53141e+10
-1.53141e+10
-1.53141e+10
-1.53142e+10
-1.53142e+10
-1.53143e+10
-1.53144e+10
-1.53144e+10
-1.53145e+10
-1.53145e+10
-1.53146e+10
-1.53147e+10
-1.53147e+10
-1.53148e+10
-1.53149e+10
-1.53149e+10
-1.5315e+10
-1.53151e+10
-1.53152e+10
-1.53153e+10
-1.53153e+10
-1.53154e+10
-1.53155e+10
-1.53156e+10
-1.53157e+10
-1.53158e+10
-1.53159e+10
-1.5316e+10
-1.53161e+10
-1.53162e+10
-1.53163e+10
-1.53164e+10
-1.53165e+10
-1.53166e+10
-1.53167e+10
-1.53168e+10
-1.53169e+10
-1.53171e+10
-1.53172e+10
-1.53173e+10
-1.53174e+10
-1.53175e+10
-1.53177e+10
-1.53178e+10
-1.53179e+10
-1.53181e+10
-1.53182e+10
-1.53183e+10
-1.53185e+10
-1.53186e+10
-1.53188e+10
-1.53189e+10
-1.53191e+10
-1.53192e+10
-1.53194e+10
-1.53195e+10
-1.53197e+10
-1.53198e+10
-1.532e+10
-1.53202e+10
-1.53203e+10
-1.53205e+10
-1.53206e+10
-1.53208e+10
-1.5321e+10
-1.53212e+10
-1.53213e+10
-1.53215e+10
-1.53217e+10
-1.53219e+10
-1.53221e+10
-1.53222e+10
-1.53224e+10
-1.53226e+10
-1.53228e+10
-1.5323e+10
-1.53232e+10
-1.53234e+10
-1.53236e+10
-1.53238e+10
-1.5324e+10
-1.53242e+10
-1.53244e+10
-1.53246e+10
-1.53248e+10
-1.5325e+10
-1.53252e+10
-1.53255e+10
-1.53257e+10
-1.53259e+10
-1.53261e+10
-1.53263e+10
-1.53266e+10
-1.53268e+10
-1.5327e+10
-1.53273e+10
-1.53275e+10
-1.53277e+10
-1.5328e+10
-1.53282e+10
-1.53284e+10
-1.53287e+10
-1.53289e+10
-1.53292e+10
-1.53294e+10
-1.53297e+10
-1.53299e+10
-1.53302e+10
-1.53304e+10
-1.53307e+10
-1.5331e+10
-1.53312e+10
-1.53315e+10
-1.53317e+10
-1.5332e+10
-1.53323e+10
-1.53326e+10
-1.53328e+10
-1.53331e+10
-1.53334e+10
-1.53337e+10
-1.53339e+10
-1.53342e+10
-1.53345e+10
-1.53348e+10
-1.53351e+10
-1.53354e+10
-1.53357e+10
-1.5336e+10
-1.53362e+10
-1.53365e+10
-1.53368e+10
-1.53371e+10
-1.53374e+10
-1.53377e+10
-1.53381e+10
-1.53384e+10
-1.53387e+10
-1.5339e+10
-1.53393e+10
-1.53396e+10
-1.53399e+10
-1.53402e+10
-1.53406e+10
-1.53409e+10
-1.53412e+10
-1.53415e+10
-1.53419e+10
-1.53422e+10
-1.53425e+10
-1.53428e+10
-1.53432e+10
-1.53435e+10
-1.53439e+10
-1.53442e+10
-1.53445e+10
-1.53449e+10
-1.53452e+10
-1.53456e+10
-1.53459e+10
-1.53463e+10
-1.53466e+10
-1.5347e+10
-1.53473e+10
-1.53477e+10
-1.5348e+10
-1.53484e+10
-1.53488e+10
-1.53491e+10
-1.53495e+10
-1.53499e+10
-1.53502e+10
-1.53506e+10
-1.5351e+10
-1.53513e+10
-1.53517e+10
-1.53521e+10
-1.53525e+10
-1.53528e+10
-1.53532e+10
-1.53536e+10
-1.5354e+10
-1.53544e+10
-1.53548e+10
-1.53552e+10
-1.53556e+10
-1.53559e+10
-1.53563e+10
-1.53567e+10
-1.53571e+10
-1.53575e+10
-1.53579e+10
-1.53583e+10
-1.53587e+10
-1.53591e+10
-1.53596e+10
-1.536e+10
-1.53604e+10
-1.53608e+10
-1.53612e+10
-1.53616e+10
-1.5362e+10
-1.53625e+10
-1.53629e+10
-1.53633e+10
-1.53637e+10
-1.53641e+10
-1.53646e+10
-1.5365e+10
-1.53654e+10
-1.53659e+10
-1.53663e+10
-1.53667e+10
-1.53672e+10
-1.53676e+10
-1.5368e+10
-1.53685e+10
-1.53689e+10
-1.53694e+10
-1.53698e+10
-1.53702e+10
-1.53707e+10
-1.53711e+10
-1.53716e+10
-1.5372e+10
-1.53725e+10
-1.53729e+10
-1.53734e+10
-1.53739e+10
-1.53743e+10
-1.53748e+10
-1.53752e+10
-1.53757e+10
-1.53762e+10
-1.53766e+10
-1.53771e+10
-1.53776e+10
-1.5378e+10
-1.53785e+10
-1.5379e+10
-1.53795e+10
-1.53799e+10
-1.53804e+10
-1.53809e+10
-1.53814e+10
-1.53818e+10
-1.53823e+10
-1.53828e+10
-1.53833e+10
-1.53838e+10
-1.53843e+10
-1.53848e+10
-1.53853e+10
-1.53857e+10
-1.53862e+10
-1.53867e+10
-1.53872e+10
-1.53877e+10
-1.53882e+10
-1.53887e+10
-1.53892e+10
-1.53897e+10
-1.53902e+10
-1.53907e+10
-1.53912e+10
-1.53917e+10
-1.53923e+10
-1.53928e+10
-1.53933e+10
-1.53938e+10
-1.53943e+10
-1.53948e+10
-1.53953e+10
-1.53959e+10
-1.53964e+10
-1.53969e+10
-1.53974e+10
-1.53979e+10
-1.53985e+10
-1.5399e+10
-1.53995e+10
-1.54e+10
-1.54006e+10
-1.54011e+10
-1.54016e+10
-1.54022e+10
-1.54027e+10
-1.54032e+10
-1.54038e+10
-1.54043e+10
-1.54048e+10
-1.54054e+10
-1.54059e+10
-1.54064e+10
-1.5407e+10
-1.54075e+10
-1.54081e+10
-1.54086e+10
-1.54092e+10
-1.54097e+10
-1.54103e+10
-1.54108e+10
-1.54114e+10
-1.54119e+10
-1.54125e+10
-1.5413e+10
-1.54136e+10
-1.54141e+10
-1.54147e+10
-1.54152e+10
-1.54158e+10
-1.54164e+10
-1.54169e+10
-1.54175e+10
-1.5418e+10
-1.54186e+10
-1.54192e+10
-1.54197e+10
-1.54203e+10
-1.54209e+10
-1.54214e+10
-1.5422e+10
-1.54226e+10
-1.54231e+10
-1.54237e+10
-1.54243e+10
-1.54249e+10
-1.54254e+10
-1.5426e+10
-1.54266e+10
-1.54272e+10
-1.54277e+10
-1.54283e+10
-1.54289e+10
-1.54295e+10
-1.54301e+10
-1.54307e+10
-1.54312e+10
-1.54318e+10
-1.54324e+10
-1.5433e+10
-1.54336e+10
-1.54342e+10
-1.54348e+10
-1.54354e+10
-1.54359e+10
-1.54365e+10
-1.54371e+10
-1.54377e+10
-1.54383e+10
-1.54389e+10
-1.54395e+10
-1.54401e+10
-1.54407e+10
-1.54413e+10
-1.54419e+10
-1.54425e+10
-1.54431e+10
-1.54437e+10
-1.54443e+10
-1.54449e+10
-1.54455e+10
-1.54461e+10
-1.54467e+10
-1.54473e+10
-1.54479e+10
-1.54485e+10
-1.54491e+10
-1.54497e+10
-1.54503e+10
-1.5451e+10
-1.54516e+10
-1.54522e+10
-1.54528e+10
-1.54534e+10
-1.5454e+10
-1.54546e+10
-1.54552e+10
-1.54558e+10
-1.54565e+10
-1.54571e+10
-1.54577e+10
-1.54583e+10
-1.54589e+10
-1.54595e+10
-1.54602e+10
-1.54608e+10
-1.54614e+10
-1.5462e+10
-1.54626e+10
-1.54633e+10
-1.54639e+10
-1.54645e+10
-1.54651e+10
-1.54658e+10
-1.54664e+10
-1.5467e+10
-1.54676e+10
-1.54682e+10
-1.54689e+10
-1.54695e+10
-1.54701e+10
-1.54708e+10
-1.54714e+10
-1.5472e+10
-1.54726e+10
-1.54733e+10
-1.54739e+10
-1.54745e+10
-1.54752e+10
-1.54758e+10
-1.54764e+10
-1.5477e+10
-1.54777e+10
-1.54783e+10
-1.54789e+10
-1.54796e+10
-1.54802e+10
-1.54808e+10
-1.54815e+10
-1.54821e+10
-1.54827e+10
-1.54834e+10
-1.5484e+10
-1.54846e+10
-1.54853e+10
-1.54859e+10
-1.54866e+10
-1.54872e+10
-1.54878e+10
-1.54885e+10
-1.54891e+10
-1.54897e+10
-1.54904e+10
-1.5491e+10
-1.54917e+10
-1.54923e+10
-1.54929e+10
-1.54936e+10
-1.54942e+10
-1.54949e+10
-1.54955e+10
-1.54961e+10
-1.54968e+10
-1.54974e+10
-1.54981e+10
-1.54987e+10
-1.54993e+10
-1.55e+10
-1.55006e+10
-1.55013e+10
-1.55019e+10
-1.55025e+10
-1.55032e+10
-1.55038e+10
-1.55045e+10
-1.55051e+10
-1.55058e+10
-1.55064e+10
-1.5507e+10
-1.55077e+10
-1.55083e+10
-1.5509e+10
-1.55096e+10
-1.55103e+10
-1.55109e+10
-1.55115e+10
-1.55122e+10
-1.55128e+10
-1.55135e+10
-1.55141e+10
-1.55148e+10
-1.55154e+10
-1.5516e+10
-1.55167e+10
-1.55173e+10
-1.5518e+10
-1.55186e+10
-1.55193e+10
-1.55199e+10
-1.55205e+10
-1.55212e+10
-1.55218e+10
-1.55225e+10
-1.55231e+10
-1.55238e+10
-1.55244e+10
-1.5525e+10
-1.55257e+10
-1.55263e+10
-1.5527e+10
-1.55276e+10
-1.55283e+10
-1.55289e+10
-1.55295e+10
-1.55302e+10
-1.55308e+10
-1.55315e+10
-1.55321e+10
-1.55327e+10
-1.55334e+10
-1.5534e+10
-1.55347e+10
-1.55353e+10
-1.55359e+10
-1.55366e+10
-1.55372e+10
-1.55379e+10
-1.55385e+10
-1.55391e+10
-1.55398e+10
-1.55404e+10
-1.55411e+10
-1.55417e+10
-1.55423e+10
-1.5543e+10
-1.55436e+10
-1.55442e+10
-1.55449e+10
-1.55455e+10
-1.55461e+10
-1.55468e+10
-1.55474e+10
-1.55481e+10
-1.55487e+10
-1.55493e+10
-1.555e+10
-1.55506e+10
-1.55512e+10
-1.55519e+10
-1.55525e+10
-1.55531e+10
-1.55537e+10
-1.55544e+10
-1.5555e+10
-1.55556e+10
-1.55563e+10
-1.55569e+10
-1.55575e+10
-1.55582e+10
-1.55588e+10
-1.55594e+10
-1.556e+10
-1.55607e+10
-1.55613e+10
-1.55619e+10
-1.55625e+10
-1.55632e+10
-1.55638e+10
-1.55644e+10
-1.5565e+10
-1.55657e+10
-1.55663e+10
-1.55669e+10
-1.55675e+10
-1.55681e+10
-1.55688e+10
-1.55694e+10
-1.557e+10
-1.55706e+10
-1.55712e+10
-1.55719e+10
-1.55725e+10
-1.55731e+10
-1.55737e+10
-1.55743e+10
-1.55749e+10
-1.55756e+10
-1.55762e+10
-1.55768e+10
-1.55774e+10
-1.5578e+10
-1.55786e+10
-1.55792e+10
-1.55798e+10
-1.55804e+10
-1.5581e+10
-1.55817e+10
-1.55823e+10
-1.55829e+10
-1.55835e+10
-1.55841e+10
-1.55847e+10
-1.55853e+10
-1.55859e+10
-1.55865e+10
-1.55871e+10
-1.55877e+10
-1.55883e+10
-1.55889e+10
-1.55895e+10
-1.55901e+10
-1.55907e+10
-1.55913e+10
-1.55919e+10
-1.55925e+10
-1.55931e+10
-1.55936e+10
-1.55942e+10
-1.55948e+10
-1.55954e+10
-1.5596e+10
-1.55966e+10
-1.55972e+10
-1.55978e+10
-1.55984e+10
-1.55989e+10
-1.55995e+10
-1.56001e+10
-1.56007e+10
-1.56013e+10
-1.56018e+10
-1.56024e+10
-1.5603e+10
-1.56036e+10
-1.56042e+10
-1.56047e+10
-1.56053e+10
-1.56059e+10
-1.56065e+10
-1.5607e+10
-1.56076e+10
-1.56082e+10
-1.56087e+10
-1.56093e+10
-1.56099e+10
-1.56104e+10
-1.5611e+10
-1.56116e+10
-1.56121e+10
-1.56127e+10
-1.56133e+10
-1.56138e+10
-1.56144e+10
-1.56149e+10
-1.56155e+10
-1.56161e+10
-1.56166e+10
-1.56172e+10
-1.56177e+10
-1.56183e+10
-1.56188e+10
-1.56194e+10
-1.56199e+10
-1.56205e+10
-1.5621e+10
-1.56216e+10
-1.56221e+10
-1.56226e+10
-1.56232e+10
-1.56237e+10
-1.56243e+10
-1.56248e+10
-1.56253e+10
-1.56259e+10
-1.56264e+10
-1.5627e+10
-1.56275e+10
-1.5628e+10
-1.56285e+10
-1.56291e+10
-1.56296e+10
-1.56301e+10
-1.56307e+10
-1.56312e+10
-1.56317e+10
-1.56322e+10
-1.56328e+10
-1.56333e+10
-1.56338e+10
-1.56343e+10
-1.56348e+10
-1.56353e+10
-1.56359e+10
-1.56364e+10
-1.56369e+10
-1.56374e+10
-1.56379e+10
-1.56384e+10
-1.56389e+10
-1.56394e+10
-1.56399e+10
-1.56404e+10
-1.56409e+10
-1.56414e+10
-1.56419e+10
-1.56424e+10
-1.56429e+10
-1.56434e+10
-1.56439e+10
-1.56444e+10
-1.56449e+10
-1.56454e+10
-1.56459e+10
-1.56463e+10
-1.56468e+10
-1.56473e+10
-1.56478e+10
-1.56483e+10
-1.56488e+10
-1.56492e+10
-1.56497e+10
-1.56502e+10
-1.56507e+10
-1.56511e+10
-1.56516e+10
-1.56521e+10
-1.56525e+10
-1.5653e+10
-1.56535e+10
-1.56539e+10
-1.56544e+10
-1.56549e+10
-1.56553e+10
-1.56558e+10
-1.56562e+10
-1.56567e+10
-1.56571e+10
-1.56576e+10
-1.5658e+10
-1.56585e+10
-1.56589e+10
-1.56594e+10
-1.56598e+10
-1.56603e+10
-1.56607e+10
-1.56612e+10
-1.56616e+10
-1.5662e+10
-1.56625e+10
-1.56629e+10
-1.56633e+10
-1.56638e+10
-1.56642e+10
-1.56646e+10
-1.56651e+10
-1.56655e+10
-1.56659e+10
-1.56663e+10
-1.56667e+10
-1.56672e+10
-1.56676e+10
-1.5668e+10
-1.56684e+10
-1.56688e+10
-1.56692e+10
-1.56696e+10
-1.567e+10
-1.56704e+10
-1.56709e+10
-1.56713e+10
-1.56717e+10
-1.56721e+10
-1.56725e+10
-1.56728e+10
-1.56732e+10
-1.56736e+10
-1.5674e+10
-1.56744e+10
-1.56748e+10
-1.56752e+10
-1.56756e+10
-1.5676e+10
-1.56763e+10
-1.56767e+10
-1.56771e+10
-1.56775e+10
-1.56778e+10
-1.56782e+10
-1.56786e+10
-1.5679e+10
-1.56793e+10
-1.56797e+10
-1.568e+10
-1.56804e+10
-1.56808e+10
-1.56811e+10
-1.56815e+10
-1.56818e+10
-1.56822e+10
-1.56825e+10
-1.56829e+10
-1.56832e+10
-1.56836e+10
-1.56839e+10
-1.56843e+10
-1.56846e+10
-1.5685e+10
-1.56853e+10
-1.56856e+10
-1.5686e+10
-1.56863e+10
-1.56866e+10
-1.5687e+10
-1.56873e+10
-1.56876e+10
-1.56879e+10
-1.56882e+10
-1.56886e+10
-1.56889e+10
-1.56892e+10
-1.56895e+10
-1.56898e+10
-1.56901e+10
-1.56904e+10
-1.56908e+10
-1.56911e+10
-1.56914e+10
-1.56917e+10
-1.5692e+10
-1.56923e+10
-1.56926e+10
-1.56928e+10
-1.56931e+10
-1.56934e+10
-1.56937e+10
-1.5694e+10
-1.56943e+10
-1.56946e+10
-1.56948e+10
-1.56951e+10
-1.56954e+10
-1.56957e+10
-1.56959e+10
-1.56962e+10
-1.56965e+10
-1.56968e+10
-1.5697e+10
-1.56973e+10
-1.56975e+10
-1.56978e+10
-1.56981e+10
-1.56983e+10
-1.56986e+10
-1.56988e+10
-1.56991e+10
-1.56993e+10
-1.56996e+10
-1.56998e+10
-1.57e+10
-1.57003e+10
-1.57005e+10
-1.57008e+10
-1.5701e+10
-1.57012e+10
-1.57015e+10
-1.57017e+10
-1.57019e+10
-1.57021e+10
-1.57024e+10
-1.57026e+10
-1.57028e+10
-1.5703e+10
-1.57032e+10
-1.57034e+10
-1.57036e+10
-1.57039e+10
-1.57041e+10
-1.57043e+10
-1.57045e+10
-1.57047e+10
-1.57049e+10
-1.57051e+10
-1.57053e+10
-1.57054e+10
-1.57056e+10
-1.57058e+10
-1.5706e+10
-1.57062e+10
-1.57064e+10
-1.57066e+10
-1.57067e+10
-1.57069e+10
-1.57071e+10
-1.57073e+10
-1.57074e+10
-1.57076e+10
-1.57078e+10
-1.57079e+10
-1.57081e+10
-1.57082e+10
-1.57084e+10
-1.57086e+10
-1.57087e+10
-1.57089e+10
-1.5709e+10
-1.57092e+10
-1.57093e+10
-1.57094e+10
-1.57096e+10
-1.57097e+10
-1.57099e+10
-1.571e+10
-1.57101e+10
-1.57103e+10
-1.57104e+10
-1.57105e+10
-1.57106e+10
-1.57108e+10
-1.57109e+10
-1.5711e+10
-1.57111e+10
-1.57112e+10
-1.57113e+10
-1.57114e+10
-1.57116e+10
-1.57117e+10
-1.57118e+10
-1.57119e+10
-1.5712e+10
-1.57121e+10
-1.57122e+10
-1.57122e+10
-1.57123e+10
-1.57124e+10
-1.57125e+10
-1.57126e+10
-1.57127e+10
-1.57128e+10
-1.57128e+10
-1.57129e+10
-1.5713e+10
-1.57131e+10
-1.57131e+10
-1.57132e+10
-1.57133e+10
-1.57133e+10
-1.57134e+10
-1.57134e+10
-1.57135e+10
-1.57136e+10
-1.57136e+10
-1.57137e+10
-1.57137e+10
-1.57138e+10
-1.57138e+10
-1.57138e+10
-1.57139e+10
-1.57139e+10
-1.57139e+10
-1.5714e+10
-1.5714e+10
-1.5714e+10
-1.57141e+10
-1.57141e+10
-1.57141e+10
-1.57141e+10
-1.57142e+10
-1.57142e+10
-1.57142e+10
-1.57142e+10
-1.57142e+10
-1.57142e+10
-1.57142e+10
-1.57142e+10
-1.57142e+10
-1.57142e+10
-1.57142e+10
-1.57142e+10
-1.57142e+10
-1.57142e+10
-1.57142e+10
-1.57142e+10
-1.57142e+10
-1.57141e+10
-1.57141e+10
-1.57141e+10
-1.57141e+10
-1.5714e+10
-1.5714e+10
-1.5714e+10
-1.57139e+10
-1.57139e+10
-1.57139e+10
-1.57138e+10
-1.57138e+10
-1.57137e+10
-1.57137e+10
-1.57137e+10
-1.53136e+10
-1.53136e+10
-1.53136e+10
-1.53136e+10
-1.53136e+10
-1.53136e+10
-1.53136e+10
-1.53136e+10
-1.53137e+10
-1.53137e+10
-1.53137e+10
-1.53137e+10
-1.53137e+10
-1.53138e+10
-1.53138e+10
-1.53138e+10
-1.53139e+10
-1.53139e+10
-1.53139e+10
-1.5314e+10
-1.5314e+10
-1.53141e+10
-1.53141e+10
-1.53141e+10
-1.53142e+10
-1.53142e+10
-1.53143e+10
-1.53144e+10
-1.53144e+10
-1.53145e+10
-1.53145e+10
-1.53146e+10
-1.53147e+10
-1.53147e+10
-1.53148e+10
-1.53149e+10
-1.53149e+10
-1.5315e+10
-1.53151e+10
-1.53152e+10
-1.53153e+10
-1.53153e+10
-1.53154e+10
-1.53155e+10
-1.53156e+10
-1.53157e+10
-1.53158e+10
-1.53159e+10
-1.5316e+10
-1.53161e+10
-1.53162e+10
-1.53163e+10
-1.53164e+10
-1.53165e+10
-1.53166e+10
-1.53167e+10
-1.53168e+10
-1.53169e+10
-1.53171e+10
-1.53172e+10
-1.53173e+10
-1.53174e+10
-1.53175e+10
-1.53177e+10
-1.53178e+10
-1.53179e+10
-1.53181e+10
-1.53182e+10
-1.53183e+10
-1.53185e+10
-1.53186e+10
-1.53188e+10
-1.53189e+10
-1.53191e+10
-1.53192e+10
-1.53194e+10
-1.53195e+10
-1.53197e+10
-1.53198e+10
-1.532e+10
-1.53201e+10
-1.53203e+10
-1.53205e+10
-1.53206e+10
-1.53208e+10
-1.5321e+10
-1.53212e+10
-1.53213e+10
-1.53215e+10
-1.53217e+10
-1.53219e+10
-1.53221e+10
-1.53222e+10
-1.53224e+10
-1.53226e+10
-1.53228e+10
-1.5323e+10
-1.53232e+10
-1.53234e+10
-1.53236e+10
-1.53238e+10
-1.5324e+10
-1.53242e+10
-1.53244e+10
-1.53246e+10
-1.53248e+10
-1.5325e+10
-1.53252e+10
-1.53255e+10
-1.53257e+10
-1.53259e+10
-1.53261e+10
-1.53263e+10
-1.53266e+10
-1.53268e+10
-1.5327e+10
-1.53273e+10
-1.53275e+10
-1.53277e+10
-1.5328e+10
-1.53282e+10
-1.53284e+10
-1.53287e+10
-1.53289e+10
-1.53292e+10
-1.53294e+10
-1.53297e+10
-1.53299e+10
-1.53302e+10
-1.53304e+10
-1.53307e+10
-1.5331e+10
-1.53312e+10
-1.53315e+10
-1.53317e+10
-1.5332e+10
-1.53323e+10
-1.53326e+10
-1.53328e+10
-1.53331e+10
-1.53334e+10
-1.53337e+10
-1.53339e+10
-1.53342e+10
-1.53345e+10
-1.53348e+10
-1.53351e+10
-1.53354e+10
-1.53357e+10
-1.5336e+10
-1.53362e+10
-1.53365e+10
-1.53368e+10
-1.53371e+10
-1.53374e+10
-1.53377e+10
-1.53381e+10
-1.53384e+10
-1.53387e+10
-1.5339e+10
-1.53393e+10
-1.53396e+10
-1.53399e+10
-1.53402e+10
-1.53406e+10
-1.53409e+10
-1.53412e+10
-1.53415e+10
-1.53419e+10
-1.53422e+10
-1.53425e+10
-1.53428e+10
-1.53432e+10
-1.53435e+10
-1.53439e+10
-1.53442e+10
-1.53445e+10
-1.53449e+10
-1.53452e+10
-1.53456e+10
-1.53459e+10
-1.53463e+10
-1.53466e+10
-1.5347e+10
-1.53473e+10
-1.53477e+10
-1.5348e+10
-1.53484e+10
-1.53488e+10
-1.53491e+10
-1.53495e+10
-1.53499e+10
-1.53502e+10
-1.53506e+10
-1.5351e+10
-1.53513e+10
-1.53517e+10
-1.53521e+10
-1.53525e+10
-1.53528e+10
-1.53532e+10
-1.53536e+10
-1.5354e+10
-1.53544e+10
-1.53548e+10
-1.53552e+10
-1.53556e+10
-1.53559e+10
-1.53563e+10
-1.53567e+10
-1.53571e+10
-1.53575e+10
-1.53579e+10
-1.53583e+10
-1.53587e+10
-1.53591e+10
-1.53596e+10
-1.536e+10
-1.53604e+10
-1.53608e+10
-1.53612e+10
-1.53616e+10
-1.5362e+10
-1.53625e+10
-1.53629e+10
-1.53633e+10
-1.53637e+10
-1.53641e+10
-1.53646e+10
-1.5365e+10
-1.53654e+10
-1.53659e+10
-1.53663e+10
-1.53667e+10
-1.53672e+10
-1.53676e+10
-1.5368e+10
-1.53685e+10
-1.53689e+10
-1.53694e+10
-1.53698e+10
-1.53702e+10
-1.53707e+10
-1.53711e+10
-1.53716e+10
-1.5372e+10
-1.53725e+10
-1.53729e+10
-1.53734e+10
-1.53739e+10
-1.53743e+10
-1.53748e+10
-1.53752e+10
-1.53757e+10
-1.53762e+10
-1.53766e+10