/*--------------------------------*- C++ -*----------------------------------*\
| =========                 |                                                 |
| \\      /  F ield         | OpenFOAM: The Open Source CFD Toolbox           |
|  \\    /   O peration     | Version:  2512                                  |
|   \\  /    A nd           | Website:  www.openfoam.com                      |
|    \\/     M anipulation  |                                                 |
\*---------------------------------------------------------------------------*/
FoamFile
{
    version     2.0;
    format      ascii;
    arch        "LSB;label=32;scalar=64";
    class       volScalarField;
    location    "3e-05";
    object      pB;
}
// * * * * * * * * * * * * * * * * * * * * * * * * * * * * * * * * * * * * * //

dimensions      [1 1 -3 0 0 -1 0];

internalField   nonuniform List<scalar> 
100000
(
-374.789
-131.344
-224.964
-96.9522
-145.477
-120.415
-122.38
-123.489
-125.645
-128.444
-131.64
-135.074
-138.642
-142.273
-145.92
-149.55
-153.14
-156.674
-160.141
-163.533
-166.845
-170.075
-173.22
-176.28
-179.254
-182.145
-184.951
-187.676
-190.32
-192.885
-195.373
-197.786
-200.125
-202.393
-204.592
-206.723
-208.789
-210.791
-212.732
-214.612
-216.435
-218.201
-219.913
-221.571
-223.179
-224.736
-226.246
-227.708
-229.126
-230.499
-231.83
-233.12
-234.37
-235.581
-236.754
-237.892
-238.994
-240.062
-241.097
-242.1
-243.072
-244.014
-244.927
-245.811
-246.669
-247.499
-248.305
-249.085
-249.841
-250.574
-251.284
-251.973
-252.64
-253.286
-253.913
-254.52
-255.109
-255.679
-256.232
-256.768
-257.288
-257.791
-258.279
-258.752
-259.21
-259.655
-260.086
-260.503
-260.908
-261.3
-261.68
-262.049
-262.406
-262.752
-263.088
-263.413
-263.729
-264.035
-264.331
-264.618
-264.897
-265.167
-265.429
-265.683
-265.929
-266.168
-266.399
-266.624
-266.841
-267.052
-267.257
-267.455
-267.647
-267.834
-268.015
-268.19
-268.36
-268.525
-268.685
-268.841
-268.991
-269.137
-269.279
-269.416
-269.549
-269.679
-269.804
-269.926
-270.044
-270.159
-270.27
-270.378
-270.482
-270.584
-270.682
-270.778
-270.871
-270.961
-271.049
-271.134
-271.216
-271.297
-271.374
-271.45
-271.523
-271.594
-271.664
-271.731
-271.796
-271.86
-271.921
-271.981
-272.039
-272.096
-272.151
-272.205
-272.256
-272.307
-272.356
-272.404
-272.45
-272.496
-272.54
-272.582
-272.624
-272.665
-272.704
-272.743
-272.78
-272.817
-272.852
-272.887
-272.921
-272.954
-272.986
-273.017
-273.047
-273.077
-273.106
-273.134
-273.162
-273.189
-273.215
-273.241
-273.266
-273.29
-273.314
-273.337
-273.36
-273.382
-273.404
-273.425
-273.446
-273.466
-273.486
-273.506
-273.525
-273.544
-273.562
-273.58
-273.598
-273.615
-273.632
-273.648
-273.665
-273.681
-273.697
-273.712
-273.727
-273.742
-273.757
-273.771
-273.786
-273.8
-273.813
-273.827
-273.84
-273.853
-273.866
-273.879
-273.892
-273.904
-273.917
-273.929
-273.941
-273.953
-273.964
-273.976
-273.987
-273.999
-274.01
-274.021
-274.032
-274.043
-274.053
-274.064
-274.075
-274.085
-274.095
-274.106
-274.116
-274.126
-274.136
-274.146
-274.156
-274.166
-274.175
-274.185
-274.195
-274.204
-274.214
-274.223
-274.233
-274.242
-274.252
-274.261
-274.27
-274.279
-274.288
-274.298
-274.307
-274.316
-274.325
-274.334
-274.343
-274.352
-274.361
-274.37
-274.379
-274.387
-274.396
-274.405
-274.414
-274.423
-274.431
-274.44
-274.449
-274.458
-274.466
-274.475
-274.484
-274.493
-274.501
-274.51
-274.519
-274.527
-274.536
-274.545
-274.553
-274.562
-274.571
-274.58
-274.588
-274.597
-274.606
-274.614
-274.623
-274.632
-274.64
-274.649
-274.658
-274.666
-274.675
-274.684
-274.693
-274.701
-274.71
-274.719
-274.728
-274.736
-274.745
-274.754
-274.763
-274.771
-274.78
-274.789
-274.798
-274.807
-274.815
-274.824
-274.833
-274.842
-274.851
-274.86
-274.869
-274.878
-274.886
-274.895
-274.904
-274.913
-274.922
-274.931
-274.94
-274.949
-274.958
-274.967
-274.976
-274.985
-274.994
-275.003
-275.013
-275.022
-275.031
-275.04
-275.049
-275.058
-275.067
-275.077
-275.086
-275.095
-275.104
-275.113
-275.123
-275.132
-275.141
-275.15
-275.16
-275.169
-275.178
-275.188
-275.197
-275.206
-275.216
-275.225
-275.235
-275.244
-275.253
-275.263
-275.272
-275.282
-275.291
-275.301
-275.31
-275.32
-275.329
-275.339
-275.348
-275.358
-275.367
-275.377
-275.387
-275.396
-275.406
-275.416
-275.425
-275.435
-275.445
-275.454
-275.464
-275.474
-275.483
-275.493
-275.503
-275.513
-275.522
-275.532
-275.542
-275.552
-275.561
-275.571
-275.581
-275.591
-275.601
-275.611
-275.62
-275.63
-275.64
-275.65
-275.66
-275.67
-275.68
-275.69
-275.7
-275.71
-275.72
-275.729
-275.739
-275.749
-275.759
-275.769
-275.779
-275.789
-275.799
-275.809
-275.819
-275.829
-275.839
-275.849
-275.86
-275.87
-275.88
-275.89
-275.9
-275.91
-275.92
-275.93
-275.94
-275.95
-275.96
-275.971
-275.981
-275.991
-276.001
-276.011
-276.021
-276.031
-276.042
-276.052
-276.062
-276.072
-276.082
-276.093
-276.103
-276.113
-276.123
-276.134
-276.144
-276.154
-276.164
-276.175
-276.185
-276.195
-276.205
-276.216
-276.226
-276.236
-276.247
-276.257
-276.267
-276.277
-276.288
-276.298
-276.308
-276.319
-276.329
-276.34
-276.35
-276.36
-276.371
-276.381
-276.391
-276.402
-276.412
-276.422
-276.433
-276.443
-276.453
-276.464
-276.474
-276.484
-276.494
-276.505
-276.515
-276.525
-276.536
-276.546
-276.556
-276.566
-276.577
-276.587
-276.597
-276.607
-276.617
-276.628
-276.638
-276.648
-276.658
-276.668
-276.678
-276.689
-276.699
-276.709
-276.719
-276.729
-276.739
-276.749
-276.759
-276.769
-276.779
-276.79
-276.8
-276.81
-276.82
-276.83
-276.84
-276.85
-276.86
-276.87
-276.88
-276.89
-276.9
-276.91
-276.92
-276.93
-276.94
-276.95
-276.96
-276.97
-276.98
-276.99
-277
-277.01
-277.02
-277.03
-277.04
-277.05
-277.06
-277.07
-277.08
-277.09
-277.1
-277.11
-277.12
-277.13
-277.14
-277.15
-277.16
-277.17
-277.18
-277.19
-277.2
-277.209
-277.219
-277.229
-277.239
-277.249
-277.259
-277.269
-277.279
-277.289
-277.298
-277.308
-277.318
-277.328
-277.338
-277.348
-277.358
-277.367
-277.377
-277.387
-277.397
-277.407
-277.416
-277.426
-277.436
-277.446
-277.455
-277.465
-277.475
-277.485
-277.494
-277.504
-277.514
-277.523
-277.533
-277.543
-277.552
-277.562
-277.572
-277.581
-277.591
-277.6
-277.61
-277.62
-277.629
-277.639
-277.648
-277.658
-277.667
-277.677
-277.686
-277.696
-277.705
-277.715
-277.724
-277.734
-277.743
-277.753
-277.762
-277.771
-277.781
-277.79
-277.799
-277.809
-277.818
-277.827
-277.837
-277.846
-277.855
-277.864
-277.874
-277.883
-277.892
-277.901
-277.91
-277.92
-277.929
-277.938
-277.947
-277.956
-277.965
-277.974
-277.983
-277.992
-278.001
-278.01
-278.019
-278.028
-278.037
-278.046
-278.055
-278.064
-278.072
-278.081
-278.09
-278.099
-278.108
-278.116
-278.125
-278.134
-278.142
-278.151
-278.16
-278.168
-278.177
-278.185
-278.194
-278.202
-278.211
-278.219
-278.228
-278.236
-278.245
-278.253
-278.261
-278.269
-278.278
-278.286
-278.294
-278.302
-278.31
-278.319
-278.327
-278.335
-278.343
-278.351
-278.359
-278.367
-278.374
-278.382
-278.39
-278.398
-278.406
-278.413
-278.421
-278.429
-278.436
-278.444
-278.451
-278.459
-278.466
-278.474
-278.481
-278.489
-278.496
-278.503
-278.51
-278.517
-278.525
-278.532
-278.539
-278.546
-278.553
-278.56
-278.566
-278.573
-278.58
-278.587
-278.593
-278.6
-278.606
-278.613
-278.619
-278.626
-278.632
-278.638
-278.644
-278.65
-278.656
-278.662
-278.668
-278.674
-278.68
-278.686
-278.691
-278.697
-278.702
-278.708
-278.713
-278.718
-278.724
-278.729
-278.734
-278.738
-278.743
-278.748
-278.753
-278.757
-278.761
-278.766
-278.77
-278.774
-278.778
-278.782
-278.785
-278.789
-278.792
-278.796
-278.799
-278.802
-278.805
-278.808
-278.81
-278.813
-278.815
-278.817
-278.819
-278.821
-278.823
-278.824
-278.825
-278.826
-278.827
-278.828
-278.828
-278.829
-278.829
-278.829
-278.828
-278.827
-278.826
-278.825
-278.824
-278.822
-278.82
-278.818
-278.815
-278.812
-278.809
-278.806
-278.802
-278.798
-278.793
-278.788
-278.783
-278.778
-278.771
-278.765
-278.758
-278.751
-278.743
-278.735
-278.726
-278.717
-278.708
-278.697
-278.687
-278.676
-278.664
-278.651
-278.638
-278.625
-278.611
-278.596
-278.58
-278.564
-278.547
-278.529
-278.511
-278.491
-278.471
-278.45
-278.428
-278.406
-278.382
-278.358
-278.332
-278.306
-278.278
-278.249
-278.22
-278.189
-278.157
-278.124
-278.089
-278.053
-278.016
-277.978
-277.938
-277.897
-277.854
-277.81
-277.764
-277.716
-277.667
-277.616
-277.564
-277.509
-277.453
-277.394
-277.334
-277.271
-277.206
-277.139
-277.07
-276.999
-276.924
-276.848
-276.769
-276.687
-276.602
-276.515
-276.424
-276.331
-276.234
-276.134
-276.031
-275.924
-275.814
-275.7
-275.582
-275.461
-275.335
-275.205
-275.071
-274.933
-274.79
-274.642
-274.489
-274.332
-274.169
-274.001
-273.827
-273.648
-273.463
-273.272
-273.074
-272.871
-272.66
-272.443
-272.218
-271.987
-271.747
-271.5
-271.245
-270.982
-270.71
-270.43
-270.14
-269.841
-269.532
-269.213
-268.884
-268.545
-268.194
-267.832
-267.458
-267.072
-266.674
-266.263
-265.839
-265.401
-264.949
-264.482
-264.001
-263.503
-262.99
-262.46
-261.914
-261.349
-260.766
-260.165
-259.544
-258.903
-258.242
-257.559
-256.854
-256.127
-255.376
-254.6
-253.8
-252.974
-252.121
-251.24
-250.332
-249.393
-248.424
-247.424
-246.392
-245.326
-244.225
-243.089
-241.915
-240.703
-239.452
-238.16
-236.826
-235.448
-234.025
-232.555
-231.037
-229.468
-227.848
-226.175
-224.445
-222.659
-220.812
-218.904
-216.932
-214.894
-212.787
-210.608
-208.355
-206.026
-203.616
-201.123
-198.544
-195.875
-193.112
-190.251
-187.289
-184.22
-181.04
-177.745
-174.328
-170.784
-167.106
-163.288
-159.323
-155.202
-150.918
-146.459
-141.817
-136.979
-131.932
-126.662
-121.153
-115.384
-109.335
-102.98
-96.2889
-89.225
-81.7437
-73.7888
-65.2871
-56.1405
-46.2093
-35.2813
-23.2543
-8.62283
-116.793
-112.569
-139.477
-112.21
-119.667
-115.233
-115.785
-117.556
-120.109
-123.155
-126.51
-130.047
-133.685
-137.364
-141.044
-144.697
-148.303
-151.847
-155.322
-158.719
-162.034
-165.265
-168.411
-171.471
-174.445
-177.334
-180.139
-182.862
-185.505
-188.068
-190.554
-192.965
-195.302
-197.568
-199.765
-201.894
-203.958
-205.958
-207.897
-209.776
-211.597
-213.361
-215.071
-216.728
-218.334
-219.89
-221.398
-222.859
-224.275
-225.647
-226.976
-228.265
-229.513
-230.723
-231.895
-233.032
-234.133
-235.2
-236.233
-237.235
-238.206
-239.147
-240.059
-240.943
-241.799
-242.629
-243.433
-244.213
-244.968
-245.7
-246.41
-247.098
-247.764
-248.41
-249.036
-249.642
-250.23
-250.8
-251.353
-251.888
-252.407
-252.91
-253.397
-253.869
-254.327
-254.771
-255.201
-255.618
-256.022
-256.414
-256.794
-257.162
-257.519
-257.865
-258.2
-258.525
-258.84
-259.145
-259.442
-259.729
-260.007
-260.277
-260.538
-260.792
-261.037
-261.276
-261.507
-261.731
-261.948
-262.159
-262.363
-262.561
-262.753
-262.939
-263.12
-263.295
-263.465
-263.63
-263.789
-263.944
-264.095
-264.24
-264.382
-264.519
-264.652
-264.781
-264.906
-265.028
-265.146
-265.26
-265.371
-265.479
-265.583
-265.685
-265.783
-265.878
-265.971
-266.061
-266.149
-266.233
-266.316
-266.395
-266.473
-266.548
-266.622
-266.693
-266.762
-266.829
-266.894
-266.957
-267.019
-267.078
-267.136
-267.193
-267.248
-267.301
-267.353
-267.403
-267.452
-267.499
-267.546
-267.591
-267.635
-267.677
-267.719
-267.759
-267.799
-267.837
-267.874
-267.91
-267.946
-267.98
-268.014
-268.047
-268.078
-268.11
-268.14
-268.169
-268.198
-268.226
-268.254
-268.28
-268.306
-268.332
-268.357
-268.381
-268.405
-268.428
-268.45
-268.472
-268.494
-268.515
-268.536
-268.556
-268.576
-268.595
-268.614
-268.632
-268.651
-268.668
-268.686
-268.703
-268.72
-268.736
-268.752
-268.768
-268.784
-268.799
-268.814
-268.829
-268.843
-268.858
-268.872
-268.885
-268.899
-268.912
-268.926
-268.939
-268.951
-268.964
-268.976
-268.989
-269.001
-269.013
-269.025
-269.036
-269.048
-269.059
-269.07
-269.081
-269.092
-269.103
-269.114
-269.125
-269.135
-269.146
-269.156
-269.166
-269.176
-269.187
-269.197
-269.206
-269.216
-269.226
-269.236
-269.245
-269.255
-269.264
-269.274
-269.283
-269.293
-269.302
-269.311
-269.32
-269.329
-269.338
-269.348
-269.357
-269.365
-269.374
-269.383
-269.392
-269.401
-269.41
-269.419
-269.427
-269.436
-269.445
-269.453
-269.462
-269.471
-269.479
-269.488
-269.497
-269.505
-269.514
-269.522
-269.531
-269.539
-269.548
-269.556
-269.565
-269.573
-269.582
-269.59
-269.599
-269.607
-269.616
-269.624
-269.633
-269.641
-269.649
-269.658
-269.666
-269.675
-269.683
-269.692
-269.7
-269.709
-269.717
-269.726
-269.734
-269.743
-269.751
-269.76
-269.768
-269.777
-269.785
-269.794
-269.802
-269.811
-269.819
-269.828
-269.836
-269.845
-269.854
-269.862
-269.871
-269.879
-269.888
-269.897
-269.905
-269.914
-269.923
-269.931
-269.94
-269.949
-269.957
-269.966
-269.975
-269.983
-269.992
-270.001
-270.01
-270.019
-270.027
-270.036
-270.045
-270.054
-270.063
-270.072
-270.08
-270.089
-270.098
-270.107
-270.116
-270.125
-270.134
-270.143
-270.152
-270.161
-270.17
-270.179
-270.188
-270.197
-270.206
-270.215
-270.224
-270.233
-270.242
-270.251
-270.26
-270.27
-270.279
-270.288
-270.297
-270.306
-270.316
-270.325
-270.334
-270.343
-270.352
-270.362
-270.371
-270.38
-270.39
-270.399
-270.408
-270.418
-270.427
-270.436
-270.446
-270.455
-270.465
-270.474
-270.483
-270.493
-270.502
-270.512
-270.521
-270.531
-270.54
-270.55
-270.559
-270.569
-270.578
-270.588
-270.598
-270.607
-270.617
-270.626
-270.636
-270.646
-270.655
-270.665
-270.674
-270.684
-270.694
-270.703
-270.713
-270.723
-270.732
-270.742
-270.752
-270.762
-270.771
-270.781
-270.791
-270.801
-270.81
-270.82
-270.83
-270.84
-270.849
-270.859
-270.869
-270.879
-270.889
-270.899
-270.908
-270.918
-270.928
-270.938
-270.948
-270.958
-270.968
-270.978
-270.988
-270.997
-271.007
-271.017
-271.027
-271.037
-271.047
-271.057
-271.067
-271.077
-271.087
-271.097
-271.107
-271.117
-271.127
-271.137
-271.147
-271.157
-271.167
-271.177
-271.187
-271.197
-271.207
-271.217
-271.227
-271.237
-271.248
-271.258
-271.268
-271.278
-271.288
-271.298
-271.308
-271.318
-271.329
-271.339
-271.349
-271.359
-271.369
-271.379
-271.389
-271.4
-271.41
-271.42
-271.43
-271.44
-271.45
-271.461
-271.471
-271.481
-271.491
-271.501
-271.511
-271.521
-271.531
-271.542
-271.552
-271.562
-271.572
-271.582
-271.592
-271.602
-271.612
-271.622
-271.632
-271.642
-271.652
-271.662
-271.672
-271.682
-271.692
-271.702
-271.712
-271.722
-271.732
-271.742
-271.752
-271.761
-271.771
-271.781
-271.791
-271.801
-271.811
-271.821
-271.83
-271.84
-271.85
-271.86
-271.87
-271.88
-271.889
-271.899
-271.909
-271.919
-271.929
-271.938
-271.948
-271.958
-271.968
-271.978
-271.987
-271.997
-272.007
-272.017
-272.027
-272.036
-272.046
-272.056
-272.066
-272.075
-272.085
-272.095
-272.105
-272.114
-272.124
-272.134
-272.144
-272.153
-272.163
-272.173
-272.183
-272.192
-272.202
-272.212
-272.221
-272.231
-272.241
-272.251
-272.26
-272.27
-272.28
-272.289
-272.299
-272.309
-272.318
-272.328
-272.338
-272.347
-272.357
-272.367
-272.376
-272.386
-272.396
-272.405
-272.415
-272.424
-272.434
-272.444
-272.453
-272.463
-272.472
-272.482
-272.491
-272.501
-272.511
-272.52
-272.53
-272.539
-272.549
-272.558
-272.568
-272.577
-272.587
-272.596
-272.606
-272.615
-272.624
-272.634
-272.643
-272.653
-272.662
-272.672
-272.681
-272.69
-272.7
-272.709
-272.718
-272.728
-272.737
-272.746
-272.756
-272.765
-272.774
-272.783
-272.793
-272.802
-272.811
-272.82
-272.83
-272.839
-272.848
-272.857
-272.866
-272.875
-272.885
-272.894
-272.903
-272.912
-272.921
-272.93
-272.939
-272.948
-272.957
-272.966
-272.975
-272.984
-272.993
-273.002
-273.011
-273.02
-273.028
-273.037
-273.046
-273.055
-273.064
-273.072
-273.081
-273.09
-273.099
-273.107
-273.116
-273.125
-273.133
-273.142
-273.15
-273.159
-273.167
-273.176
-273.184
-273.193
-273.201
-273.209
-273.218
-273.226
-273.234
-273.243
-273.251
-273.259
-273.267
-273.276
-273.284
-273.292
-273.3
-273.308
-273.316
-273.324
-273.332
-273.34
-273.348
-273.356
-273.364
-273.371
-273.379
-273.387
-273.395
-273.402
-273.41
-273.418
-273.425
-273.433
-273.44
-273.448
-273.455
-273.462
-273.47
-273.477
-273.484
-273.492
-273.499
-273.506
-273.513
-273.52
-273.527
-273.534
-273.541
-273.548
-273.555
-273.561
-273.568
-273.575
-273.581
-273.588
-273.594
-273.601
-273.607
-273.614
-273.62
-273.626
-273.632
-273.638
-273.644
-273.65
-273.656
-273.662
-273.668
-273.674
-273.679
-273.685
-273.69
-273.696
-273.701
-273.706
-273.712
-273.717
-273.722
-273.727
-273.731
-273.736
-273.741
-273.745
-273.75
-273.754
-273.758
-273.762
-273.766
-273.77
-273.774
-273.778
-273.781
-273.785
-273.788
-273.791
-273.794
-273.797
-273.8
-273.802
-273.805
-273.807
-273.809
-273.811
-273.813
-273.814
-273.816
-273.817
-273.818
-273.819
-273.819
-273.82
-273.82
-273.82
-273.82
-273.819
-273.819
-273.818
-273.816
-273.815
-273.813
-273.811
-273.809
-273.806
-273.803
-273.8
-273.797
-273.793
-273.788
-273.784
-273.779
-273.774
-273.768
-273.762
-273.756
-273.749
-273.741
-273.734
-273.725
-273.717
-273.708
-273.698
-273.688
-273.677
-273.666
-273.654
-273.642
-273.629
-273.615
-273.601
-273.586
-273.57
-273.554
-273.537
-273.519
-273.501
-273.481
-273.461
-273.44
-273.418
-273.396
-273.372
-273.348
-273.322
-273.296
-273.268
-273.239
-273.21
-273.179
-273.147
-273.114
-273.079
-273.044
-273.006
-272.968
-272.928
-272.887
-272.844
-272.8
-272.754
-272.707
-272.658
-272.607
-272.554
-272.5
-272.443
-272.385
-272.324
-272.262
-272.197
-272.13
-272.061
-271.989
-271.915
-271.839
-271.76
-271.678
-271.593
-271.506
-271.415
-271.322
-271.225
-271.126
-271.022
-270.916
-270.806
-270.692
-270.574
-270.453
-270.327
-270.198
-270.064
-269.925
-269.783
-269.635
-269.483
-269.325
-269.162
-268.994
-268.821
-268.642
-268.457
-268.266
-268.069
-267.865
-267.655
-267.438
-267.213
-266.982
-266.743
-266.496
-266.241
-265.978
-265.707
-265.427
-265.137
-264.838
-264.53
-264.211
-263.883
-263.543
-263.193
-262.831
-262.458
-262.073
-261.675
-261.264
-260.841
-260.403
-259.951
-259.485
-259.004
-258.507
-257.995
-257.465
-256.919
-256.355
-255.773
-255.172
-254.552
-253.912
-253.251
-252.569
-251.865
-251.138
-250.388
-249.613
-248.814
-247.988
-247.136
-246.257
-245.349
-244.412
-243.444
-242.445
-241.413
-240.349
-239.249
-238.114
-236.942
-235.731
-234.481
-233.191
-231.858
-230.482
-229.06
-227.592
-226.075
-224.509
-222.891
-221.219
-219.492
-217.707
-215.863
-213.957
-211.987
-209.952
-207.847
-205.671
-203.421
-201.095
-198.688
-196.199
-193.623
-190.957
-188.198
-185.342
-182.384
-179.32
-176.146
-172.856
-169.445
-165.907
-162.236
-158.426
-154.469
-150.357
-146.082
-141.634
-137.004
-132.179
-127.147
-121.894
-116.403
-110.657
-104.634
-98.3092
-91.6549
-84.6363
-77.2121
-69.331
-60.9289
-51.923
-42.2052
-31.6356
-20.0263
-6.99393
-42.9099
-75.481
-95.8915
-97.8329
-102.549
-104.521
-106.974
-109.867
-113.105
-116.584
-120.221
-123.947
-127.712
-131.479
-135.221
-138.916
-142.552
-146.117
-149.606
-153.012
-156.333
-159.567
-162.714
-165.773
-168.746
-171.633
-174.436
-177.155
-179.794
-182.354
-184.836
-187.243
-189.576
-191.838
-194.031
-196.156
-198.216
-200.213
-202.148
-204.023
-205.84
-207.601
-209.308
-210.961
-212.564
-214.117
-215.621
-217.08
-218.493
-219.862
-221.189
-222.475
-223.721
-224.928
-226.098
-227.232
-228.33
-229.395
-230.427
-231.427
-232.396
-233.335
-234.245
-235.127
-235.981
-236.809
-237.612
-238.39
-239.144
-239.874
-240.582
-241.268
-241.933
-242.578
-243.203
-243.808
-244.395
-244.963
-245.514
-246.049
-246.566
-247.068
-247.554
-248.026
-248.483
-248.926
-249.355
-249.771
-250.174
-250.565
-250.944
-251.311
-251.667
-252.012
-252.347
-252.671
-252.985
-253.29
-253.586
-253.872
-254.15
-254.419
-254.68
-254.933
-255.178
-255.416
-255.646
-255.87
-256.086
-256.296
-256.5
-256.698
-256.889
-257.075
-257.255
-257.43
-257.599
-257.763
-257.923
-258.077
-258.227
-258.373
-258.514
-258.65
-258.783
-258.912
-259.037
-259.158
-259.275
-259.389
-259.5
-259.607
-259.711
-259.812
-259.91
-260.006
-260.098
-260.188
-260.275
-260.359
-260.441
-260.521
-260.598
-260.673
-260.746
-260.817
-260.885
-260.952
-261.017
-261.08
-261.141
-261.201
-261.259
-261.315
-261.369
-261.422
-261.474
-261.524
-261.573
-261.62
-261.666
-261.711
-261.754
-261.797
-261.838
-261.878
-261.918
-261.956
-261.993
-262.029
-262.064
-262.098
-262.132
-262.164
-262.196
-262.226
-262.257
-262.286
-262.314
-262.342
-262.369
-262.396
-262.422
-262.447
-262.472
-262.496
-262.519
-262.542
-262.565
-262.586
-262.608
-262.629
-262.649
-262.669
-262.689
-262.708
-262.726
-262.745
-262.763
-262.78
-262.798
-262.814
-262.831
-262.847
-262.863
-262.879
-262.894
-262.909
-262.924
-262.939
-262.953
-262.967
-262.981
-262.994
-263.008
-263.021
-263.034
-263.047
-263.059
-263.072
-263.084
-263.096
-263.108
-263.12
-263.131
-263.143
-263.154
-263.165
-263.176
-263.187
-263.198
-263.209
-263.219
-263.23
-263.24
-263.25
-263.26
-263.27
-263.28
-263.29
-263.3
-263.309
-263.319
-263.329
-263.338
-263.348
-263.357
-263.366
-263.375
-263.384
-263.394
-263.403
-263.412
-263.421
-263.429
-263.438
-263.447
-263.456
-263.465
-263.473
-263.482
-263.491
-263.499
-263.508
-263.516
-263.525
-263.533
-263.542
-263.55
-263.559
-263.567
-263.575
-263.584
-263.592
-263.6
-263.609
-263.617
-263.625
-263.634
-263.642
-263.65
-263.658
-263.667
-263.675
-263.683
-263.691
-263.699
-263.708
-263.716
-263.724
-263.732
-263.74
-263.749
-263.757
-263.765
-263.773
-263.781
-263.79
-263.798
-263.806
-263.814
-263.822
-263.831
-263.839
-263.847
-263.855
-263.863
-263.872
-263.88
-263.888
-263.896
-263.905
-263.913
-263.921
-263.929
-263.938
-263.946
-263.954
-263.963
-263.971
-263.979
-263.988
-263.996
-264.004
-264.013
-264.021
-264.03
-264.038
-264.046
-264.055
-264.063
-264.072
-264.08
-264.089
-264.097
-264.106
-264.114
-264.123
-264.131
-264.14
-264.148
-264.157
-264.165
-264.174
-264.182
-264.191
-264.2
-264.208
-264.217
-264.226
-264.234
-264.243
-264.252
-264.26
-264.269
-264.278
-264.286
-264.295
-264.304
-264.313
-264.322
-264.33
-264.339
-264.348
-264.357
-264.366
-264.375
-264.383
-264.392
-264.401
-264.41
-264.419
-264.428
-264.437
-264.446
-264.455
-264.464
-264.473
-264.482
-264.491
-264.5
-264.509
-264.518
-264.527
-264.536
-264.545
-264.554
-264.563
-264.572
-264.582
-264.591
-264.6
-264.609
-264.618
-264.627
-264.636
-264.646
-264.655
-264.664
-264.673
-264.683
-264.692
-264.701
-264.71
-264.72
-264.729
-264.738
-264.748
-264.757
-264.766
-264.776
-264.785
-264.794
-264.804
-264.813
-264.822
-264.832
-264.841
-264.851
-264.86
-264.87
-264.879
-264.889
-264.898
-264.908
-264.917
-264.926
-264.936
-264.946
-264.955
-264.965
-264.974
-264.984
-264.993
-265.003
-265.012
-265.022
-265.032
-265.041
-265.051
-265.06
-265.07
-265.08
-265.089
-265.099
-265.109
-265.118
-265.128
-265.137
-265.147
-265.157
-265.167
-265.176
-265.186
-265.196
-265.205
-265.215
-265.225
-265.234
-265.244
-265.254
-265.264
-265.273
-265.283
-265.293
-265.303
-265.312
-265.322
-265.332
-265.342
-265.351
-265.361
-265.371
-265.381
-265.39
-265.4
-265.41
-265.42
-265.43
-265.439
-265.449
-265.459
-265.469
-265.479
-265.488
-265.498
-265.508
-265.518
-265.528
-265.537
-265.547
-265.557
-265.567
-265.577
-265.587
-265.596
-265.606
-265.616
-265.626
-265.636
-265.646
-265.655
-265.665
-265.675
-265.685
-265.695
-265.705
-265.714
-265.724
-265.734
-265.744
-265.754
-265.764
-265.773
-265.783
-265.793
-265.803
-265.813
-265.822
-265.832
-265.842
-265.852
-265.862
-265.871
-265.881
-265.891
-265.901
-265.91
-265.92
-265.93
-265.94
-265.949
-265.959
-265.969
-265.979
-265.988
-265.998
-266.008
-266.018
-266.027
-266.037
-266.047
-266.056
-266.066
-266.076
-266.086
-266.095
-266.105
-266.115
-266.124
-266.134
-266.144
-266.153
-266.163
-266.173
-266.182
-266.192
-266.201
-266.211
-266.221
-266.23
-266.24
-266.25
-266.259
-266.269
-266.278
-266.288
-266.297
-266.307
-266.317
-266.326
-266.336
-266.345
-266.355
-266.364
-266.374
-266.383
-266.393
-266.402
-266.412
-266.421
-266.431
-266.44
-266.45
-266.459
-266.469
-266.478
-266.487
-266.497
-266.506
-266.516
-266.525
-266.534
-266.544
-266.553
-266.563
-266.572
-266.581
-266.591
-266.6
-266.609
-266.619
-266.628
-266.637
-266.646
-266.656
-266.665
-266.674
-266.683
-266.693
-266.702
-266.711
-266.72
-266.729
-266.739
-266.748
-266.757
-266.766
-266.775
-266.784
-266.793
-266.802
-266.812
-266.821
-266.83
-266.839
-266.848
-266.857
-266.866
-266.875
-266.884
-266.893
-266.902
-266.911
-266.92
-266.929
-266.937
-266.946
-266.955
-266.964
-266.973
-266.982
-266.991
-266.999
-267.008
-267.017
-267.026
-267.034
-267.043
-267.052
-267.06
-267.069
-267.078
-267.086
-267.095
-267.103
-267.112
-267.121
-267.129
-267.138
-267.146
-267.154
-267.163
-267.171
-267.18
-267.188
-267.196
-267.205
-267.213
-267.221
-267.229
-267.238
-267.246
-267.254
-267.262
-267.27
-267.278
-267.286
-267.294
-267.302
-267.31
-267.318
-267.326
-267.334
-267.342
-267.35
-267.358
-267.366
-267.373
-267.381
-267.389
-267.396
-267.404
-267.412
-267.419
-267.427
-267.434
-267.442
-267.449
-267.456
-267.464
-267.471
-267.478
-267.486
-267.493
-267.5
-267.507
-267.514
-267.521
-267.528
-267.535
-267.542
-267.549
-267.556
-267.562
-267.569
-267.576
-267.582
-267.589
-267.595
-267.602
-267.608
-267.614
-267.621
-267.627
-267.633
-267.639
-267.645
-267.651
-267.657
-267.663
-267.668
-267.674
-267.68
-267.685
-267.691
-267.696
-267.701
-267.707
-267.712
-267.717
-267.722
-267.727
-267.731
-267.736
-267.741
-267.745
-267.75
-267.754
-267.758
-267.762
-267.766
-267.77
-267.774
-267.777
-267.781
-267.784
-267.787
-267.79
-267.793
-267.796
-267.799
-267.801
-267.803
-267.806
-267.808
-267.81
-267.811
-267.813
-267.814
-267.815
-267.816
-267.817
-267.818
-267.818
-267.818
-267.818
-267.818
-267.817
-267.816
-267.815
-267.814
-267.813
-267.811
-267.809
-267.806
-267.804
-267.801
-267.797
-267.794
-267.79
-267.786
-267.781
-267.776
-267.771
-267.765
-267.759
-267.752
-267.746
-267.738
-267.73
-267.722
-267.713
-267.704
-267.695
-267.684
-267.674
-267.662
-267.65
-267.638
-267.625
-267.611
-267.597
-267.582
-267.566
-267.55
-267.533
-267.515
-267.497
-267.478
-267.457
-267.437
-267.415
-267.392
-267.368
-267.344
-267.318
-267.292
-267.264
-267.236
-267.206
-267.175
-267.143
-267.11
-267.076
-267.04
-267.003
-266.965
-266.925
-266.884
-266.841
-266.797
-266.751
-266.703
-266.654
-266.604
-266.551
-266.496
-266.44
-266.382
-266.321
-266.259
-266.194
-266.128
-266.059
-265.987
-265.913
-265.837
-265.758
-265.676
-265.592
-265.504
-265.414
-265.321
-265.224
-265.125
-265.022
-264.915
-264.805
-264.692
-264.574
-264.453
-264.328
-264.199
-264.065
-263.927
-263.784
-263.637
-263.485
-263.327
-263.165
-262.998
-262.824
-262.646
-262.461
-262.27
-262.074
-261.87
-261.66
-261.444
-261.22
-260.989
-260.75
-260.504
-260.25
-259.987
-259.716
-259.436
-259.148
-258.849
-258.541
-258.224
-257.896
-257.557
-257.207
-256.846
-256.474
-256.089
-255.692
-255.283
-254.859
-254.423
-253.972
-253.507
-253.027
-252.531
-252.019
-251.491
-250.946
-250.383
-249.802
-249.203
-248.584
-247.945
-247.285
-246.605
-245.902
-245.176
-244.428
-243.655
-242.857
-242.033
-241.183
-240.305
-239.399
-238.464
-237.498
-236.501
-235.472
-234.409
-233.312
-232.179
-231.01
-229.802
-228.555
-227.267
-225.937
-224.563
-223.145
-221.68
-220.167
-218.604
-216.989
-215.321
-213.598
-211.818
-209.978
-208.077
-206.112
-204.081
-201.982
-199.811
-197.567
-195.247
-192.846
-190.364
-187.795
-185.137
-182.386
-179.538
-176.589
-173.535
-170.37
-167.091
-163.692
-160.167
-156.509
-152.714
-148.773
-144.678
-140.422
-135.996
-131.389
-126.59
-121.587
-116.367
-110.915
-105.212
-99.2397
-92.9755
-86.3933
-79.4628
-72.1484
-64.4079
-56.1911
-47.4385
-38.0817
-28.0505
-17.2858
-5.82914
-21.5876
-51.2519
-70.7853
-81.0921
-88.4323
-93.6204
-98.0134
-102.126
-106.15
-110.149
-114.135
-118.1
-122.031
-125.913
-129.736
-133.489
-137.165
-140.758
-144.265
-147.683
-151.012
-154.25
-157.398
-160.456
-163.427
-166.31
-169.108
-171.823
-174.457
-177.011
-179.487
-181.888
-184.215
-186.472
-188.659
-190.778
-192.832
-194.823
-196.753
-198.622
-200.434
-202.19
-203.892
-205.541
-207.138
-208.687
-210.187
-211.641
-213.05
-214.415
-215.738
-217.02
-218.262
-219.466
-220.632
-221.763
-222.858
-223.92
-224.948
-225.945
-226.911
-227.847
-228.755
-229.634
-230.486
-231.312
-232.112
-232.887
-233.639
-234.367
-235.073
-235.757
-236.42
-237.063
-237.686
-238.289
-238.874
-239.441
-239.991
-240.523
-241.039
-241.54
-242.025
-242.495
-242.95
-243.392
-243.82
-244.234
-244.636
-245.026
-245.404
-245.77
-246.125
-246.469
-246.803
-247.126
-247.439
-247.743
-248.038
-248.323
-248.6
-248.868
-249.128
-249.381
-249.625
-249.862
-250.092
-250.315
-250.531
-250.74
-250.943
-251.14
-251.331
-251.516
-251.696
-251.87
-252.039
-252.203
-252.362
-252.516
-252.665
-252.81
-252.951
-253.087
-253.219
-253.347
-253.472
-253.593
-253.71
-253.823
-253.934
-254.041
-254.145
-254.245
-254.343
-254.438
-254.53
-254.619
-254.706
-254.79
-254.872
-254.952
-255.029
-255.103
-255.176
-255.247
-255.315
-255.382
-255.446
-255.509
-255.57
-255.629
-255.687
-255.743
-255.797
-255.85
-255.901
-255.951
-256
-256.047
-256.093
-256.138
-256.181
-256.223
-256.265
-256.305
-256.344
-256.381
-256.418
-256.454
-256.489
-256.524
-256.557
-256.589
-256.621
-256.651
-256.681
-256.71
-256.739
-256.767
-256.794
-256.82
-256.846
-256.871
-256.896
-256.919
-256.943
-256.966
-256.988
-257.01
-257.031
-257.052
-257.072
-257.092
-257.111
-257.13
-257.149
-257.167
-257.185
-257.203
-257.22
-257.237
-257.253
-257.269
-257.285
-257.301
-257.316
-257.331
-257.346
-257.36
-257.374
-257.388
-257.402
-257.416
-257.429
-257.442
-257.455
-257.468
-257.48
-257.493
-257.505
-257.517
-257.528
-257.54
-257.552
-257.563
-257.574
-257.585
-257.596
-257.607
-257.618
-257.628
-257.639
-257.649
-257.659
-257.67
-257.68
-257.69
-257.7
-257.709
-257.719
-257.729
-257.738
-257.748
-257.757
-257.766
-257.776
-257.785
-257.794
-257.803
-257.812
-257.821
-257.83
-257.839
-257.848
-257.857
-257.865
-257.874
-257.883
-257.891
-257.9
-257.909
-257.917
-257.926
-257.934
-257.943
-257.951
-257.959
-257.968
-257.976
-257.984
-257.993
-258.001
-258.009
-258.018
-258.026
-258.034
-258.042
-258.05
-258.059
-258.067