/*--------------------------------*- C++ -*----------------------------------*\
| =========                 |                                                 |
| \\      /  F ield         | OpenFOAM: The Open Source CFD Toolbox           |
|  \\    /   O peration     | Version:  2512                                  |
|   \\  /    A nd           | Website:  www.openfoam.com                      |
|    \\/     M anipulation  |                                                 |
\*---------------------------------------------------------------------------*/
FoamFile
{
    version     2.0;
    format      ascii;
    arch        "LSB;label=32;scalar=64";
    class       surfaceScalarField;
    location    "3e-05";
    object      phi;
}
// * * * * * * * * * * * * * * * * * * * * * * * * * * * * * * * * * * * * * //

dimensions      [1 0 -1 0 0 0 0];

oriented        oriented;

internalField   nonuniform List<scalar> 
198900
(
-0.595931
-6.94204e-05
-0.595421
-7.47792e-05
-0.594999
-0.000132081
-0.59459
-0.000119931
-0.594164
-0.000136238
-0.593738
-0.000136245
-0.593309
-0.000138891
-0.592879
-0.000140203
-0.592448
-0.000141075
-0.592017
-0.000141663
-0.591585
-0.000142079
-0.591153
-0.000142384
-0.59072
-0.000142615
-0.590288
-0.000142794
-0.589855
-0.000142937
-0.589422
-0.000143052
-0.588989
-0.000143147
-0.588556
-0.000143226
-0.588123
-0.000143292
-0.58769
-0.000143348
-0.587257
-0.000143396
-0.586824
-0.000143438
-0.58639
-0.000143474
-0.585957
-0.000143506
-0.585524
-0.000143534
-0.58509
-0.000143558
-0.584657
-0.00014358
-0.584224
-0.000143599
-0.58379
-0.000143617
-0.583357
-0.000143632
-0.582923
-0.000143647
-0.58249
-0.000143659
-0.582056
-0.000143671
-0.581623
-0.000143682
-0.581189
-0.000143691
-0.580756
-0.0001437
-0.580322
-0.000143708
-0.579889
-0.000143716
-0.579455
-0.000143723
-0.579022
-0.00014373
-0.578588
-0.000143736
-0.578155
-0.000143741
-0.577721
-0.000143747
-0.577288
-0.000143752
-0.576854
-0.000143756
-0.57642
-0.000143761
-0.575987
-0.000143765
-0.575553
-0.000143769
-0.57512
-0.000143773
-0.574686
-0.000143776
-0.574252
-0.000143779
-0.573819
-0.000143783
-0.573385
-0.000143786
-0.572952
-0.000143789
-0.572518
-0.000143792
-0.572084
-0.000143794
-0.571651
-0.000143797
-0.571217
-0.000143799
-0.570783
-0.000143802
-0.57035
-0.000143804
-0.569916
-0.000143807
-0.569482
-0.000143809
-0.569049
-0.000143811
-0.568615
-0.000143814
-0.568181
-0.000143816
-0.567748
-0.000143818
-0.567314
-0.00014382
-0.56688
-0.000143822
-0.566446
-0.000143824
-0.566013
-0.000143826
-0.565579
-0.000143828
-0.565145
-0.00014383
-0.564712
-0.000143832
-0.564278
-0.000143834
-0.563844
-0.000143836
-0.56341
-0.000143838
-0.562977
-0.00014384
-0.562543
-0.000143842
-0.562109
-0.000143844
-0.561675
-0.000143846
-0.561241
-0.000143848
-0.560808
-0.000143849
-0.560374
-0.000143851
-0.55994
-0.000143853
-0.559506
-0.000143855
-0.559073
-0.000143857
-0.558639
-0.000143859
-0.558205
-0.000143861
-0.557771
-0.000143863
-0.557337
-0.000143865
-0.556903
-0.000143867
-0.55647
-0.000143869
-0.556036
-0.000143871
-0.555602
-0.000143873
-0.555168
-0.000143875
-0.554734
-0.000143877
-0.5543
-0.000143879
-0.553866
-0.000143881
-0.553433
-0.000143883
-0.552999
-0.000143886
-0.552565
-0.000143888
-0.552131
-0.00014389
-0.551697
-0.000143892
-0.551263
-0.000143894
-0.550829
-0.000143896
-0.550395
-0.000143899
-0.549961
-0.000143901
-0.549527
-0.000143903
-0.549093
-0.000143905
-0.548659
-0.000143908
-0.548225
-0.00014391
-0.547791
-0.000143912
-0.547357
-0.000143914
-0.546923
-0.000143917
-0.546489
-0.000143919
-0.546055
-0.000143921
-0.545621
-0.000143924
-0.545187
-0.000143926
-0.544753
-0.000143928
-0.544319
-0.000143931
-0.543885
-0.000143933
-0.543451
-0.000143936
-0.543017
-0.000143938
-0.542583
-0.000143941
-0.542149
-0.000143943
-0.541715
-0.000143946
-0.541281
-0.000143948
-0.540847
-0.000143951
-0.540413
-0.000143953
-0.539979
-0.000143956
-0.539545
-0.000143958
-0.53911
-0.000143961
-0.538676
-0.000143964
-0.538242
-0.000143966
-0.537808
-0.000143969
-0.537374
-0.000143971
-0.53694
-0.000143974
-0.536505
-0.000143977
-0.536071
-0.000143979
-0.535637
-0.000143982
-0.535203
-0.000143985
-0.534769
-0.000143987
-0.534334
-0.00014399
-0.5339
-0.000143993
-0.533466
-0.000143996
-0.533032
-0.000143999
-0.532598
-0.000144001
-0.532163
-0.000144004
-0.531729
-0.000144007
-0.531295
-0.00014401
-0.53086
-0.000144013
-0.530426
-0.000144016
-0.529992
-0.000144018
-0.529558
-0.000144021
-0.529123
-0.000144024
-0.528689
-0.000144027
-0.528255
-0.00014403
-0.52782
-0.000144033
-0.527386
-0.000144036
-0.526951
-0.000144039
-0.526517
-0.000144042
-0.526083
-0.000144045
-0.525648
-0.000144048
-0.525214
-0.000144051
-0.52478
-0.000144054
-0.524345
-0.000144057
-0.523911
-0.00014406
-0.523476
-0.000144063
-0.523042
-0.000144066
-0.522607
-0.000144069
-0.522173
-0.000144072
-0.521738
-0.000144075
-0.521304
-0.000144078
-0.520869
-0.000144081
-0.520435
-0.000144085
-0.52
-0.000144088
-0.519566
-0.000144091
-0.519131
-0.000144094
-0.518697
-0.000144097
-0.518262
-0.0001441
-0.517828
-0.000144103
-0.517393
-0.000144107
-0.516958
-0.00014411
-0.516524
-0.000144113
-0.516089
-0.000144116
-0.515655
-0.000144119
-0.51522
-0.000144122
-0.514785
-0.000144126
-0.514351
-0.000144129
-0.513916
-0.000144132
-0.513481
-0.000144135
-0.513047
-0.000144139
-0.512612
-0.000144142
-0.512177
-0.000144145
-0.511743
-0.000144148
-0.511308
-0.000144152
-0.510873
-0.000144155
-0.510438
-0.000144158
-0.510004
-0.000144162
-0.509569
-0.000144165
-0.509134
-0.000144168
-0.508699
-0.000144172
-0.508265
-0.000144175
-0.50783
-0.000144178
-0.507395
-0.000144181
-0.50696
-0.000144185
-0.506525
-0.000144188
-0.50609
-0.000144191
-0.505656
-0.000144195
-0.505221
-0.000144198
-0.504786
-0.000144201
-0.504351
-0.000144205
-0.503916
-0.000144208
-0.503481
-0.000144211
-0.503046
-0.000144215
-0.502611
-0.000144218
-0.502176
-0.000144221
-0.501742
-0.000144225
-0.501307
-0.000144228
-0.500872
-0.000144232
-0.500437
-0.000144235
-0.500002
-0.000144238
-0.499567
-0.000144242
-0.499132
-0.000144245
-0.498697
-0.000144249
-0.498262
-0.000144252
-0.497827
-0.000144255
-0.497392
-0.000144259
-0.496956
-0.000144262
-0.496521
-0.000144265
-0.496086
-0.000144269
-0.495651
-0.000144272
-0.495216
-0.000144276
-0.494781
-0.000144279
-0.494346
-0.000144282
-0.493911
-0.000144286
-0.493476
-0.000144289
-0.49304
-0.000144292
-0.492605
-0.000144296
-0.49217
-0.000144299
-0.491735
-0.000144303
-0.4913
-0.000144306
-0.490865
-0.000144309
-0.490429
-0.000144313
-0.489994
-0.000144316
-0.489559
-0.00014432
-0.489124
-0.000144323
-0.488688
-0.000144326
-0.488253
-0.00014433
-0.487818
-0.000144333
-0.487383
-0.000144336
-0.486947
-0.00014434
-0.486512
-0.000144343
-0.486077
-0.000144346
-0.485641
-0.00014435
-0.485206
-0.000144353
-0.484771
-0.000144356
-0.484335
-0.00014436
-0.4839
-0.000144363
-0.483464
-0.000144366
-0.483029
-0.00014437
-0.482594
-0.000144373
-0.482158
-0.000144376
-0.481723
-0.00014438
-0.481287
-0.000144383
-0.480852
-0.000144386
-0.480416
-0.00014439
-0.479981
-0.000144393
-0.479546
-0.000144396
-0.47911
-0.0001444
-0.478675
-0.000144403
-0.478239
-0.000144406
-0.477804
-0.00014441
-0.477368
-0.000144413
-0.476932
-0.000144416
-0.476497
-0.00014442
-0.476061
-0.000144423
-0.475626
-0.000144426
-0.47519
-0.000144429
-0.474755
-0.000144432
-0.474319
-0.000144436
-0.473883
-0.000144439
-0.473448
-0.000144442
-0.473012
-0.000144445
-0.472577
-0.000144448
-0.472141
-0.000144451
-0.471705
-0.000144455
-0.47127
-0.000144458
-0.470834
-0.000144461
-0.470398
-0.000144464
-0.469963
-0.000144467
-0.469527
-0.000144471
-0.469091
-0.000144474
-0.468655
-0.000144477
-0.46822
-0.00014448
-0.467784
-0.000144483
-0.467348
-0.000144486
-0.466912
-0.000144489
-0.466477
-0.000144492
-0.466041
-0.000144495
-0.465605
-0.000144498
-0.465169
-0.000144501
-0.464733
-0.000144504
-0.464298
-0.000144507
-0.463862
-0.00014451
-0.463426
-0.000144513
-0.46299
-0.000144516
-0.462554
-0.000144519
-0.462118
-0.000144522
-0.461683
-0.000144525
-0.461247
-0.000144528
-0.460811
-0.000144531
-0.460375
-0.000144534
-0.459939
-0.000144537
-0.459503
-0.00014454
-0.459067
-0.000144543
-0.458631
-0.000144546
-0.458195
-0.000144548
-0.457759
-0.000144551
-0.457323
-0.000144554
-0.456887
-0.000144557
-0.456451
-0.00014456
-0.456015
-0.000144562
-0.455579
-0.000144565
-0.455143
-0.000144568
-0.454707
-0.000144571
-0.454271
-0.000144573
-0.453835
-0.000144576
-0.453399
-0.000144579
-0.452963
-0.000144581
-0.452527
-0.000144584
-0.452091
-0.000144587
-0.451655
-0.000144589
-0.451219
-0.000144592
-0.450783
-0.000144595
-0.450347
-0.000144597
-0.449911
-0.0001446
-0.449475
-0.000144602
-0.449038
-0.000144605
-0.448602
-0.000144608
-0.448166
-0.00014461
-0.44773
-0.000144613
-0.447294
-0.000144615
-0.446858
-0.000144618
-0.446422
-0.00014462
-0.445985
-0.000144623
-0.445549
-0.000144625
-0.445113
-0.000144627
-0.444677
-0.00014463
-0.444241
-0.000144632
-0.443804
-0.000144634
-0.443368
-0.000144637
-0.442932
-0.000144639
-0.442496
-0.000144641
-0.442059
-0.000144644
-0.441623
-0.000144646
-0.441187
-0.000144648
-0.440751
-0.00014465
-0.440314
-0.000144653
-0.439878
-0.000144655
-0.439442
-0.000144657
-0.439006
-0.000144659
-0.438569
-0.000144661
-0.438133
-0.000144664
-0.437697
-0.000144666
-0.43726
-0.000144668
-0.436824
-0.00014467
-0.436388
-0.000144672
-0.435951
-0.000144674
-0.435515
-0.000144676
-0.435079
-0.000144678
-0.434642
-0.00014468
-0.434206
-0.000144682
-0.43377
-0.000144684
-0.433333
-0.000144686
-0.432897
-0.000144688
-0.43246
-0.00014469
-0.432024
-0.000144692
-0.431588
-0.000144693
-0.431151
-0.000144695
-0.430715
-0.000144697
-0.430278
-0.000144699
-0.429842
-0.000144701
-0.429405
-0.000144702
-0.428969
-0.000144704
-0.428533
-0.000144706
-0.428096
-0.000144707
-0.42766
-0.000144709
-0.427223
-0.000144711
-0.426787
-0.000144712
-0.42635
-0.000144714
-0.425914
-0.000144716
-0.425477
-0.000144717
-0.425041
-0.000144719
-0.424604
-0.000144721
-0.424168
-0.000144722
-0.423731
-0.000144724
-0.423295
-0.000144725
-0.422858
-0.000144726
-0.422422
-0.000144728
-0.421985
-0.000144729
-0.421549
-0.000144731
-0.421112
-0.000144732
-0.420676
-0.000144733
-0.420239
-0.000144735
-0.419803
-0.000144736
-0.419366
-0.000144737
-0.41893
-0.000144738
-0.418493
-0.00014474
-0.418057
-0.000144741
-0.41762
-0.000144742
-0.417183
-0.000144743
-0.416747
-0.000144745
-0.41631
-0.000144746
-0.415874
-0.000144747
-0.415437
-0.000144748
-0.415001
-0.000144749
-0.414564
-0.00014475
-0.414127
-0.000144751
-0.413691
-0.000144752
-0.413254
-0.000144753
-0.412818
-0.000144754
-0.412381
-0.000144755
-0.411944
-0.000144756
-0.411508
-0.000144757
-0.411071
-0.000144758
-0.410635
-0.000144759
-0.410198
-0.000144759
-0.409761
-0.00014476
-0.409325
-0.000144761
-0.408888
-0.000144762
-0.408452
-0.000144763
-0.408015
-0.000144763
-0.407578
-0.000144764
-0.407142
-0.000144765
-0.406705
-0.000144765
-0.406268
-0.000144766
-0.405832
-0.000144767
-0.405395
-0.000144767
-0.404959
-0.000144768
-0.404522
-0.000144768
-0.404085
-0.000144769
-0.403649
-0.00014477
-0.403212
-0.00014477
-0.402775
-0.000144771
-0.402339
-0.000144771
-0.401902
-0.000144771
-0.401465
-0.000144772
-0.401029
-0.000144772
-0.400592
-0.000144773
-0.400155
-0.000144773
-0.399719
-0.000144773
-0.399282
-0.000144774
-0.398845
-0.000144774
-0.398409
-0.000144774
-0.397972
-0.000144774
-0.397535
-0.000144775
-0.397099
-0.000144775
-0.396662
-0.000144775
-0.396225
-0.000144775
-0.395789
-0.000144775
-0.395352
-0.000144775
-0.394915
-0.000144775
-0.394479
-0.000144776
-0.394042
-0.000144776
-0.393605
-0.000144776
-0.393169
-0.000144776
-0.392732
-0.000144775
-0.392295
-0.000144775
-0.391859
-0.000144775
-0.391422
-0.000144775
-0.390985
-0.000144774
-0.390549
-0.000144774
-0.390112
-0.000144773
-0.389675
-0.000144772
-0.389239
-0.000144771
-0.388802
-0.00014477
-0.388365
-0.00014477
-0.387929
-0.000144769
-0.387492
-0.000144769
-0.387055
-0.000144768
-0.386619
-0.000144768
-0.386182
-0.000144767
-0.385746
-0.000144766
-0.385309
-0.000144766
-0.384872
-0.000144765
-0.384436
-0.000144764
-0.383999
-0.000144764
-0.383562
-0.000144763
-0.383126
-0.000144762
-0.382689
-0.000144762
-0.382252
-0.000144761
-0.381816
-0.00014476
-0.381379
-0.00014476
-0.380942
-0.000144759
-0.380506
-0.000144758
-0.380069
-0.000144757
-0.379633
-0.000144757
-0.379196
-0.000144756
-0.378759
-0.000144755
-0.378323
-0.000144754
-0.377886
-0.000144753
-0.377449
-0.000144752
-0.377013
-0.000144751
-0.376576
-0.00014475
-0.37614
-0.000144749
-0.375703
-0.000144748
-0.375266
-0.000144747
-0.37483
-0.000144746
-0.374393
-0.000144745
-0.373957
-0.000144744
-0.37352
-0.000144743
-0.373083
-0.000144741
-0.372647
-0.00014474
-0.37221
-0.000144739
-0.371774
-0.000144738
-0.371337
-0.000144737
-0.370901
-0.000144736
-0.370464
-0.000144734
-0.370027
-0.000144733
-0.369591
-0.000144732
-0.369154
-0.000144731
-0.368718
-0.00014473
-0.368281
-0.000144729
-0.367845
-0.000144728
-0.367408
-0.000144727
-0.366972
-0.000144726
-0.366535
-0.000144725
-0.366099
-0.000144724
-0.365662
-0.000144723
-0.365225
-0.000144722
-0.364789
-0.000144721
-0.364352
-0.00014472
-0.363916
-0.000144719
-0.363479
-0.000144718
-0.363043
-0.000144717
-0.362606
-0.000144715
-0.36217
-0.000144714
-0.361733
-0.000144712
-0.361297
-0.00014471
-0.36086
-0.000144709
-0.360424
-0.000144707
-0.359987
-0.000144705
-0.359551
-0.000144703
-0.359115
-0.000144702
-0.358678
-0.0001447
-0.358242
-0.000144698
-0.357805
-0.000144696
-0.357369
-0.000144694
-0.356932
-0.000144692
-0.356496
-0.00014469
-0.356059
-0.000144689
-0.355623
-0.000144687
-0.355187
-0.000144685
-0.35475
-0.000144683
-0.354314
-0.000144681
-0.353877
-0.000144679
-0.353441
-0.000144677
-0.353005
-0.000144675
-0.352568
-0.000144672
-0.352132
-0.00014467
-0.351696
-0.000144668
-0.351259
-0.000144666
-0.350823
-0.000144664
-0.350387
-0.000144662
-0.34995
-0.00014466
-0.349514
-0.000144657
-0.349078
-0.000144655
-0.348641
-0.000144653
-0.348205
-0.000144651
-0.347769
-0.000144649
-0.347332
-0.000144646
-0.346896
-0.000144644
-0.34646
-0.000144642
-0.346023
-0.000144639
-0.345587
-0.000144637
-0.345151
-0.000144635
-0.344715
-0.000144632
-0.344278
-0.00014463
-0.343842
-0.000144627
-0.343406
-0.000144625
-0.34297
-0.000144623
-0.342533
-0.00014462
-0.342097
-0.000144618
-0.341661
-0.000144615
-0.341225
-0.000144613
-0.340789
-0.00014461
-0.340352
-0.000144608
-0.339916
-0.000144605
-0.33948
-0.000144603
-0.339044
-0.0001446
-0.338608
-0.000144598
-0.338172
-0.000144595
-0.337735
-0.000144592
-0.337299
-0.00014459
-0.336863
-0.000144587
-0.336427
-0.000144585
-0.335991
-0.000144582
-0.335555
-0.000144579
-0.335119
-0.000144577
-0.334683
-0.000144574
-0.334247
-0.000144571
-0.33381
-0.000144569
-0.333374
-0.000144566
-0.332938
-0.000144563
-0.332502
-0.000144561
-0.332066
-0.000144558
-0.33163
-0.000144555
-0.331194
-0.000144552
-0.330758
-0.00014455
-0.330322
-0.000144547
-0.329886
-0.000144544
-0.32945
-0.000144541
-0.329014
-0.000144538
-0.328578
-0.000144536
-0.328142
-0.000144533
-0.327706
-0.00014453
-0.32727
-0.000144527
-0.326834
-0.000144524
-0.326398
-0.000144521
-0.325963
-0.000144518
-0.325527
-0.000144516
-0.325091
-0.000144513
-0.324655
-0.00014451
-0.324219
-0.000144507
-0.323783
-0.000144504
-0.323347
-0.000144501
-0.322911
-0.000144498
-0.322475
-0.000144495
-0.32204
-0.000144492
-0.321604
-0.000144489
-0.321168
-0.000144486
-0.320732
-0.000144483
-0.320296
-0.00014448
-0.31986
-0.000144477
-0.319425
-0.000144475
-0.318989
-0.000144472
-0.318553
-0.000144468
-0.318117
-0.000144465
-0.317682
-0.000144462
-0.317246
-0.000144459
-0.31681
-0.000144456
-0.316374
-0.000144453
-0.315939
-0.00014445
-0.315503
-0.000144447
-0.315067
-0.000144444
-0.314631
-0.000144441
-0.314196
-0.000144438
-0.31376
-0.000144435
-0.313324
-0.000144432
-0.312889
-0.000144429
-0.312453
-0.000144426
-0.312017
-0.000144423
-0.311582
-0.00014442
-0.311146
-0.000144417
-0.310711
-0.000144414
-0.310275
-0.00014441
-0.309839
-0.000144407
-0.309404
-0.000144404
-0.308968
-0.000144401
-0.308533
-0.000144398
-0.308097
-0.000144395
-0.307662
-0.000144392
-0.307226
-0.000144389
-0.306791
-0.000144386
-0.306355
-0.000144383
-0.305919
-0.000144379
-0.305484
-0.000144376
-0.305048
-0.000144373
-0.304613
-0.00014437
-0.304178
-0.000144367
-0.303742
-0.000144364
-0.303307
-0.000144361
-0.302871
-0.000144358
-0.302436
-0.000144355
-0.302
-0.000144352
-0.301565
-0.000144348
-0.301129
-0.000144345
-0.300694
-0.000144342
-0.300259
-0.000144339
-0.299823
-0.000144336
-0.299388
-0.000144333
-0.298953
-0.00014433
-0.298517
-0.000144327
-0.298082
-0.000144324
-0.297646
-0.000144321
-0.297211
-0.000144317
-0.296776
-0.000144314
-0.296341
-0.000144311
-0.295905
-0.000144308
-0.29547
-0.000144305
-0.295035
-0.000144302
-0.294599
-0.000144299
-0.294164
-0.000144296
-0.293729
-0.000144293
-0.293294
-0.00014429
-0.292858
-0.000144287
-0.292423
-0.000144284
-0.291988
-0.000144281
-0.291553
-0.000144278
-0.291117
-0.000144275
-0.290682
-0.000144272
-0.290247
-0.000144269
-0.289812
-0.000144266
-0.289377
-0.000144263
-0.288942
-0.00014426
-0.288506
-0.000144257
-0.288071
-0.000144254
-0.287636
-0.000144251
-0.287201
-0.000144248
-0.286766
-0.000144245
-0.286331
-0.000144242
-0.285896
-0.000144239
-0.285461
-0.000144236
-0.285026
-0.000144233
-0.284591
-0.00014423
-0.284155
-0.000144227
-0.28372
-0.000144224
-0.283285
-0.000144222
-0.28285
-0.000144219
-0.282415
-0.000144216
-0.28198
-0.000144213
-0.281545
-0.00014421
-0.28111
-0.000144207
-0.280675
-0.000144204
-0.28024
-0.000144202
-0.279805
-0.000144199
-0.27937
-0.000144196
-0.278935
-0.000144193
-0.2785
-0.00014419
-0.278066
-0.000144188
-0.277631
-0.000144185
-0.277196
-0.000144182
-0.276761
-0.000144179
-0.276326
-0.000144177
-0.275891
-0.000144174
-0.275456
-0.000144171
-0.275021
-0.000144169
-0.274586
-0.000144166
-0.274151
-0.000144163
-0.273717
-0.000144161
-0.273282
-0.000144158
-0.272847
-0.000144156
-0.272412
-0.000144153
-0.271977
-0.00014415
-0.271542
-0.000144148
-0.271108
-0.000144145
-0.270673
-0.000144143
-0.270238
-0.00014414
-0.269803
-0.000144138
-0.269368
-0.000144135
-0.268934
-0.000144133
-0.268499
-0.00014413
-0.268064
-0.000144128
-0.267629
-0.000144125
-0.267195
-0.000144123
-0.26676
-0.00014412
-0.266325
-0.000144118
-0.26589
-0.000144116
-0.265456
-0.000144113
-0.265021
-0.000144111
-0.264586
-0.000144109
-0.264151
-0.000144106
-0.263717
-0.000144104
-0.263282
-0.000144102
-0.262847
-0.000144099
-0.262413
-0.000144097
-0.261978
-0.000144095
-0.261543
-0.000144093
-0.261109
-0.00014409
-0.260674
-0.000144088
-0.260239
-0.000144086
-0.259805
-0.000144084
-0.25937
-0.000144082
-0.258936
-0.00014408
-0.258501
-0.000144078
-0.258066
-0.000144076
-0.257632
-0.000144074
-0.257197
-0.000144072
-0.256763
-0.00014407
-0.256328
-0.000144068
-0.255893
-0.000144066
-0.255459
-0.000144064
-0.255024
-0.000144062
-0.25459
-0.00014406
-0.254155
-0.000144058
-0.253721
-0.000144056
-0.253286
-0.000144054
-0.252851
-0.000144052
-0.252417
-0.00014405
-0.251982
-0.000144049
-0.251548
-0.000144047
-0.251113
-0.000144045
-0.250679
-0.000144043
-0.250244
-0.000144042
-0.24981
-0.00014404
-0.249375
-0.000144038
-0.248941
-0.000144037
-0.248506
-0.000144035
-0.248072
-0.000144033
-0.247637
-0.000144032
-0.247203
-0.00014403
-0.246768
-0.000144028
-0.246334
-0.000144027
-0.245899
-0.000144025
-0.245465
-0.000144024
-0.24503
-0.000144022
-0.244596
-0.000144021
-0.244162
-0.000144019
-0.243727
-0.000144018
-0.243293
-0.000144016
-0.242858
-0.000144015
-0.242424
-0.000144014
-0.241989
-0.000144012
-0.241555
-0.000144011
-0.241121
-0.00014401
-0.240686
-0.000144008
-0.240252
-0.000144007
-0.239817
-0.000144006
-0.239383
-0.000144004
-0.238948
-0.000144003
-0.238514
-0.000144002
-0.23808
-0.000144001
-0.237645
-0.000144
-0.237211
-0.000143998
-0.236776
-0.000143997
-0.236342
-0.000143996
-0.235908
-0.000143995
-0.235473
-0.000143994
-0.235039
-0.000143993
-0.234604
-0.000143991
-0.23417
-0.00014399
-0.233736
-0.000143989
-0.233301
-0.000143988
-0.232867
-0.000143987
-0.232433
-0.000143986
-0.231998
-0.000143985
-0.231564
-0.000143984
-0.231129
-0.000143983
-0.230695
-0.000143982
-0.230261
-0.000143981
-0.229826
-0.00014398
-0.229392
-0.000143979
-0.228958
-0.000143978
-0.228523
-0.000143977
-0.228089
-0.000143976
-0.227655
-0.000143976
-0.22722
-0.000143975
-0.226786
-0.000143974
-0.226351
-0.000143973
-0.225917
-0.000143972
-0.225483
-0.000143971
-0.225048
-0.00014397
-0.224614
-0.000143969
-0.22418
-0.000143968
-0.223745
-0.000143967
-0.223311
-0.000143966
-0.222877
-0.000143965
-0.222442
-0.000143964
-0.222008
-0.000143963
-0.221574
-0.000143963
-0.221139
-0.000143962
-0.220705
-0.000143961
-0.220271
-0.00014396
-0.219836
-0.000143959
-0.219402
-0.000143958
-0.218967
-0.000143957
-0.218533
-0.000143956
-0.218099
-0.000143955
-0.217664
-0.000143953
-0.21723
-0.000143952
-0.216796
-0.000143951
-0.216361
-0.00014395
-0.215927
-0.000143949
-0.215493
-0.000143948
-0.215058
-0.000143946
-0.214624
-0.000143945
-0.21419
-0.000143944
-0.213755
-0.000143942
-0.213321
-0.000143941
-0.212887
-0.000143939
-0.212452
-0.000143938
-0.212018
-0.000143936
-0.211583
-0.000143935
-0.211149
-0.000143933
-0.210715
-0.000143931
-0.21028
-0.00014393
-0.209846
-0.000143928
-0.209412
-0.000143926
-0.208977
-0.000143924
-0.208543
-0.000143922
-0.208109
-0.000143919
-0.207674
-0.000143917
-0.20724
-0.000143915
-0.206805
-0.000143912
-0.206371
-0.00014391
-0.205937
-0.000143907
-0.205502
-0.000143904
-0.205068
-0.000143901
-0.204634
-0.000143898
-0.204199
-0.000143895
-0.203765
-0.000143892
-0.20333
-0.000143888
-0.202896
-0.000143885
-0.202462
-0.000143881
-0.202027
-0.000143877
-0.201593
-0.000143873
-0.201159
-0.000143868
-0.200724
-0.000143864
-0.20029
-0.000143859
-0.199855
-0.000143854
-0.199421
-0.000143849
-0.198987
-0.000143844
-0.198552
-0.000143838
-0.198118
-0.000143833
-0.197683
-0.000143826
-0.197249
-0.00014382
-0.196815
-0.000143813
-0.19638
-0.000143806
-0.195946
-0.000143799
-0.195512
-0.000143791
-0.195077
-0.000143783
-0.194643
-0.000143775
-0.194209
-0.000143766
-0.193774
-0.000143757
-0.19334
-0.000143748
-0.192906
-0.000143737
-0.192471
-0.000143727
-0.192037
-0.000143716
-0.191603
-0.000143704
-0.191168
-0.000143692
-0.190734
-0.000143679
-0.1903
-0.000143666
-0.189865
-0.000143652
-0.189431
-0.000143638
-0.188997
-0.000143622
-0.188562
-0.000143606
-0.188128
-0.000143589
-0.187694
-0.000143571
-0.18726
-0.000143553
-0.186825
-0.000143533
-0.186391
-0.000143512
-0.185957
-0.00014349
-0.185523
-0.000143468
-0.185089
-0.000143444
-0.184655
-0.000143418
-0.18422
-0.000143392
-0.183786
-0.000143364
-0.183352
-0.000143334
-0.182918
-0.000143304
-0.182484
-0.000143271
-0.18205
-0.000143237
-0.181616
-0.0001432
-0.181182
-0.000143162
-0.180748
-0.000143122
-0.180315
-0.000143079
-0.179881
-0.000143034
-0.179447
-0.000142986
-0.179013
-0.000142936
-0.178579
-0.000142882
-0.178146
-0.000142826
-0.177712
-0.000142766
-0.177279
-0.000142702
-0.176845
-0.000142634
-0.176412
-0.000142562
-0.175979
-0.000142485
-0.175545
-0.000142403
-0.175112
-0.000142315
-0.174679
-0.000142221
-0.174246
-0.00014212
-0.173813
-0.000142011
-0.17338
-0.000141894
-0.172948
-0.000141768
-0.172515
-0.000141631
-0.172083
-0.000141482
-0.171651
-0.000141321
-0.171219
-0.000141144
-0.170787
-0.000140951
-0.170355
-0.00014074
-0.169924
-0.000140507
-0.169492
-0.00014025
-0.169062
-0.000139966
-0.168631
-0.00013965
-0.168201
-0.000139297
-0.167771
-0.000138898
-0.167342
-0.000138444
-0.166913
-0.00013792
-0.166485
-0.00013731
-0.166057
-0.000136594
-0.16563
-0.000135742
-0.165205
-0.000134716
-0.16478
-0.00013346
-0.164357
-0.000131873
-0.163937
-0.000129779
-0.163519
-0.000126863
-0.163105
-0.000122514
-0.162699
-0.000115518
-0.162304
-0.000103622
-0.16193
-8.37168e-05
-3.46253e-05
-0.595655
2.0273e-05
-0.595144
-6.56976e-06
-0.594727
-4.10333e-05
-0.594298
-4.19973e-05
-0.593872
-5.54828e-05
-0.593443
-5.83451e-05
-0.593013
-6.14304e-05
-0.592582
-6.34412e-05
-0.592152
-6.4846e-05
-0.59172
-6.58608e-05
-0.591289
-6.66133e-05
-0.590857
-6.71841e-05
-0.590424
-6.76258e-05
-0.589992
-6.79738e-05
-0.58956
-6.82523e-05
-0.589127
-6.84785e-05
-0.588694
-6.86645e-05
-0.588262
-6.88192e-05
-0.587829
-6.89492e-05
-0.587396
-6.90596e-05
-0.586963
-6.91539e-05
-0.58653
-6.92351e-05
-0.586097
-6.93056e-05
-0.585664
-6.93671e-05
-0.585231
-6.9421e-05
-0.584798
-6.94686e-05
-0.584365
-6.95108e-05
-0.583931
-6.95484e-05
-0.583498
-6.9582e-05
-0.583065
-6.9612e-05
-0.582632
-6.96391e-05
-0.582199
-6.96635e-05
-0.581766
-6.96856e-05
-0.581332
-6.97056e-05
-0.580899
-6.97238e-05
-0.580466
-6.97403e-05
-0.580033
-6.97554e-05
-0.579599
-6.97692e-05
-0.579166
-6.97819e-05
-0.578733
-6.97935e-05
-0.578299
-6.98042e-05
-0.577866
-6.9814e-05
-0.577433
-6.9823e-05
-0.576999
-6.98314e-05
-0.576566
-6.98391e-05
-0.576133
-6.98462e-05
-0.5757
-6.98529e-05
-0.575266
-6.9859e-05
-0.574833
-6.98648e-05
-0.574399
-6.98702e-05
-0.573966
-6.98752e-05
-0.573533
-6.98798e-05
-0.573099
-6.98842e-05
-0.572666
-6.98883e-05
-0.572233
-6.98922e-05
-0.571799
-6.98958e-05
-0.571366
-6.98992e-05
-0.570932
-6.99023e-05
-0.570499
-6.99053e-05
-0.570066
-6.99081e-05
-0.569632
-6.99107e-05
-0.569199
-6.99132e-05
-0.568765
-6.99155e-05
-0.568332
-6.99177e-05
-0.567899
-6.99198e-05
-0.567465
-6.99218e-05
-0.567032
-6.99237e-05
-0.566598
-6.99255e-05
-0.566165
-6.99272e-05
-0.565731
-6.99289e-05
-0.565298
-6.99306e-05
-0.564864
-6.99321e-05
-0.564431
-6.99337e-05
-0.563997
-6.99351e-05
-0.563564
-6.99366e-05
-0.56313
-6.99379e-05
-0.562697
-6.99393e-05
-0.562263
-6.99405e-05
-0.56183
-6.99417e-05
-0.561396
-6.99429e-05
-0.560963
-6.99441e-05
-0.560529
-6.99451e-05
-0.560096
-6.99462e-05
-0.559662
-6.99472e-05
-0.559229
-6.99483e-05
-0.558795
-6.99493e-05
-0.558362
-6.99503e-05
-0.557928
-6.99513e-05
-0.557495
-6.99523e-05
-0.557061
-6.99533e-05
-0.556627
-6.99543e-05
-0.556194
-6.99553e-05
-0.55576
-6.99563e-05
-0.555327
-6.99573e-05
-0.554893
-6.99583e-05
-0.554459
-6.99593e-05
-0.554026
-6.99603e-05
-0.553592
-6.99613e-05
-0.553159
-6.99622e-05
-0.552725
-6.99632e-05
-0.552291
-6.99641e-05
-0.551858
-6.99651e-05
-0.551424
-6.9966e-05
-0.55099
-6.99669e-05
-0.550557
-6.99678e-05
-0.550123
-6.99687e-05
-0.549689
-6.99697e-05
-0.549256
-6.99706e-05
-0.548822
-6.99716e-05
-0.548388
-6.99725e-05
-0.547954
-6.99735e-05
-0.547521
-6.99745e-05
-0.547087
-6.99756e-05
-0.546653
-6.99766e-05
-0.54622
-6.99776e-05
-0.545786
-6.99787e-05
-0.545352
-6.99797e-05
-0.544918
-6.99808e-05
-0.544485
-6.99818e-05
-0.544051
-6.99829e-05
-0.543617
-6.99839e-05
-0.543183
-6.99849e-05
-0.542749
-6.9986e-05
-0.542316
-6.9987e-05
-0.541882
-6.9988e-05
-0.541448
-6.9989e-05
-0.541014
-6.99901e-05
-0.54058
-6.99911e-05
-0.540146
-6.99922e-05
-0.539713
-6.99933e-05
-0.539279
-6.99944e-05
-0.538845
-6.99955e-05
-0.538411
-6.99966e-05
-0.537977
-6.99978e-05
-0.537543
-6.99989e-05
-0.537109
-7.00001e-05
-0.536675
-7.00013e-05
-0.536242
-7.00025e-05
-0.535808
-7.00037e-05
-0.535374
-7.00048e-05
-0.53494
-7.0006e-05
-0.534506
-7.00072e-05
-0.534072
-7.00084e-05
-0.533638
-7.00096e-05
-0.533204
-7.00108e-05
-0.53277
-7.0012e-05
-0.532336
-7.00131e-05
-0.531902
-7.00143e-05
-0.531468
-7.00155e-05
-0.531034
-7.00167e-05
-0.5306
-7.00179e-05
-0.530166
-7.00192e-05
-0.529732
-7.00204e-05
-0.529298
-7.00217e-05
-0.528864
-7.0023e-05
-0.52843
-7.00243e-05
-0.527995
-7.00256e-05
-0.527561
-7.00269e-05
-0.527127
-7.00282e-05
-0.526693
-7.00295e-05
-0.526259
-7.00309e-05
-0.525825
-7.00322e-05
-0.525391
-7.00335e-05
-0.524957
-7.00348e-05
-0.524522
-7.00361e-05
-0.524088
-7.00374e-05
-0.523654
-7.00388e-05
-0.52322
-7.00401e-05
-0.522786
-7.00414e-05
-0.522352
-7.00427e-05
-0.521917
-7.00441e-05
-0.521483
-7.00454e-05
-0.521049
-7.00467e-05
-0.520615
-7.00481e-05
-0.52018
-7.00495e-05
-0.519746
-7.00508e-05
-0.519312
-7.00522e-05
-0.518878
-7.00536e-05
-0.518443
-7.0055e-05
-0.518009
-7.00565e-05
-0.517575
-7.00579e-05
-0.51714
-7.00593e-05
-0.516706
-7.00608e-05
-0.516272
-7.00622e-05
-0.515837
-7.00637e-05
-0.515403
-7.00651e-05
-0.514969
-7.00665e-05
-0.514534
-7.0068e-05
-0.5141
-7.00694e-05
-0.513665
-7.00708e-05
-0.513231
-7.00723e-05
-0.512797
-7.00737e-05
-0.512362
-7.00751e-05
-0.511928
-7.00766e-05
-0.511493
-7.0078e-05
-0.511059
-7.00794e-05
-0.510624
-7.00809e-05
-0.51019
-7.00823e-05
-0.509755
-7.00838e-05
-0.509321
-7.00853e-05
-0.508886
-7.00867e-05
-0.508452
-7.00882e-05
-0.508017
-7.00897e-05
-0.507583
-7.00912e-05
-0.507148
-7.00927e-05
-0.506714
-7.00942e-05
-0.506279
-7.00957e-05
-0.505844
-7.00973e-05
-0.50541
-7.00988e-05
-0.504975
-7.01003e-05
-0.504541
-7.01018e-05
-0.504106
-7.01033e-05
-0.503671
-7.01048e-05
-0.503237
-7.01063e-05
-0.502802
-7.01078e-05
-0.502367
-7.01093e-05
-0.501933
-7.01108e-05
-0.501498
-7.01123e-05
-0.501063
-7.01138e-05
-0.500629
-7.01153e-05
-0.500194
-7.01168e-05
-0.499759
-7.01183e-05
-0.499324
-7.01198e-05
-0.49889
-7.01213e-05
-0.498455
-7.01228e-05
-0.49802
-7.01243e-05
-0.497585
-7.01258e-05
-0.497151
-7.01274e-05
-0.496716
-7.01289e-05
-0.496281
-7.01305e-05
-0.495846
-7.0132e-05
-0.495411
-7.01336e-05
-0.494977
-7.01351e-05
-0.494542
-7.01367e-05
-0.494107
-7.01382e-05
-0.493672
-7.01398e-05
-0.493237
-7.01413e-05
-0.492802
-7.01429e-05
-0.492367
-7.01444e-05
-0.491932
-7.01459e-05
-0.491497
-7.01474e-05
-0.491062
-7.01489e-05
-0.490627
-7.01504e-05
-0.490193
-7.01519e-05
-0.489758
-7.01534e-05
-0.489323
-7.01549e-05
-0.488888
-7.01564e-05
-0.488453
-7.01578e-05
-0.488018
-7.01593e-05
-0.487583
-7.01609e-05
-0.487148
-7.01624e-05
-0.486712
-7.01639e-05
-0.486277
-7.01655e-05
-0.485842
-7.0167e-05
-0.485407
-7.01686e-05
-0.484972
-7.01701e-05
-0.484537
-7.01717e-05
-0.484102
-7.01732e-05
-0.483667
-7.01748e-05
-0.483232
-7.01763e-05
-0.482797
-7.01778e-05
-0.482361
-7.01793e-05
-0.481926
-7.01808e-05
-0.481491
-7.01823e-05
-0.481056
-7.01838e-05
-0.480621
-7.01853e-05
-0.480186
-7.01867e-05
-0.47975
-7.01882e-05
-0.479315
-7.01896e-05
-0.47888
-7.01911e-05
-0.478445
-7.01926e-05
-0.478009
-7.0194e-05
-0.477574
-7.01956e-05
-0.477139
-7.01971e-05
-0.476704
-7.01986e-05
-0.476268
-7.02001e-05