/*--------------------------------*- C++ -*----------------------------------*\
| =========                 |                                                 |
| \\      /  F ield         | OpenFOAM: The Open Source CFD Toolbox           |
|  \\    /   O peration     | Version:  2512                                  |
|   \\  /    A nd           | Website:  www.openfoam.com                      |
|    \\/     M anipulation  |                                                 |
\*---------------------------------------------------------------------------*/
FoamFile
{
    version     2.0;
    format      ascii;
    arch        "LSB;label=32;scalar=64";
    class       surfaceScalarField;
    location    "3e-05";
    object      phiB;
}
// * * * * * * * * * * * * * * * * * * * * * * * * * * * * * * * * * * * * * //

dimensions      [1 2 -2 0 0 -1 0];

oriented        oriented;

internalField   nonuniform List<scalar> 
198900
(
4.92661e-05
0.040001
5.60871e-05
0.0399932
5.12532e-05
0.0400048
5.47072e-05
0.0399965
5.30697e-05
0.0400016
5.35439e-05
0.0399995
5.34656e-05
0.0400001
5.34307e-05
0.04
5.33918e-05
0.04
5.33503e-05
0.04
5.33073e-05
0.04
5.32631e-05
0.04
5.32183e-05
0.04
5.3173e-05
0.04
5.31274e-05
0.04
5.30815e-05
0.04
5.30354e-05
0.04
5.29893e-05
0.04
5.2943e-05
0.04
5.28967e-05
0.04
5.28504e-05
0.04
5.28041e-05
0.04
5.27577e-05
0.04
5.27114e-05
0.04
5.2665e-05
0.04
5.26187e-05
0.04
5.25724e-05
0.04
5.2526e-05
0.04
5.24797e-05
0.04
5.24335e-05
0.04
5.23872e-05
0.04
5.2341e-05
0.04
5.22947e-05
0.04
5.22485e-05
0.04
5.22023e-05
0.04
5.21562e-05
0.04
5.211e-05
0.04
5.20639e-05
0.04
5.20178e-05
0.04
5.19717e-05
0.04
5.19256e-05
0.04
5.18795e-05
0.04
5.18335e-05
0.04
5.17874e-05
0.04
5.17414e-05
0.04
5.16954e-05
0.04
5.16494e-05
0.04
5.16035e-05
0.04
5.15575e-05
0.04
5.15115e-05
0.04
5.14656e-05
0.04
5.14197e-05
0.04
5.13738e-05
0.04
5.13279e-05
0.04
5.1282e-05
0.04
5.12361e-05
0.04
5.11902e-05
0.04
5.11444e-05
0.04
5.10985e-05
0.04
5.10527e-05
0.04
5.10069e-05
0.04
5.0961e-05
0.04
5.09152e-05
0.04
5.08694e-05
0.04
5.08236e-05
0.04
5.07778e-05
0.04
5.07321e-05
0.04
5.06863e-05
0.04
5.06405e-05
0.04
5.05948e-05
0.04
5.0549e-05
0.04
5.05033e-05
0.04
5.04575e-05
0.04
5.04118e-05
0.04
5.03661e-05
0.04
5.03203e-05
0.04
5.02746e-05
0.04
5.02289e-05
0.04
5.01832e-05
0.04
5.01375e-05
0.04
5.00918e-05
0.04
5.00461e-05
0.04
5.00004e-05
0.04
4.99547e-05
0.04
4.9909e-05
0.04
4.98633e-05
0.04
4.98177e-05
0.04
4.9772e-05
0.04
4.97263e-05
0.04
4.96806e-05
0.04
4.9635e-05
0.04
4.95893e-05
0.04
4.95437e-05
0.04
4.9498e-05
0.04
4.94523e-05
0.04
4.94067e-05
0.04
4.9361e-05
0.04
4.93154e-05
0.04
4.92698e-05
0.04
4.92241e-05
0.04
4.91785e-05
0.04
4.91328e-05
0.04
4.90872e-05
0.04
4.90416e-05
0.04
4.89959e-05
0.04
4.89503e-05
0.04
4.89047e-05
0.04
4.8859e-05
0.04
4.88134e-05
0.04
4.87678e-05
0.04
4.87222e-05
0.04
4.86765e-05
0.04
4.86309e-05
0.04
4.85853e-05
0.04
4.85397e-05
0.04
4.8494e-05
0.04
4.84484e-05
0.04
4.84028e-05
0.04
4.83572e-05
0.04
4.83116e-05
0.04
4.82659e-05
0.04
4.82203e-05
0.04
4.81747e-05
0.04
4.81291e-05
0.04
4.80835e-05
0.04
4.80379e-05
0.04
4.79922e-05
0.04
4.79466e-05
0.04
4.7901e-05
0.04
4.78554e-05
0.04
4.78098e-05
0.04
4.77642e-05
0.04
4.77186e-05
0.04
4.76729e-05
0.04
4.76273e-05
0.04
4.75817e-05
0.04
4.75361e-05
0.04
4.74905e-05
0.04
4.74449e-05
0.04
4.73993e-05
0.04
4.73536e-05
0.04
4.7308e-05
0.04
4.72624e-05
0.04
4.72168e-05
0.04
4.71712e-05
0.04
4.71256e-05
0.04
4.70799e-05
0.04
4.70343e-05
0.04
4.69887e-05
0.04
4.69431e-05
0.04
4.68975e-05
0.04
4.68518e-05
0.04
4.68062e-05
0.04
4.67606e-05
0.04
4.6715e-05
0.04
4.66693e-05
0.04
4.66237e-05
0.04
4.65781e-05
0.04
4.65325e-05
0.04
4.64869e-05
0.04
4.64412e-05
0.04
4.63956e-05
0.04
4.635e-05
0.04
4.63043e-05
0.04
4.62587e-05
0.04
4.62131e-05
0.04
4.61675e-05
0.04
4.61218e-05
0.04
4.60762e-05
0.04
4.60306e-05
0.04
4.59849e-05
0.04
4.59393e-05
0.04
4.58936e-05
0.04
4.5848e-05
0.04
4.58024e-05
0.04
4.57567e-05
0.04
4.57111e-05
0.04
4.56654e-05
0.04
4.56198e-05
0.04
4.55742e-05
0.04
4.55285e-05
0.04
4.54829e-05
0.04
4.54372e-05
0.04
4.53916e-05
0.04
4.53459e-05
0.04
4.53003e-05
0.04
4.52546e-05
0.04
4.5209e-05
0.04
4.51633e-05
0.04
4.51177e-05
0.04
4.5072e-05
0.04
4.50264e-05
0.04
4.49807e-05
0.04
4.4935e-05
0.04
4.48894e-05
0.04
4.48437e-05
0.04
4.47981e-05
0.04
4.47524e-05
0.04
4.47067e-05
0.04
4.46611e-05
0.04
4.46154e-05
0.04
4.45697e-05
0.04
4.45241e-05
0.04
4.44784e-05
0.04
4.44327e-05
0.04
4.4387e-05
0.04
4.43414e-05
0.04
4.42957e-05
0.04
4.425e-05
0.04
4.42043e-05
0.04
4.41587e-05
0.04
4.4113e-05
0.04
4.40673e-05
0.04
4.40216e-05
0.04
4.39759e-05
0.04
4.39302e-05
0.04
4.38845e-05
0.04
4.38388e-05
0.04
4.37932e-05
0.04
4.37475e-05
0.04
4.37018e-05
0.04
4.36561e-05
0.04
4.36104e-05
0.04
4.35647e-05
0.04
4.3519e-05
0.04
4.34733e-05
0.04
4.34276e-05
0.04
4.33819e-05
0.04
4.33362e-05
0.04
4.32905e-05
0.04
4.32447e-05
0.04
4.3199e-05
0.04
4.31533e-05
0.04
4.31076e-05
0.04
4.30619e-05
0.04
4.30162e-05
0.04
4.29705e-05
0.04
4.29247e-05
0.04
4.2879e-05
0.04
4.28333e-05
0.04
4.27876e-05
0.04
4.27419e-05
0.04
4.26961e-05
0.04
4.26504e-05
0.04
4.26047e-05
0.04
4.25589e-05
0.04
4.25132e-05
0.04
4.24675e-05
0.04
4.24217e-05
0.04
4.2376e-05
0.04
4.23303e-05
0.04
4.22845e-05
0.04
4.22388e-05
0.04
4.2193e-05
0.04
4.21473e-05
0.04
4.21015e-05
0.04
4.20558e-05
0.04
4.201e-05
0.04
4.19643e-05
0.04
4.19185e-05
0.04
4.18728e-05
0.04
4.1827e-05
0.04
4.17812e-05
0.04
4.17355e-05
0.04
4.16897e-05
0.04
4.1644e-05
0.04
4.15982e-05
0.04
4.15524e-05
0.04
4.15067e-05
0.04
4.14609e-05
0.04
4.14151e-05
0.04
4.13693e-05
0.04
4.13236e-05
0.04
4.12778e-05
0.04
4.1232e-05
0.04
4.11862e-05
0.04
4.11404e-05
0.04
4.10947e-05
0.04
4.10489e-05
0.04
4.10031e-05
0.04
4.09573e-05
0.04
4.09115e-05
0.04
4.08657e-05
0.04
4.08199e-05
0.04
4.07741e-05
0.04
4.07283e-05
0.04
4.06825e-05
0.04
4.06367e-05
0.04
4.05909e-05
0.04
4.05451e-05
0.04
4.04993e-05
0.04
4.04535e-05
0.04
4.04077e-05
0.04
4.03619e-05
0.04
4.0316e-05
0.04
4.02702e-05
0.04
4.02244e-05
0.04
4.01786e-05
0.04
4.01328e-05
0.04
4.00869e-05
0.04
4.00411e-05
0.04
3.99953e-05
0.04
3.99495e-05
0.04
3.99036e-05
0.04
3.98578e-05
0.04
3.9812e-05
0.04
3.97661e-05
0.04
3.97203e-05
0.04
3.96744e-05
0.04
3.96286e-05
0.04
3.95828e-05
0.04
3.95369e-05
0.04
3.94911e-05
0.04
3.94452e-05
0.04
3.93994e-05
0.04
3.93535e-05
0.04
3.93077e-05
0.04
3.92618e-05
0.04
3.92159e-05
0.04
3.91701e-05
0.04
3.91242e-05
0.04
3.90783e-05
0.04
3.90325e-05
0.04
3.89866e-05
0.04
3.89407e-05
0.04
3.88949e-05
0.04
3.8849e-05
0.04
3.88031e-05
0.04
3.87572e-05
0.04
3.87114e-05
0.04
3.86655e-05
0.04
3.86196e-05
0.04
3.85737e-05
0.04
3.85278e-05
0.04
3.84819e-05
0.04
3.8436e-05
0.04
3.83901e-05
0.04
3.83442e-05
0.04
3.82983e-05
0.04
3.82524e-05
0.04
3.82065e-05
0.04
3.81606e-05
0.04
3.81147e-05
0.04
3.80688e-05
0.04
3.80229e-05
0.04
3.7977e-05
0.04
3.79311e-05
0.04
3.78852e-05
0.04
3.78392e-05
0.04
3.77933e-05
0.04
3.77474e-05
0.04
3.77015e-05
0.04
3.76556e-05
0.04
3.76096e-05
0.04
3.75637e-05
0.04
3.75178e-05
0.04
3.74718e-05
0.04
3.74259e-05
0.04
3.738e-05
0.04
3.7334e-05
0.04
3.72881e-05
0.04
3.72421e-05
0.04
3.71962e-05
0.04
3.71502e-05
0.04
3.71043e-05
0.04
3.70583e-05
0.04
3.70124e-05
0.04
3.69664e-05
0.04
3.69205e-05
0.04
3.68745e-05
0.04
3.68285e-05
0.04
3.67826e-05
0.04
3.67366e-05
0.04
3.66906e-05
0.04
3.66447e-05
0.04
3.65987e-05
0.04
3.65527e-05
0.04
3.65067e-05
0.04
3.64608e-05
0.04
3.64148e-05
0.04
3.63688e-05
0.04
3.63228e-05
0.04
3.62768e-05
0.04
3.62308e-05
0.04
3.61848e-05
0.04
3.61388e-05
0.04
3.60928e-05
0.04
3.60468e-05
0.04
3.60008e-05
0.04
3.59548e-05
0.04
3.59088e-05
0.04
3.58628e-05
0.04
3.58168e-05
0.04
3.57708e-05
0.04
3.57248e-05
0.04
3.56788e-05
0.04
3.56328e-05
0.04
3.55867e-05
0.04
3.55407e-05
0.04
3.54947e-05
0.04
3.54487e-05
0.04
3.54026e-05
0.04
3.53566e-05
0.04
3.53106e-05
0.04
3.52645e-05
0.04
3.52185e-05
0.04
3.51725e-05
0.04
3.51264e-05
0.04
3.50804e-05
0.04
3.50343e-05
0.04
3.49883e-05
0.04
3.49422e-05
0.04
3.48962e-05
0.04
3.48501e-05
0.04
3.48041e-05
0.04
3.4758e-05
0.04
3.4712e-05
0.04
3.46659e-05
0.04
3.46198e-05
0.04
3.45738e-05
0.04
3.45277e-05
0.04
3.44816e-05
0.04
3.44356e-05
0.04
3.43895e-05
0.04
3.43434e-05
0.04
3.42973e-05
0.04
3.42512e-05
0.04
3.42052e-05
0.04
3.41591e-05
0.04
3.4113e-05
0.04
3.40669e-05
0.04
3.40208e-05
0.04
3.39747e-05
0.04
3.39286e-05
0.04
3.38825e-05
0.04
3.38364e-05
0.04
3.37903e-05
0.04
3.37442e-05
0.04
3.36981e-05
0.04
3.3652e-05
0.04
3.36059e-05
0.04
3.35598e-05
0.04
3.35136e-05
0.04
3.34675e-05
0.04
3.34214e-05
0.04
3.33753e-05
0.04
3.33291e-05
0.04
3.3283e-05
0.04
3.32369e-05
0.04
3.31908e-05
0.04
3.31446e-05
0.04
3.30985e-05
0.04
3.30523e-05
0.04
3.30062e-05
0.04
3.29601e-05
0.04
3.29139e-05
0.04
3.28678e-05
0.04
3.28216e-05
0.04
3.27755e-05
0.04
3.27293e-05
0.04
3.26832e-05
0.04
3.2637e-05
0.04
3.25908e-05
0.04
3.25447e-05
0.04
3.24985e-05
0.04
3.24523e-05
0.04
3.24062e-05
0.04
3.236e-05
0.04
3.23138e-05
0.04
3.22676e-05
0.04
3.22215e-05
0.04
3.21753e-05
0.04
3.21291e-05
0.04
3.20829e-05
0.04
3.20367e-05
0.04
3.19905e-05
0.04
3.19443e-05
0.04
3.18982e-05
0.04
3.1852e-05
0.04
3.18058e-05
0.04
3.17596e-05
0.04
3.17134e-05
0.04
3.16671e-05
0.04
3.16209e-05
0.04
3.15747e-05
0.04
3.15285e-05
0.04
3.14823e-05
0.04
3.14361e-05
0.04
3.13899e-05
0.04
3.13436e-05
0.04
3.12974e-05
0.04
3.12512e-05
0.04
3.1205e-05
0.04
3.11587e-05
0.04
3.11125e-05
0.04
3.10663e-05
0.04
3.102e-05
0.04
3.09738e-05
0.04
3.09276e-05
0.04
3.08813e-05
0.04
3.08351e-05
0.04
3.07888e-05
0.04
3.07426e-05
0.04
3.06963e-05
0.04
3.06501e-05
0.04
3.06038e-05
0.04
3.05576e-05
0.04
3.05113e-05
0.04
3.0465e-05
0.04
3.04188e-05
0.04
3.03725e-05
0.04
3.03262e-05
0.04
3.028e-05
0.04
3.02337e-05
0.04
3.01874e-05
0.04
3.01411e-05
0.04
3.00949e-05
0.04
3.00486e-05
0.04
3.00023e-05
0.04
2.9956e-05
0.04
2.99097e-05
0.04
2.98634e-05
0.04
2.98171e-05
0.04
2.97708e-05
0.04
2.97245e-05
0.04
2.96782e-05
0.04
2.96319e-05
0.04
2.95856e-05
0.04
2.95393e-05
0.04
2.9493e-05
0.04
2.94467e-05
0.04
2.94004e-05
0.04
2.93541e-05
0.04
2.93077e-05
0.04
2.92614e-05
0.04
2.92151e-05
0.04
2.91688e-05
0.04
2.91225e-05
0.04
2.90761e-05
0.04
2.90298e-05
0.04
2.89835e-05
0.04
2.89371e-05
0.04
2.88908e-05
0.04
2.88444e-05
0.04
2.87981e-05
0.04
2.87518e-05
0.04
2.87054e-05
0.04
2.86591e-05
0.04
2.86127e-05
0.04
2.85664e-05
0.04
2.852e-05
0.04
2.84736e-05
0.04
2.84273e-05
0.04
2.83809e-05
0.04
2.83346e-05
0.04
2.82882e-05
0.04
2.82418e-05
0.04
2.81955e-05
0.04
2.81491e-05
0.04
2.81027e-05
0.04
2.80563e-05
0.04
2.801e-05
0.04
2.79636e-05
0.04
2.79172e-05
0.04
2.78708e-05
0.04
2.78244e-05
0.04
2.7778e-05
0.04
2.77316e-05
0.04
2.76852e-05
0.04
2.76388e-05
0.04
2.75924e-05
0.04
2.7546e-05
0.04
2.74996e-05
0.04
2.74532e-05
0.04
2.74068e-05
0.04
2.73604e-05
0.04
2.7314e-05
0.04
2.72676e-05
0.04
2.72212e-05
0.04
2.71748e-05
0.04
2.71283e-05
0.04
2.70819e-05
0.04
2.70355e-05
0.04
2.69891e-05
0.04
2.69426e-05
0.04
2.68962e-05
0.04
2.68498e-05
0.04
2.68033e-05
0.04
2.67569e-05
0.04
2.67105e-05
0.04
2.6664e-05
0.04
2.66176e-05
0.04
2.65711e-05
0.04
2.65247e-05
0.04
2.64782e-05
0.04
2.64318e-05
0.04
2.63853e-05
0.04
2.63389e-05
0.04
2.62924e-05
0.04
2.6246e-05
0.04
2.61995e-05
0.04
2.6153e-05
0.04
2.61066e-05
0.04
2.60601e-05
0.04
2.60136e-05
0.04
2.59672e-05
0.04
2.59207e-05
0.04
2.58742e-05
0.04
2.58277e-05
0.04
2.57812e-05
0.04
2.57348e-05
0.04
2.56883e-05
0.04
2.56418e-05
0.04
2.55953e-05
0.04
2.55488e-05
0.04
2.55023e-05
0.04
2.54558e-05
0.04
2.54093e-05
0.04
2.53628e-05
0.04
2.53163e-05
0.04
2.52698e-05
0.04
2.52233e-05
0.04
2.51768e-05
0.04
2.51303e-05
0.04
2.50838e-05
0.04
2.50373e-05
0.04
2.49908e-05
0.04
2.49442e-05
0.04
2.48977e-05
0.04
2.48512e-05
0.04
2.48047e-05
0.04
2.47582e-05
0.04
2.47116e-05
0.04
2.46651e-05
0.04
2.46186e-05
0.04
2.4572e-05
0.04
2.45255e-05
0.04
2.4479e-05
0.04
2.44324e-05
0.04
2.43859e-05
0.04
2.43393e-05
0.04
2.42928e-05
0.04
2.42462e-05
0.04
2.41997e-05
0.04
2.41531e-05
0.04
2.41066e-05
0.04
2.406e-05
0.04
2.40135e-05
0.04
2.39669e-05
0.04
2.39204e-05
0.04
2.38738e-05
0.04
2.38272e-05
0.04
2.37807e-05
0.04
2.37341e-05
0.04
2.36875e-05
0.04
2.3641e-05
0.04
2.35944e-05
0.04
2.35478e-05
0.04
2.35012e-05
0.04
2.34547e-05
0.04
2.34081e-05
0.04
2.33615e-05
0.04
2.33149e-05
0.04
2.32683e-05
0.04
2.32217e-05
0.04
2.31751e-05
0.04
2.31285e-05
0.04
2.30819e-05
0.04
2.30353e-05
0.04
2.29887e-05
0.04
2.29421e-05
0.04
2.28955e-05
0.04
2.28489e-05
0.04
2.28023e-05
0.04
2.27557e-05
0.04
2.27091e-05
0.04
2.26625e-05
0.04
2.26159e-05
0.04
2.25693e-05
0.04
2.25227e-05
0.04
2.2476e-05
0.04
2.24294e-05
0.04
2.23828e-05
0.04
2.23362e-05
0.04
2.22895e-05
0.04
2.22429e-05
0.04
2.21963e-05
0.04
2.21496e-05
0.04
2.2103e-05
0.04
2.20564e-05
0.04
2.20097e-05
0.04
2.19631e-05
0.04
2.19165e-05
0.04
2.18698e-05
0.04
2.18232e-05
0.04
2.17765e-05
0.04
2.17299e-05
0.04
2.16832e-05
0.04
2.16366e-05
0.04
2.15899e-05
0.04
2.15433e-05
0.04
2.14966e-05
0.04
2.145e-05
0.04
2.14033e-05
0.04
2.13566e-05
0.04
2.131e-05
0.04
2.12633e-05
0.04
2.12166e-05
0.04
2.117e-05
0.04
2.11233e-05
0.04
2.10766e-05
0.04
2.103e-05
0.04
2.09833e-05
0.04
2.09366e-05
0.04
2.08899e-05
0.04
2.08432e-05
0.04
2.07966e-05
0.04
2.07499e-05
0.04
2.07032e-05
0.04
2.06565e-05
0.04
2.06098e-05
0.04
2.05631e-05
0.04
2.05164e-05
0.04
2.04697e-05
0.04
2.0423e-05
0.04
2.03763e-05
0.04
2.03296e-05
0.04
2.02829e-05
0.04
2.02362e-05
0.04
2.01895e-05
0.04
2.01428e-05
0.04
2.00961e-05
0.04
2.00494e-05
0.04
2.00027e-05
0.04
1.9956e-05
0.04
1.99093e-05
0.04
1.98626e-05
0.04
1.98158e-05
0.04
1.97691e-05
0.04
1.97224e-05
0.04
1.96757e-05
0.04
1.9629e-05
0.04
1.95822e-05
0.04
1.95355e-05
0.04
1.94888e-05
0.04
1.94421e-05
0.04
1.93953e-05
0.04
1.93486e-05
0.04
1.93019e-05
0.04
1.92551e-05
0.04
1.92084e-05
0.04
1.91616e-05
0.04
1.91149e-05
0.04
1.90682e-05
0.04
1.90214e-05
0.04
1.89747e-05
0.04
1.89279e-05
0.04
1.88812e-05
0.04
1.88344e-05
0.04
1.87877e-05
0.04
1.87409e-05
0.04
1.86942e-05
0.04
1.86474e-05
0.04
1.86007e-05
0.04
1.85539e-05
0.04
1.85071e-05
0.04
1.84604e-05
0.04
1.84136e-05
0.04
1.83669e-05
0.04
1.83201e-05
0.04
1.82733e-05
0.04
1.82266e-05
0.04
1.81798e-05
0.04
1.8133e-05
0.04
1.80862e-05
0.04
1.80395e-05
0.04
1.79927e-05
0.04
1.79459e-05
0.04
1.78991e-05
0.04
1.78524e-05
0.04
1.78056e-05
0.04
1.77588e-05
0.04
1.7712e-05
0.04
1.76652e-05
0.04
1.76184e-05
0.04
1.75717e-05
0.04
1.75249e-05
0.04
1.74781e-05
0.04
1.74313e-05
0.04
1.73845e-05
0.04
1.73377e-05
0.04
1.72909e-05
0.04
1.72441e-05
0.04
1.71973e-05
0.04
1.71505e-05
0.04
1.71037e-05
0.04
1.70569e-05
0.04
1.70101e-05
0.04
1.69633e-05
0.04
1.69165e-05
0.04
1.68697e-05
0.04
1.68229e-05
0.04
1.67761e-05
0.04
1.67292e-05
0.04
1.66824e-05
0.04
1.66356e-05
0.04
1.65888e-05
0.04
1.6542e-05
0.04
1.64952e-05
0.04
1.64483e-05
0.04
1.64015e-05
0.04
1.63547e-05
0.04
1.63079e-05
0.04
1.6261e-05
0.04
1.62142e-05
0.04
1.61674e-05
0.04
1.61206e-05
0.04
1.60737e-05
0.04
1.60269e-05
0.04
1.59801e-05
0.04
1.59332e-05
0.04
1.58864e-05
0.04
1.58396e-05
0.04
1.57927e-05
0.04
1.57459e-05
0.04
1.5699e-05
0.04
1.56522e-05
0.04
1.56054e-05
0.04
1.55585e-05
0.04
1.55117e-05
0.04
1.54648e-05
0.04
1.5418e-05
0.04
1.53711e-05
0.04
1.53243e-05
0.04
1.52774e-05
0.04
1.52305e-05
0.04
1.51837e-05
0.04
1.51368e-05
0.04
1.509e-05
0.04
1.50431e-05
0.04
1.49963e-05
0.04
1.49494e-05
0.04
1.49025e-05
0.04
1.48557e-05
0.04
1.48088e-05
0.04
1.47619e-05
0.04
1.47151e-05
0.04
1.46682e-05
0.04
1.46213e-05
0.04
1.45744e-05
0.04
1.45276e-05
0.04
1.44807e-05
0.04
1.44338e-05
0.04
1.43869e-05
0.04
1.434e-05
0.04
1.42932e-05
0.04
1.42463e-05
0.04
1.41994e-05
0.04
1.41525e-05
0.04
1.41056e-05
0.04
1.40587e-05
0.04
1.40118e-05
0.04
1.39649e-05
0.04
1.3918e-05
0.04
1.38711e-05
0.04
1.38242e-05
0.04
1.37773e-05
0.04
1.37304e-05
0.04
1.36835e-05
0.04
1.36366e-05
0.04
1.35897e-05
0.04
1.35428e-05
0.04
1.34959e-05
0.04
1.3449e-05
0.04
1.3402e-05
0.04
1.33551e-05
0.04
1.33082e-05
0.04
1.32613e-05
0.04
1.32144e-05
0.04
1.31674e-05
0.04
1.31205e-05
0.04
1.30736e-05
0.04
1.30266e-05
0.04
1.29797e-05
0.04
1.29328e-05
0.04
1.28858e-05
0.04
1.28389e-05
0.04
1.27919e-05
0.04
1.2745e-05
0.04
1.2698e-05
0.04
1.26511e-05
0.04
1.26041e-05
0.04
1.25572e-05
0.04
1.25102e-05
0.04
1.24632e-05
0.04
1.24163e-05
0.04
1.23693e-05
0.04
1.23223e-05
0.04
1.22754e-05
0.04
1.22284e-05
0.04
1.21814e-05
0.04
1.21344e-05
0.04
1.20874e-05
0.04
1.20404e-05
0.04
1.19934e-05
0.04
1.19464e-05
0.04
1.18994e-05
0.04
1.18524e-05
0.04
1.18054e-05
0.04
1.17584e-05
0.04
1.17114e-05
0.04
1.16643e-05
0.04
1.16173e-05
0.04
1.15703e-05
0.04
1.15232e-05
0.04
1.14762e-05
0.04
1.14292e-05
0.04
1.13821e-05
0.04
1.1335e-05
0.04
1.1288e-05
0.04
1.12409e-05
0.04
1.11938e-05
0.04
1.11468e-05
0.04
1.10997e-05
0.04
1.10526e-05
0.04
1.10055e-05
0.04
1.09584e-05
0.04
1.09113e-05
0.04
1.08641e-05
0.04
1.0817e-05
0.04
1.07699e-05
0.04
1.07227e-05
0.04
1.06756e-05
0.04
1.06284e-05
0.04
1.05813e-05
0.04
1.05341e-05
0.04
1.04869e-05
0.04
1.04397e-05
0.04
1.03925e-05
0.04
1.03453e-05
0.04
1.02981e-05
0.04
1.02509e-05
0.04
1.02036e-05
0.04
1.01564e-05
0.04
1.01091e-05
0.04
1.00618e-05
0.04
1.00145e-05
0.04
9.96723e-06
0.04
9.91992e-06
0.04
9.87259e-06
0.04
9.82525e-06
0.04
9.77789e-06
0.04
9.73051e-06
0.04
9.68313e-06
0.04
9.63572e-06
0.04
9.5883e-06
0.04
9.54086e-06
0.04
9.4934e-06
0.04
9.44592e-06
0.04
9.39842e-06
0.04
9.35089e-06
0.04
9.30335e-06
0.04
9.25578e-06
0.04
9.20819e-06
0.04
9.16058e-06
0.04
9.11293e-06
0.04
9.06526e-06
0.04
9.01756e-06
0.04
8.96982e-06
0.04
8.92206e-06
0.04
8.87425e-06
0.04
8.82641e-06
0.04
8.77853e-06
0.04
8.73061e-06
0.04
8.68264e-06
0.04
8.63462e-06
0.04
8.58655e-06
0.04
8.53842e-06
0.04
8.49023e-06
0.04
8.44197e-06
0.04
8.39364e-06
0.04
8.34522e-06
0.04
8.29672e-06
0.04
8.24811e-06
0.04
8.19939e-06
0.04
8.15055e-06
0.04
8.10156e-06
0.04
8.0524e-06
0.04
8.00305e-06
0.04
7.95347e-06
0.04
7.90361e-06
0.04
7.85341e-06
0.0400001
7.80278e-06
0.0400001
7.75161e-06
0.0400001
7.69968e-06
0.0400001
7.64667e-06
0.0400001
7.592e-06
0.0400001
7.53925e-06
0.0400001
7.46302e-06
0.0400001
0.0400001
1.84157e-06
0.040003
2.31621e-06
0.0399927
1.67221e-06
0.0400055
2.07244e-06
0.0399961
1.93102e-06
0.0400018
1.98294e-06
0.0399995
1.99306e-06
0.0400001
1.99901e-06
0.04
2.0021e-06
0.04
2.00335e-06
0.04
2.00336e-06
0.04
2.00253e-06
0.04
2.00113e-06
0.04
1.99932e-06
0.04
1.99723e-06
0.04
1.99494e-06
0.04
1.99251e-06
0.04
1.98999e-06
0.04
1.9874e-06
0.04
1.98477e-06
0.04
1.98212e-06
0.04
1.97945e-06
0.04
1.97677e-06
0.04
1.9741e-06
0.04
1.97143e-06
0.04
1.96878e-06
0.04
1.96614e-06
0.04
1.96352e-06
0.04
1.96091e-06
0.04
1.95832e-06
0.04
1.95575e-06
0.04
1.95321e-06
0.04
1.95068e-06
0.04
1.94817e-06
0.04
1.94568e-06
0.04
1.94321e-06
0.04
1.94076e-06
0.04
1.93833e-06
0.04
1.93591e-06
0.04
1.93352e-06
0.04
1.93114e-06
0.04
1.92878e-06
0.04
1.92643e-06
0.04
1.9241e-06
0.04
1.92179e-06
0.04
1.91949e-06
0.04
1.91721e-06
0.04
1.91494e-06
0.04
1.91269e-06
0.04
1.91045e-06
0.04
1.90822e-06
0.04
1.90601e-06
0.04
1.90381e-06
0.04
1.90162e-06
0.04
1.89944e-06
0.04
1.89727e-06
0.04
1.89512e-06
0.04
1.89297e-06
0.04
1.89084e-06
0.04
1.88871e-06
0.04
1.8866e-06
0.04
1.88449e-06
0.04
1.88239e-06
0.04
1.88031e-06
0.04
1.87823e-06
0.04
1.87615e-06
0.04
1.87409e-06
0.04
1.87204e-06
0.04
1.86999e-06
0.04
1.86795e-06
0.04
1.86591e-06
0.04
1.86389e-06
0.04
1.86187e-06
0.04
1.85985e-06
0.04
1.85784e-06
0.04
1.85584e-06
0.04
1.85385e-06
0.04
1.85186e-06
0.04
1.84987e-06
0.04
1.84789e-06
0.04
1.84592e-06
0.04
1.84395e-06
0.04
1.84198e-06
0.04
1.84002e-06
0.04
1.83807e-06
0.04
1.83612e-06
0.04
1.83417e-06
0.04
1.83223e-06
0.04
1.83029e-06
0.04
1.82836e-06
0.04
1.82642e-06
0.04
1.8245e-06
0.04
1.82257e-06
0.04
1.82065e-06
0.04
1.81874e-06
0.04
1.81682e-06
0.04
1.81491e-06
0.04
1.813e-06
0.04
1.8111e-06
0.04
1.8092e-06
0.04
1.8073e-06
0.04
1.8054e-06
0.04
1.80351e-06
0.04
1.80162e-06
0.04
1.79973e-06
0.04
1.79784e-06
0.04
1.79596e-06
0.04
1.79408e-06
0.04
1.7922e-06
0.04
1.79032e-06
0.04
1.78844e-06
0.04
1.78657e-06
0.04
1.7847e-06
0.04
1.78283e-06
0.04
1.78096e-06
0.04
1.77909e-06
0.04
1.77723e-06
0.04
1.77536e-06
0.04
1.7735e-06
0.04
1.77164e-06
0.04
1.76978e-06
0.04
1.76793e-06
0.04
1.76607e-06
0.04
1.76422e-06
0.04
1.76236e-06
0.04
1.76051e-06
0.04
1.75866e-06
0.04
1.75681e-06
0.04
1.75496e-06
0.04
1.75312e-06
0.04
1.75127e-06
0.04
1.74942e-06
0.04
1.74758e-06
0.04
1.74574e-06
0.04
1.74389e-06
0.04
1.74205e-06
0.04
1.74021e-06
0.04
1.73837e-06
0.04
1.73654e-06
0.04
1.7347e-06
0.04
1.73286e-06
0.04
1.73102e-06
0.04
1.72919e-06
0.04
1.72736e-06
0.04
1.72552e-06
0.04
1.72369e-06
0.04
1.72186e-06
0.04
1.72002e-06
0.04
1.71819e-06
0.04
1.71636e-06
0.04
1.71453e-06
0.04
1.7127e-06
0.04
1.71087e-06
0.04
1.70905e-06
0.04
1.70722e-06
0.04
1.70539e-06
0.04
1.70356e-06
0.04
1.70174e-06
0.04
1.69991e-06
0.04
1.69809e-06
0.04
1.69626e-06
0.04
1.69444e-06
0.04
1.69261e-06
0.04
1.69079e-06
0.04
1.68897e-06
0.04
1.68714e-06
0.04
1.68532e-06
0.04
1.6835e-06
0.04
1.68168e-06
0.04
1.67985e-06
0.04
1.67803e-06
0.04
1.67621e-06
0.04
1.67439e-06
0.04
1.67257e-06
0.04
1.67075e-06
0.04
1.66893e-06
0.04
1.66711e-06
0.04
1.66529e-06
0.04
1.66347e-06
0.04
1.66166e-06
0.04
1.65984e-06
0.04
1.65802e-06
0.04
1.6562e-06
0.04
1.65438e-06
0.04
1.65257e-06
0.04
1.65075e-06
0.04
1.64893e-06
0.04
1.64711e-06
0.04
1.6453e-06
0.04
1.64348e-06
0.04
1.64167e-06
0.04
1.63985e-06
0.04
1.63803e-06
0.04
1.63622e-06
0.04
1.6344e-06
0.04
1.63259e-06
0.04
1.63077e-06
0.04
1.62896e-06
0.04
1.62714e-06
0.04
1.62533e-06
0.04
1.62351e-06
0.04
1.6217e-06
0.04
1.61988e-06
0.04
1.61807e-06
0.04
1.61626e-06
0.04
1.61444e-06
0.04
1.61263e-06
0.04
1.61081e-06
0.04
1.609e-06
0.04
1.60719e-06
0.04
1.60537e-06
0.04
1.60356e-06
0.04
1.60175e-06
0.04
1.59994e-06
0.04
1.59812e-06
0.04
1.59631e-06
0.04
1.5945e-06
0.04
1.59269e-06
0.04
1.59087e-06
0.04
1.58906e-06
0.04
1.58725e-06
0.04
1.58544e-06
0.04
1.58362e-06
0.04
1.58181e-06
0.04
1.58e-06
0.04
1.57819e-06
0.04
1.57638e-06
0.04
1.57456e-06
0.04
1.57275e-06
0.04
1.57094e-06
0.04
1.56913e-06
0.04
1.56732e-06
0.04
1.56551e-06
0.04
1.5637e-06
0.04
1.56188e-06
0.04
1.56007e-06
0.04
1.55826e-06
0.04
1.55645e-06
0.04
1.55464e-06
0.04
1.55283e-06
0.04
1.55102e-06
0.04
1.54921e-06
0.04
1.5474e-06
0.04
1.54559e-06
0.04
1.54378e-06
0.04
1.54197e-06
0.04
1.54016e-06
0.04
1.53835e-06
0.04
1.53654e-06
0.04
1.53472e-06
0.04
1.53291e-06
0.04
1.5311e-06
0.04
1.52929e-06
0.04
1.52748e-06
0.04
1.52567e-06
0.04
1.52386e-06
0.04
1.52205e-06
0.04
1.52024e-06
0.04
1.51843e-06
0.04
1.51662e-06
0.04
1.51482e-06
0.04
1.51301e-06
0.04
1.5112e-06
0.04
1.50939e-06
0.04
1.50758e-06
0.04
1.50577e-06
0.04
1.50396e-06
0.04
1.50215e-06
0.04
1.50034e-06
0.04
1.49853e-06
0.04
1.49672e-06
0.04
1.49491e-06
0.04
1.4931e-06
0.04
1.49129e-06
0.04
1.48948e-06
0.04
1.48767e-06
0.04
1.48586e-06
0.04
1.48406e-06
0.04
1.48225e-06
0.04
1.48044e-06
0.04
1.47863e-06
0.04
1.47682e-06
0.04
1.47501e-06
0.04
1.4732e-06
0.04
1.47139e-06
0.04
1.46958e-06
0.04
1.46778e-06
0.04
1.46597e-06
0.04
1.46416e-06
0.04
1.46235e-06
0.04
1.46054e-06
0.04
1.45873e-06
0.04
1.45692e-06
0.04
1.45512e-06
0.04
1.45331e-06
0.04
1.4515e-06
0.04
1.44969e-06
0.04
1.44788e-06
0.04
1.44607e-06
0.04
1.44427e-06
0.04
1.44246e-06
0.04
1.44065e-06
0.04
1.43884e-06
0.04
1.43703e-06
0.04
1.43522e-06
0.04
1.43342e-06
0.04
1.43161e-06
0.04
1.4298e-06
0.04
1.42799e-06
0.04
1.42618e-06
0.04
1.42438e-06
0.04
1.42257e-06
0.04
1.42076e-06
0.04
1.41895e-06
0.04
1.41714e-06
0.04
1.41534e-06
0.04
1.41353e-06
0.04
1.41172e-06
0.04
1.40991e-06
0.04
1.40811e-06
0.04
1.4063e-06
0.04
1.40449e-06
0.04
1.40268e-06
0.04
1.40087e-06
0.04
1.39907e-06
0.04
1.39726e-06
0.04
1.39545e-06
0.04
1.39364e-06
0.04
1.39184e-06
0.04
1.39003e-06
0.04
1.38822e-06
0.04
1.38642e-06
0.04
1.38461e-06
0.04
1.3828e-06
0.04
1.38099e-06
0.04
1.37919e-06
0.04
1.37738e-06
0.04
1.37557e-06
0.04
1.37376e-06
0.04
1.37196e-06
0.04
1.37015e-06
0.04
1.36834e-06
0.04
1.36654e-06
0.04
1.36473e-06
0.04
1.36292e-06
0.04
1.36111e-06
0.04
1.35931e-06
0.04
1.3575e-06
0.04
1.35569e-06
0.04
1.35389e-06
0.04
1.35208e-06
0.04
1.35027e-06
0.04
1.34847e-06
0.04
1.34666e-06
0.04
1.34485e-06
0.04
1.34305e-06
0.04
1.34124e-06
0.04
1.33943e-06
0.04
1.33763e-06
0.04
1.33582e-06
0.04
1.33401e-06
0.04
1.33221e-06
0.04
1.3304e-06
0.04
1.32859e-06
0.04
1.32679e-06
0.04
1.32498e-06
0.04
1.32317e-06
0.04
1.32137e-06
0.04
1.31956e-06
0.04
1.31775e-06
0.04
1.31595e-06
0.04
1.31414e-06
0.04
1.31233e-06
0.04
1.31053e-06
0.04
1.30872e-06
0.04
1.30692e-06
0.04
1.30511e-06
0.04
1.3033e-06
0.04
1.3015e-06
0.04
1.29969e-06
0.04
1.29789e-06
0.04
1.29608e-06
0.04
1.29427e-06
0.04
1.29247e-06
0.04
1.29066e-06
0.04
1.28886e-06
0.04
1.28705e-06
0.04
1.28524e-06
0.04
1.28344e-06
0.04
1.28163e-06
0.04
1.27983e-06
0.04
1.27802e-06
0.04
1.27621e-06
0.04
1.27441e-06
0.04
1.2726e-06
0.04
1.2708e-06
0.04
1.26899e-06
0.04
1.26718e-06
0.04
1.26538e-06
0.04
1.26357e-06
0.04
1.26177e-06
0.04
1.25996e-06
0.04
1.25816e-06
0.04
1.25635e-06
0.04
1.25455e-06
0.04
1.25274e-06
0.04
1.25093e-06
0.04
1.24913e-06
0.04
1.24732e-06
0.04
1.24552e-06
0.04
1.24371e-06
0.04
1.24191e-06
0.04
1.2401e-06
0.04
1.2383e-06
0.04
1.23649e-06
0.04
1.23469e-06
0.04
1.23288e-06
0.04
1.23108e-06
0.04
1.22927e-06
0.04
1.22746e-06
0.04
1.22566e-06
0.04
1.22385e-06
0.04
1.22205e-06
0.04
1.22024e-06
0.04
1.21844e-06
0.04
1.21663e-06
0.04
1.21483e-06
0.04
1.21302e-06
0.04
1.21122e-06
0.04
1.20941e-06
0.04
1.20761e-06
0.04
1.2058e-06
0.04
1.204e-06
0.04
1.20219e-06
0.04
1.20039e-06
0.04
1.19858e-06
0.04
1.19678e-06
0.04
1.19497e-06
0.04
1.19317e-06
0.04
1.19137e-06
0.04
1.18956e-06
0.04
1.18776e-06
0.04
1.18595e-06
0.04
1.18415e-06
0.04
1.18234e-06
0.04
1.18054e-06
0.04
1.17873e-06
0.04
1.17693e-06
0.04
1.17512e-06
0.04
1.17332e-06
0.04
1.17151e-06
0.04
1.16971e-06
0.04
1.16791e-06
0.04
1.1661e-06
0.04
1.1643e-06
0.04
1.16249e-06
0.04
1.16069e-06
0.04
1.15888e-06
0.04
1.15708e-06
0.04
1.15528e-06
0.04
1.15347e-06
0.04
1.15167e-06
0.04
1.14986e-06
0.04
1.14806e-06
0.04
1.14625e-06
0.04
1.14445e-06
0.04
1.14265e-06
0.04
1.14084e-06
0.04
1.13904e-06
0.04
1.13723e-06
0.04
1.13543e-06
0.04
1.13363e-06
0.04
1.13182e-06
0.04
1.13002e-06
0.04
1.12821e-06
0.04
1.12641e-06
0.04
1.12461e-06
0.04
1.1228e-06
0.04
1.121e-06
0.04
1.1192e-06
0.04
1.11739e-06
0.04
1.11559e-06
0.04
1.11378e-06
0.04
1.11198e-06
0.04
1.11018e-06
0.04
1.10837e-06
0.04
1.10657e-06
0.04
1.10476e-06
0.04
1.10296e-06
0.04
1.10116e-06
0.04
1.09935e-06
0.04
1.09755e-06
0.04
1.09574e-06
0.04
1.09394e-06
0.04
1.09214e-06
0.04
1.09033e-06
0.04
1.08853e-06
0.04
1.08673e-06
0.04
1.08492e-06
0.04
1.08312e-06
0.04
1.08132e-06
0.04
1.07951e-06
0.04
1.07771e-06
0.04
1.0759e-06
0.04
1.0741e-06
0.04
1.0723e-06
0.04
1.07049e-06
0.04
1.06869e-06
0.04
1.06689e-06
0.04
1.06508e-06
0.04
1.06328e-06
0.04
1.06148e-06
0.04
1.05967e-06
0.04
1.05787e-06
0.04
1.05607e-06
0.04
1.05426e-06
0.04
1.05246e-06
0.04
1.05066e-06
0.04
1.04885e-06
0.04
1.04705e-06
0.04
1.04525e-06
0.04
1.04344e-06
0.04
1.04164e-06
0.04
1.03984e-06
0.04
1.03804e-06
0.04
1.03623e-06
0.04
1.03443e-06
0.04
1.03263e-06
0.04
1.03082e-06
0.04
1.02902e-06
0.04
1.02722e-06
0.04
1.02542e-06
0.04
1.02361e-06
0.04
1.02181e-06
0.04
1.02001e-06
0.04
1.01821e-06
0.04
1.0164e-06
0.04
1.0146e-06
0.04
1.0128e-06
0.04
1.01099e-06
0.04
1.00919e-06
0.04
1.00739e-06
0.04
1.00559e-06
0.04
1.00378e-06
0.04
1.00198e-06
0.04
1.00018e-06
0.04
9.98377e-07
0.04
9.96575e-07
0.04
9.94773e-07
0.04
9.9297e-07
0.04
9.91168e-07
0.04
9.89366e-07
0.04
9.87564e-07
0.04
9.85761e-07
0.04
9.83959e-07
0.04
9.82157e-07
0.04
9.80355e-07
0.04
9.78552e-07
0.04
9.7675e-07
0.04
9.74948e-07
0.04
9.73146e-07
0.04
9.71344e-07
0.04
9.69542e-07
0.04
9.6774e-07
0.04
9.65938e-07
0.04
9.64136e-07
0.04
9.62334e-07
0.04
9.60532e-07
0.04
9.5873e-07
0.04
9.56928e-07
0.04
9.55126e-07
0.04
9.53324e-07
0.04
9.51522e-07
0.04
9.4972e-07
0.04
9.47918e-07
0.04
9.46117e-07
0.04
9.44315e-07
0.04
9.42513e-07
0.04
9.40711e-07
0.04
9.38909e-07
0.04
9.37108e-07
0.04
9.35306e-07
0.04
9.33504e-07
0.04
9.31703e-07
0.04
9.29901e-07
0.04
9.28099e-07
0.04
9.26298e-07
0.04
9.24496e-07
0.04
9.22695e-07
0.04
9.20893e-07
0.04
9.19092e-07
0.04
9.1729e-07
0.04
9.15489e-07
0.04
9.13687e-07
0.04
9.11886e-07
0.04
9.10084e-07
0.04
9.08283e-07
0.04
9.06481e-07
0.04
9.0468e-07
0.04
9.02879e-07
0.04
9.01077e-07
0.04
8.99276e-07
0.04
8.97475e-07
0.04
8.95673e-07
0.04
8.93872e-07
0.04
8.92071e-07
0.04
8.9027e-07
0.04
8.88468e-07
0.04
8.86667e-07
0.04
8.84866e-07
0.04
8.83065e-07
0.04
8.81264e-07
0.04
8.79463e-07
0.04
8.77662e-07
0.04
8.7586e-07
0.04
8.74059e-07
0.04
8.72258e-07
0.04
8.70457e-07
0.04
8.68656e-07
0.04
8.66855e-07
0.04
8.65054e-07
0.04
8.63253e-07
0.04
8.61452e-07
0.04
8.59651e-07
0.04
8.57851e-07
0.04
8.5605e-07
0.04
8.54249e-07
0.04
8.52448e-07
0.04
8.50647e-07
0.04
8.48846e-07
0.04
8.47045e-07
0.04
8.45244e-07
0.04
8.43444e-07
0.04
8.41643e-07
0.04
8.39842e-07
0.04
8.38041e-07
0.04
8.3624e-07
0.04
8.3444e-07
0.04
8.32639e-07
0.04
8.30838e-07
0.04
8.29037e-07
0.04
8.27237e-07
0.04
8.25436e-07
0.04
8.23635e-07
0.04
8.21835e-07
0.04
8.20034e-07
0.04
8.18234e-07
0.04
8.16433e-07
0.04
8.14632e-07
0.04
8.12832e-07
0.04
8.11031e-07
0.04
8.09231e-07
0.04
8.0743e-07
0.04
8.0563e-07
0.04
8.03829e-07
0.04
8.02029e-07
0.04
8.00228e-07
0.04
7.98428e-07
0.04
7.96627e-07
0.04
7.94827e-07
0.04
7.93026e-07
0.04
7.91226e-07
0.04
7.89426e-07
0.04
7.87625e-07
0.04
7.85825e-07
0.04
7.84025e-07
0.04
7.82225e-07
0.04
7.80424e-07
0.04
7.78624e-07
0.04
7.76824e-07
0.04
7.75024e-07
0.04
7.73223e-07
0.04
7.71423e-07
0.04
7.69623e-07
0.04
7.67823e-07
0.04
7.66023e-07
0.04
7.64223e-07
0.04
7.62423e-07
0.04
7.60622e-07
0.04
7.58822e-07
0.04
7.57022e-07
0.04
7.55222e-07
0.04
7.53422e-07
0.04
7.51622e-07
0.04
7.49822e-07
0.04
7.48022e-07
0.04
7.46222e-07
0.04
7.44422e-07
0.04
7.42622e-07
0.04
7.40822e-07
0.04
7.39022e-07
0.04
7.37222e-07
0.04
7.35423e-07
0.04
7.33623e-07
0.04
7.31823e-07
0.04
7.30023e-07
0.04
7.28223e-07
0.04
7.26423e-07
0.04
7.24623e-07
0.04
7.22824e-07
0.04
7.21024e-07
0.04
7.19224e-07
0.04
7.17424e-07
0.04
7.15624e-07
0.04
7.13825e-07
0.04
7.12025e-07
0.04
7.10225e-07
0.04
7.08425e-07
0.04
7.06626e-07
0.04
7.04826e-07
0.04
7.03026e-07
0.04
7.01227e-07
0.04
6.99427e-07
0.04
6.97627e-07
0.04
6.95828e-07