/*--------------------------------*- C++ -*----------------------------------*\
| =========                 |                                                 |
| \\      /  F ield         | OpenFOAM: The Open Source CFD Toolbox           |
|  \\    /   O peration     | Version:  2512                                  |
|   \\  /    A nd           | Website:  www.openfoam.com                      |
|    \\/     M anipulation  |                                                 |
\*---------------------------------------------------------------------------*/
FoamFile
{
    version     2.0;
    format      ascii;
    arch        "LSB;label=32;scalar=64";
    class       volScalarField;
    location    "3e-05";
    object      Ux;
}
// * * * * * * * * * * * * * * * * * * * * * * * * * * * * * * * * * * * * * //

dimensions      [0 1 -1 0 0 0 0];

internalField   nonuniform List<scalar> 
100000
(
0.828095
1.13883
0.899613
1.05704
0.971509
1.00156
0.995735
0.995124
0.994402
0.993678
0.992954
0.992229
0.991504
0.990778
0.990053
0.989326
0.9886
0.987874
0.987147
0.98642
0.985694
0.984967
0.98424
0.983513
0.982786
0.982059
0.981332
0.980605
0.979877
0.97915
0.978423
0.977696
0.976968
0.976241
0.975514
0.974786
0.974059
0.973332
0.972604
0.971877
0.971149
0.970422
0.969694
0.968967
0.96824
0.967512
0.966785
0.966057
0.96533
0.964602
0.963874
0.963147
0.962419
0.961692
0.960964
0.960237
0.959509
0.958781
0.958054
0.957326
0.956599
0.955871
0.955143
0.954416
0.953688
0.95296
0.952233
0.951505
0.950777
0.95005
0.949322
0.948594
0.947866
0.947139
0.946411
0.945683
0.944955
0.944228
0.9435
0.942772
0.942044
0.941316
0.940589
0.939861
0.939133
0.938405
0.937677
0.936949
0.936221
0.935494
0.934766
0.934038
0.93331
0.932582
0.931854
0.931126
0.930398
0.92967
0.928942
0.928214
0.927486
0.926758
0.92603
0.925302
0.924574
0.923846
0.923118
0.92239
0.921662
0.920933
0.920205
0.919477
0.918749
0.918021
0.917293
0.916565
0.915836
0.915108
0.91438
0.913652
0.912923
0.912195
0.911467
0.910739
0.91001
0.909282
0.908554
0.907825
0.907097
0.906369
0.90564
0.904912
0.904183
0.903455
0.902727
0.901998
0.90127
0.900541
0.899813
0.899084
0.898356
0.897627
0.896899
0.89617
0.895442
0.894713
0.893984
0.893256
0.892527
0.891798
0.89107
0.890341
0.889612
0.888884
0.888155
0.887426
0.886698
0.885969
0.88524
0.884511
0.883782
0.883054
0.882325
0.881596
0.880867
0.880138
0.879409
0.87868
0.877951
0.877222
0.876493
0.875764
0.875035
0.874306
0.873577
0.872848
0.872119
0.87139
0.870661
0.869932
0.869203
0.868474
0.867744
0.867015
0.866286
0.865557
0.864828
0.864098
0.863369
0.86264
0.861911
0.861181
0.860452
0.859723
0.858993
0.858264
0.857534
0.856805
0.856076
0.855346
0.854617
0.853887
0.853158
0.852428
0.851699
0.850969
0.850239
0.84951
0.84878
0.848051
0.847321
0.846591
0.845862
0.845132
0.844402
0.843673
0.842943
0.842213
0.841483
0.840753
0.840024
0.839294
0.838564
0.837834
0.837104
0.836374
0.835644
0.834914
0.834185
0.833455
0.832725
0.831995
0.831265
0.830534
0.829804
0.829074
0.828344
0.827614
0.826884
0.826154
0.825424
0.824694
0.823963
0.823233
0.822503
0.821773
0.821042
0.820312
0.819582
0.818851
0.818121
0.817391
0.81666
0.81593
0.8152
0.814469
0.813739
0.813008
0.812278
0.811547
0.810817
0.810086
0.809356
0.808625
0.807894
0.807164
0.806433
0.805703
0.804972
0.804241
0.803511
0.80278
0.802049
0.801318
0.800588
0.799857
0.799126
0.798395
0.797664
0.796934
0.796203
0.795472
0.794741
0.79401
0.793279
0.792548
0.791817
0.791086
0.790355
0.789624
0.788893
0.788162
0.787431
0.7867
0.785969
0.785238
0.784507
0.783776
0.783045
0.782313
0.781582
0.780851
0.78012
0.779389
0.778657
0.777926
0.777195
0.776463
0.775732
0.775001
0.77427
0.773538
0.772807
0.772075
0.771344
0.770613
0.769881
0.76915
0.768418
0.767687
0.766955
0.766224
0.765492
0.764761
0.764029
0.763298
0.762566
0.761834
0.761103
0.760371
0.75964
0.758908
0.758176
0.757445
0.756713
0.755981
0.75525
0.754518
0.753786
0.753054
0.752323
0.751591
0.750859
0.750127
0.749395
0.748663
0.747932
0.7472
0.746468
0.745736
0.745004
0.744272
0.74354
0.742808
0.742076
0.741344
0.740613
0.739881
0.739149
0.738417
0.737685
0.736952
0.73622
0.735488
0.734756
0.734024
0.733292
0.73256
0.731828
0.731096
0.730364
0.729632
0.728899
0.728167
0.727435
0.726703
0.725971
0.725239
0.724506
0.723774
0.723042
0.72231
0.721577
0.720845
0.720113
0.719381
0.718648
0.717916
0.717184
0.716451
0.715719
0.714987
0.714254
0.713522
0.71279
0.712057
0.711325
0.710593
0.70986
0.709128
0.708395
0.707663
0.706931
0.706198
0.705466
0.704733
0.704001
0.703268
0.702536
0.701803
0.701071
0.700339
0.699606
0.698874
0.698141
0.697409
0.696676
0.695944
0.695211
0.694478
0.693746
0.693013
0.692281
0.691548
0.690816
0.690083
0.689351
0.688618
0.687885
0.687153
0.68642
0.685688
0.684955
0.684223
0.68349
0.682757
0.682025
0.681292
0.68056
0.679827
0.679094
0.678362
0.677629
0.676896
0.676164
0.675431
0.674699
0.673966
0.673233
0.672501
0.671768
0.671035
0.670303
0.66957
0.668837
0.668105
0.667372
0.666639
0.665907
0.665174
0.664441
0.663709
0.662976
0.662243
0.661511
0.660778
0.660045
0.659313
0.65858
0.657847
0.657115
0.656382
0.655649
0.654917
0.654184
0.653452
0.652719
0.651986
0.651254
0.650521
0.649788
0.649056
0.648323
0.64759
0.646858
0.646125
0.645392
0.64466
0.643927
0.643195
0.642462
0.641729
0.640997
0.640264
0.639531
0.638799
0.638066
0.637334
0.636601
0.635868
0.635136
0.634403
0.633671
0.632938
0.632206
0.631473
0.63074
0.630008
0.629275
0.628543
0.62781
0.627078
0.626345
0.625613
0.62488
0.624148
0.623415
0.622683
0.62195
0.621218
0.620485
0.619753
0.61902
0.618288
0.617555
0.616823
0.61609
0.615358
0.614625
0.613893
0.613161
0.612428
0.611696
0.610963
0.610231
0.609499
0.608766
0.608034
0.607301
0.606569
0.605837
0.605104
0.604372
0.60364
0.602907
0.602175
0.601443
0.60071
0.599978
0.599246
0.598514
0.597781
0.597049
0.596317
0.595585
0.594852
0.59412
0.593388
0.592656
0.591924
0.591191
0.590459
0.589727
0.588995
0.588263
0.587531
0.586799
0.586067
0.585334
0.584602
0.58387
0.583138
0.582406
0.581674
0.580942
0.58021
0.579478
0.578746
0.578014
0.577282
0.57655
0.575818
0.575086
0.574355
0.573623
0.572891
0.572159
0.571427
0.570695
0.569963
0.569231
0.5685
0.567768
0.567036
0.566304
0.565572
0.564841
0.564109
0.563377
0.562646
0.561914
0.561182
0.56045
0.559719
0.558987
0.558256
0.557524
0.556792
0.556061
0.555329
0.554598
0.553866
0.553134
0.552403
0.551671
0.55094
0.550208
0.549477
0.548746
0.548014
0.547283
0.546551
0.54582
0.545088
0.544357
0.543626
0.542894
0.542163
0.541432
0.5407
0.539969
0.539238
0.538507
0.537775
0.537044
0.536313
0.535582
0.534851
0.534119
0.533388
0.532657
0.531926
0.531195
0.530464
0.529733
0.529002
0.528271
0.52754
0.526809
0.526078
0.525347
0.524616
0.523885
0.523154
0.522423
0.521692
0.520961
0.52023
0.519499
0.518769
0.518038
0.517307
0.516576
0.515845
0.515115
0.514384
0.513653
0.512922
0.512192
0.511461
0.51073
0.51
0.509269
0.508538
0.507808
0.507077
0.506347
0.505616
0.504885
0.504155
0.503424
0.502694
0.501963
0.501233
0.500502
0.499772
0.499042
0.498311
0.497581
0.49685
0.49612
0.49539
0.494659
0.493929
0.493199
0.492468
0.491738
0.491008
0.490278
0.489547
0.488817
0.488087
0.487357
0.486627
0.485897
0.485166
0.484436
0.483706
0.482976
0.482246
0.481516
0.480786
0.480056
0.479326
0.478596
0.477866
0.477136
0.476406
0.475676
0.474946
0.474216
0.473486
0.472756
0.472026
0.471297
0.470567
0.469837
0.469107
0.468377
0.467648
0.466918
0.466188
0.465458
0.464729
0.463999
0.463269
0.462539
0.46181
0.46108
0.46035
0.459621
0.458891
0.458162
0.457432
0.456702
0.455973
0.455243
0.454514
0.453784
0.453055
0.452325
0.451596
0.450866
0.450137
0.449407
0.448678
0.447948
0.447219
0.446489
0.44576
0.445031
0.444301
0.443572
0.442842
0.442113
0.441384
0.440654
0.439925
0.439196
0.438467
0.437737
0.437008
0.436279
0.43555
0.43482
0.434091
0.433362
0.432633
0.431903
0.431174
0.430445
0.429716
0.428987
0.428258
0.427528
0.426799
0.42607
0.425341
0.424612
0.423883
0.423154
0.422425
0.421696
0.420967
0.420238
0.419508
0.418779
0.41805
0.417321
0.416592
0.415863
0.415134
0.414405
0.413676
0.412947
0.412218
0.411489
0.410761
0.410032
0.409303
0.408574
0.407845
0.407116
0.406387
0.405658
0.404929
0.4042
0.403471
0.402742
0.402014
0.401285
0.400556
0.399827
0.399098
0.398369
0.39764
0.396911
0.396183
0.395454
0.394725
0.393996
0.393267
0.392538
0.39181
0.391081
0.390352
0.389623
0.388894
0.388166
0.387437
0.386708
0.385979
0.38525
0.384521
0.383793
0.383064
0.382335
0.381606
0.380878
0.380149
0.37942
0.378691
0.377962
0.377234
0.376505
0.375776
0.375047
0.374319
0.37359
0.372861
0.372132
0.371403
0.370675
0.369946
0.369217
0.368488
0.36776
0.367031
0.366302
0.365573
0.364844
0.364116
0.363387
0.362658
0.361929
0.3612
0.360472
0.359743
0.359014
0.358285
0.357557
0.356828
0.356099
0.35537
0.354641
0.353913
0.353184
0.352455
0.351726
0.350997
0.350269
0.34954
0.348811
0.348082
0.347353
0.346625
0.345896
0.345167
0.344438
0.343709
0.34298
0.342252
0.341523
0.340794
0.340065
0.339336
0.338608
0.337879
0.33715
0.336421
0.335692
0.334963
0.334235
0.333506
0.332777
0.332048
0.331319
0.33059
0.329862
0.329133
0.328404
0.327675
0.326946
0.326218
0.325489
0.32476
0.324031
0.323303
0.322574
0.321845
0.321116
0.320388
0.319659
0.31893
0.318202
0.317473
0.316744
0.316016
0.315287
0.314558
0.31383
0.313101
0.312373
0.311644
0.310916
0.310187
0.309459
0.308731
0.308002
0.307274
0.306546
0.305817
0.305089
0.304361
0.303633
0.302905
0.302177
0.301449
0.300722
0.299994
0.299266
0.298539
0.297811
0.297084
0.296357
0.295629
0.294902
0.294176
0.293449
0.292722
0.291996
0.29127
0.290544
0.289818
0.289092
0.288367
0.287642
0.286917
0.286193
0.285469
0.284745
0.284022
0.283299
0.282577
0.281856
0.281135
0.280415
0.279696
0.278978
0.278261
0.277546
0.276833
0.276122
0.275415
0.274711
0.274014
0.273326
0.272648
0.272134
0.271117
0.827676
1.1383
0.899217
1.05652
0.971034
1.00106
0.99524
0.994627
0.993904
0.993181
0.992457
0.991732
0.991008
0.990282
0.989557
0.988831
0.988105
0.987379
0.986653
0.985927
0.9852
0.984474
0.983747
0.983021
0.982294
0.981568
0.980841
0.980114
0.979387
0.978661
0.977934
0.977207
0.97648
0.975753
0.975026
0.974299
0.973572
0.972845
0.972119
0.971392
0.970665
0.969938
0.96921
0.968483
0.967756
0.967029
0.966302
0.965575
0.964848
0.964121
0.963394
0.962667
0.96194
0.961213
0.960485
0.959758
0.959031
0.958304
0.957577
0.95685
0.956122
0.955395
0.954668
0.953941
0.953213
0.952486
0.951759
0.951032
0.950304
0.949577
0.94885
0.948123
0.947395
0.946668
0.945941
0.945213
0.944486
0.943759
0.943031
0.942304
0.941577
0.940849
0.940122
0.939394
0.938667
0.93794
0.937212
0.936485
0.935757
0.93503
0.934302
0.933575
0.932847
0.93212
0.931392
0.930665
0.929937
0.92921
0.928482
0.927755
0.927027
0.926299
0.925572
0.924844
0.924117
0.923389
0.922661
0.921934
0.921206
0.920478
0.919751
0.919023
0.918295
0.917567
0.91684
0.916112
0.915384
0.914656
0.913929
0.913201
0.912473
0.911745
0.911017
0.910289
0.909562
0.908834
0.908106
0.907378
0.90665
0.905922
0.905194
0.904466
0.903738
0.90301
0.902282
0.901554
0.900826
0.900098
0.89937
0.898642
0.897914
0.897186
0.896458
0.89573
0.895001
0.894273
0.893545
0.892817
0.892089
0.89136
0.890632
0.889904
0.889176
0.888447
0.887719
0.886991
0.886263
0.885534
0.884806
0.884077
0.883349
0.882621
0.881892
0.881164
0.880435
0.879707
0.878978
0.87825
0.877521
0.876793
0.876064
0.875336
0.874607
0.873879
0.87315
0.872422
0.871693
0.870964
0.870236
0.869507
0.868778
0.868049
0.867321
0.866592
0.865863
0.865134
0.864406
0.863677
0.862948
0.862219
0.86149
0.860761
0.860032
0.859304
0.858575
0.857846
0.857117
0.856388
0.855659
0.85493
0.854201
0.853472
0.852743
0.852013
0.851284
0.850555
0.849826
0.849097
0.848368
0.847639
0.846909
0.84618
0.845451
0.844722
0.843992
0.843263
0.842534
0.841804
0.841075
0.840346
0.839616
0.838887
0.838157
0.837428
0.836699
0.835969
0.83524
0.83451
0.833781
0.833051
0.832321
0.831592
0.830862
0.830133
0.829403
0.828673
0.827944
0.827214
0.826484
0.825755
0.825025
0.824295
0.823565
0.822836
0.822106
0.821376
0.820646
0.819916
0.819186
0.818456
0.817727
0.816997
0.816267
0.815537
0.814807
0.814077
0.813347
0.812617
0.811887
0.811157
0.810426
0.809696
0.808966
0.808236
0.807506
0.806776
0.806046
0.805315
0.804585
0.803855
0.803125
0.802394
0.801664
0.800934
0.800204
0.799473
0.798743
0.798012
0.797282
0.796552
0.795821
0.795091
0.79436
0.79363
0.792899
0.792169
0.791438
0.790708
0.789977
0.789247
0.788516
0.787785
0.787055
0.786324
0.785593
0.784863
0.784132
0.783401
0.782671
0.78194
0.781209
0.780478
0.779748
0.779017
0.778286
0.777555
0.776824
0.776094
0.775363
0.774632
0.773901
0.77317
0.772439
0.771708
0.770977
0.770246
0.769515
0.768784
0.768053
0.767322
0.766591
0.76586
0.765129
0.764398
0.763667
0.762935
0.762204
0.761473
0.760742
0.760011
0.75928
0.758548
0.757817
0.757086
0.756355
0.755623
0.754892
0.754161
0.753429
0.752698
0.751967
0.751235
0.750504
0.749773
0.749041
0.74831
0.747579
0.746847
0.746116
0.745384
0.744653
0.743921
0.74319
0.742458
0.741727
0.740995
0.740264
0.739532
0.738801
0.738069
0.737337
0.736606
0.735874
0.735143
0.734411
0.733679
0.732948
0.732216
0.731484
0.730753
0.730021
0.729289
0.728558
0.727826
0.727094
0.726362
0.725631
0.724899
0.724167
0.723435
0.722703
0.721972
0.72124
0.720508
0.719776
0.719044
0.718312
0.717581
0.716849
0.716117
0.715385
0.714653
0.713921
0.713189
0.712457
0.711725
0.710993
0.710261
0.709529
0.708798
0.708066
0.707334
0.706602
0.70587
0.705138
0.704406
0.703674
0.702942
0.70221
0.701478
0.700745
0.700013
0.699281
0.698549
0.697817
0.697085
0.696353
0.695621
0.694889
0.694157
0.693425
0.692693
0.69196
0.691228
0.690496
0.689764
0.689032
0.6883
0.687568
0.686836
0.686103
0.685371
0.684639
0.683907
0.683175
0.682443
0.68171
0.680978
0.680246
0.679514
0.678782
0.67805
0.677317
0.676585
0.675853
0.675121
0.674389
0.673656
0.672924
0.672192
0.67146
0.670728
0.669995
0.669263
0.668531
0.667799
0.667066
0.666334
0.665602
0.66487
0.664138
0.663405
0.662673
0.661941
0.661209
0.660476
0.659744
0.659012
0.65828
0.657548
0.656815
0.656083
0.655351
0.654619
0.653886
0.653154
0.652422
0.65169
0.650958
0.650225
0.649493
0.648761
0.648029
0.647296
0.646564
0.645832
0.6451
0.644368
0.643635
0.642903
0.642171
0.641439
0.640707
0.639974
0.639242
0.63851
0.637778
0.637046
0.636314
0.635581
0.634849
0.634117
0.633385
0.632653
0.631921
0.631188
0.630456
0.629724
0.628992
0.62826
0.627528
0.626796
0.626064
0.625332
0.624599
0.623867
0.623135
0.622403
0.621671
0.620939
0.620207
0.619475
0.618743
0.618011
0.617279
0.616547
0.615815
0.615083
0.614351
0.613619
0.612887
0.612155
0.611423
0.610691
0.609959
0.609227
0.608495
0.607763
0.607031
0.606299
0.605567
0.604835
0.604103
0.603372
0.60264
0.601908
0.601176
0.600444
0.599712
0.59898
0.598249
0.597517
0.596785
0.596053
0.595321
0.59459
0.593858
0.593126
0.592394
0.591663
0.590931
0.590199
0.589467
0.588736
0.588004
0.587272
0.586541
0.585809
0.585077
0.584346
0.583614
0.582882
0.582151
0.581419
0.580688
0.579956
0.579225
0.578493
0.577761
0.57703
0.576298
0.575567
0.574835
0.574104
0.573372
0.572641
0.57191
0.571178
0.570447
0.569715
0.568984
0.568253
0.567521
0.56679
0.566058
0.565327
0.564596
0.563865
0.563133
0.562402
0.561671
0.560939
0.560208
0.559477
0.558746
0.558015
0.557283
0.556552
0.555821
0.55509
0.554359
0.553628
0.552897
0.552165
0.551434
0.550703
0.549972
0.549241
0.54851
0.547779
0.547048
0.546317
0.545586
0.544855
0.544124
0.543394
0.542663
0.541932
0.541201
0.54047
0.539739
0.539008
0.538278
0.537547
0.536816
0.536085
0.535354
0.534624
0.533893
0.533162
0.532432
0.531701
0.53097
0.53024
0.529509
0.528778
0.528048
0.527317
0.526587
0.525856
0.525125
0.524395
0.523664
0.522934
0.522203
0.521473
0.520742
0.520012
0.519282
0.518551
0.517821
0.51709
0.51636
0.51563
0.514899
0.514169
0.513439
0.512709
0.511978
0.511248
0.510518
0.509788
0.509057
0.508327
0.507597
0.506867
0.506137
0.505407
0.504676
0.503946
0.503216
0.502486
0.501756
0.501026
0.500296
0.499566
0.498836
0.498106
0.497376
0.496646
0.495916
0.495186
0.494457
0.493727
0.492997
0.492267
0.491537
0.490807
0.490077
0.489348
0.488618
0.487888
0.487158
0.486429
0.485699
0.484969
0.48424
0.48351
0.48278
0.482051
0.481321
0.480591
0.479862
0.479132
0.478403
0.477673
0.476944
0.476214
0.475485
0.474755
0.474026
0.473296
0.472567
0.471837
0.471108
0.470378
0.469649
0.46892
0.46819
0.467461
0.466732
0.466002
0.465273
0.464544
0.463814
0.463085
0.462356
0.461627
0.460897
0.460168
0.459439
0.45871
0.457981
0.457251
0.456522
0.455793
0.455064
0.454335
0.453606
0.452877
0.452148
0.451419
0.450689
0.44996
0.449231
0.448502
0.447773
0.447044
0.446315
0.445586
0.444858
0.444129
0.4434
0.442671
0.441942
0.441213
0.440484
0.439755
0.439026
0.438297
0.437569
0.43684
0.436111
0.435382
0.434653
0.433925
0.433196
0.432467
0.431738
0.431009
0.430281
0.429552
0.428823
0.428095
0.427366
0.426637
0.425908
0.42518
0.424451
0.423722
0.422994
0.422265
0.421537
0.420808
0.420079
0.419351
0.418622
0.417894
0.417165
0.416436
0.415708
0.414979
0.414251
0.413522
0.412794
0.412065
0.411337
0.410608
0.40988
0.409151
0.408423
0.407694
0.406966
0.406237
0.405509
0.40478
0.404052
0.403323
0.402595
0.401866
0.401138
0.400409
0.399681
0.398953
0.398224
0.397496
0.396767
0.396039
0.39531
0.394582
0.393854
0.393125
0.392397
0.391669
0.39094
0.390212
0.389483
0.388755
0.388027
0.387298
0.38657
0.385842
0.385113
0.384385
0.383656
0.382928
0.3822
0.381471
0.380743
0.380015
0.379286
0.378558
0.37783
0.377101
0.376373
0.375645
0.374916
0.374188
0.37346
0.372731
0.372003
0.371275
0.370546
0.369818
0.36909
0.368361
0.367633
0.366905
0.366176
0.365448
0.36472
0.363991
0.363263
0.362535
0.361806
0.361078
0.36035
0.359621
0.358893
0.358164
0.357436
0.356708
0.355979
0.355251
0.354523
0.353794
0.353066
0.352338
0.351609
0.350881
0.350153
0.349424
0.348696
0.347967
0.347239
0.346511
0.345782
0.345054
0.344326
0.343597
0.342869
0.34214
0.341412
0.340684
0.339955
0.339227
0.338498
0.33777
0.337042
0.336313
0.335585
0.334857
0.334128
0.3334
0.332671
0.331943
0.331215
0.330486
0.329758
0.32903
0.328301
0.327573
0.326844
0.326116
0.325388
0.324659
0.323931
0.323203
0.322474
0.321746
0.321018
0.32029
0.319561
0.318833
0.318105
0.317377
0.316648
0.31592
0.315192
0.314464
0.313736
0.313008
0.31228
0.311551
0.310823
0.310095
0.309367
0.30864
0.307912
0.307184
0.306456
0.305728
0.305
0.304273
0.303545
0.302818
0.30209
0.301363
0.300635
0.299908
0.299181
0.298454
0.297727
0.297
0.296273
0.295546
0.29482
0.294093
0.293367
0.292641
0.291915
0.291189
0.290464
0.289738
0.289013
0.288288
0.287564
0.286839
0.286115
0.285392
0.284668
0.283945
0.283223
0.282501
0.28178
0.28106
0.28034
0.279622
0.278904
0.278187
0.277472
0.276759
0.276048
0.27534
0.274635
0.273934
0.273237
0.272539
0.271958
0.270886
0.827728
1.13836
0.899237
1.05654
0.971042
1.00106
0.995244
0.99463
0.993907
0.993183
0.992458
0.991733
0.991008
0.990282
0.989557
0.988831
0.988105
0.987379
0.986653
0.985926
0.9852
0.984473
0.983747
0.98302
0.982294
0.981567
0.98084
0.980114
0.979387
0.97866
0.977933
0.977206
0.976479
0.975753
0.975026
0.974299
0.973572
0.972845
0.972118
0.971391
0.970664
0.969937
0.96921
0.968483
0.967756
0.967029
0.966302
0.965575
0.964848
0.96412
0.963393
0.962666
0.961939
0.961212
0.960485
0.959758
0.95903
0.958303
0.957576
0.956849
0.956122
0.955395
0.954667
0.95394
0.953213
0.952486
0.951758
0.951031
0.950304
0.949577
0.948849
0.948122
0.947395
0.946667
0.94594
0.945213
0.944485
0.943758
0.943031
0.942303
0.941576
0.940849
0.940121
0.939394
0.938666
0.937939
0.937211
0.936484
0.935757
0.935029
0.934302
0.933574
0.932847
0.932119
0.931392
0.930664
0.929937
0.929209
0.928481
0.927754
0.927026
0.926299
0.925571
0.924844
0.924116
0.923388
0.922661
0.921933
0.921205
0.920478
0.91975
0.919022
0.918294
0.917567
0.916839
0.916111
0.915383
0.914656
0.913928
0.9132
0.912472
0.911744
0.911017
0.910289
0.909561
0.908833
0.908105
0.907377
0.906649
0.905921
0.905193
0.904465
0.903737
0.90301
0.902282
0.901553
0.900825
0.900097
0.899369
0.898641
0.897913
0.897185
0.896457
0.895729
0.895001
0.894273
0.893544
0.892816
0.892088
0.89136
0.890632
0.889903
0.889175
0.888447
0.887718
0.88699
0.886262
0.885534
0.884805
0.884077
0.883348
0.88262
0.881892
0.881163
0.880435
0.879706
0.878978
0.878249
0.877521
0.876792
0.876064
0.875335
0.874607
0.873878
0.873149
0.872421
0.871692
0.870964
0.870235
0.869506
0.868777
0.868049
0.86732
0.866591
0.865863
0.865134
0.864405
0.863676
0.862947
0.862218
0.86149
0.860761
0.860032
0.859303
0.858574
0.857845
0.857116
0.856387
0.855658
0.854929
0.8542
0.853471
0.852742
0.852013
0.851284
0.850555
0.849825
0.849096
0.848367
0.847638
0.846909
0.846179
0.84545
0.844721
0.843992
0.843262
0.842533
0.841804
0.841074
0.840345
0.839616
0.838886
0.838157
0.837427
0.836698
0.835968
0.835239
0.834509
0.83378
0.83305
0.832321
0.831591
0.830862
0.830132
0.829402
0.828673
0.827943
0.827213
0.826484
0.825754
0.825024
0.824294
0.823565
0.822835
0.822105
0.821375
0.820645
0.819916
0.819186
0.818456
0.817726
0.816996
0.816266
0.815536
0.814806
0.814076
0.813346
0.812616
0.811886
0.811156
0.810426
0.809696
0.808966
0.808236
0.807505
0.806775
0.806045
0.805315
0.804585
0.803854
0.803124
0.802394
0.801664
0.800933
0.800203
0.799473
0.798742
0.798012
0.797281
0.796551
0.795821
0.79509
0.79436
0.793629
0.792899
0.792168
0.791438
0.790707
0.789977
0.789246
0.788515
0.787785
0.787054
0.786324
0.785593
0.784862
0.784132
0.783401
0.78267
0.781939
0.781209
0.780478
0.779747
0.779016
0.778285
0.777555
0.776824
0.776093
0.775362
0.774631
0.7739
0.773169
0.772438
0.771707
0.770976
0.770246
0.769515
0.768784
0.768052
0.767321
0.76659
0.765859
0.765128
0.764397
0.763666
0.762935
0.762204
0.761473
0.760741
0.76001
0.759279
0.758548
0.757817
0.757085
0.756354
0.755623
0.754892
0.75416
0.753429
0.752698
0.751966
0.751235
0.750504
0.749772
0.749041
0.748309
0.747578
0.746847
0.746115
0.745384
0.744652
0.743921
0.743189
0.742458
0.741726
0.740995
0.740263
0.739532
0.7388
0.738068
0.737337
0.736605
0.735874
0.735142
0.73441
0.733679
0.732947
0.732215
0.731484
0.730752
0.73002
0.729289
0.728557
0.727825
0.727094
0.726362
0.72563
0.724898
0.724166
0.723435
0.722703
0.721971
0.721239
0.720507
0.719776
0.719044
0.718312
0.71758
0.716848
0.716116
0.715384
0.714653
0.713921
0.713189
0.712457
0.711725
0.710993
0.710261
0.709529
0.708797
0.708065
0.707333
0.706601
0.705869
0.705137
0.704405
0.703673
0.702941
0.702209
0.701477
0.700745
0.700013
0.699281
0.698549
0.697817
0.697085
0.696353
0.695621
0.694888
0.694156
0.693424
0.692692
0.69196
0.691228
0.690496
0.689764
0.689032
0.688299
0.687567
0.686835
0.686103
0.685371
0.684639
0.683907
0.683174
0.682442
0.68171
0.680978
0.680246
0.679514
0.678781
0.678049
0.677317
0.676585
0.675853
0.67512
0.674388
0.673656
0.672924
0.672192
0.671459
0.670727
0.669995
0.669263
0.66853
0.667798
0.667066
0.666334
0.665602
0.664869
0.664137
0.663405
0.662673
0.66194
0.661208
0.660476
0.659744
0.659012
0.658279
0.657547
0.656815
0.656083
0.65535
0.654618
0.653886
0.653154
0.652422
0.651689
0.650957
0.650225
0.649493
0.64876
0.648028
0.647296
0.646564
0.645832
0.645099
0.644367
0.643635
0.642903
0.642171
0.641438
0.640706
0.639974
0.639242
0.63851
0.637778
0.637045
0.636313
0.635581
0.634849
0.634117
0.633385
0.632653
0.63192
0.631188
0.630456
0.629724
0.628992
0.62826
0.627528
0.626796
0.626063
0.625331
0.624599
0.623867
0.623135
0.622403
0.621671
0.620939
0.620207
0.619475
0.618743
0.618011
0.617279
0.616547
0.615815
0.615083
0.614351
0.613619
0.612887
0.612155
0.611423
0.610691
0.609959
0.609227
0.608495
0.607763
0.607031
0.606299
0.605567
0.604835
0.604103
0.603371
0.602639
0.601908
0.601176
0.600444
0.599712
0.59898
0.598248
0.597516
0.596785
0.596053
0.595321
0.594589
0.593858
0.593126
0.592394
0.591662
0.590931
0.590199
0.589467
0.588735
0.588004
0.587272
0.58654
0.585809
0.585077
0.584345
0.583614
0.582882
0.582151
0.581419
0.580687
0.579956
0.579224
0.578493
0.577761
0.57703
0.576298
0.575567
0.574835
0.574104
0.573372
0.572641
0.571909
0.571178
0.570446
0.569715
0.568984
0.568252
0.567521
0.56679
0.566058
0.565327
0.564596
0.563864
0.563133
0.562402
0.56167
0.560939
0.560208
0.559477
0.558746
0.558014
0.557283
0.556552
0.555821
0.55509
0.554359
0.553627
0.552896
0.552165
0.551434
0.550703
0.549972
0.549241
0.54851
0.547779
0.547048
0.546317
0.545586
0.544855
0.544124
0.543393
0.542662
0.541931
0.541201
0.54047
0.539739
0.539008
0.538277
0.537546
0.536816
0.536085
0.535354
0.534623
0.533893
0.533162
0.532431
0.531701
0.53097
0.530239
0.529509
0.528778
0.528047
0.527317
0.526586
0.525856
0.525125
0.524395
0.523664
0.522934
0.522203
0.521473
0.520742
0.520012
0.519281
0.518551
0.517821
0.51709
0.51636
0.515629
0.514899
0.514169
0.513439
0.512708
0.511978
0.511248
0.510517
0.509787
0.509057
0.508327
0.507597
0.506867
0.506136
0.505406
0.504676
0.503946
0.503216
0.502486
0.501756
0.501026
0.500296
0.499566
0.498836
0.498106
0.497376
0.496646
0.495916
0.495186
0.494456
0.493726
0.492996
0.492267
0.491537
0.490807
0.490077
0.489347
0.488618
0.487888
0.487158
0.486428
0.485699
0.484969
0.484239
0.48351
0.48278
0.48205
0.481321
0.480591
0.479862
0.479132
0.478402
0.477673
0.476943
0.476214
0.475484
0.474755
0.474025
0.473296
0.472566
0.471837
0.471108
0.470378
0.469649
0.468919
0.46819
0.467461
0.466731
0.466002
0.465273
0.464543
0.463814
0.463085
0.462356
0.461626
0.460897
0.460168
0.459439
0.458709
0.45798
0.457251
0.456522
0.455793
0.455064
0.454335
0.453605
0.452876
0.452147
0.451418
0.450689
0.44996
0.449231
0.448502
0.447773
0.447044
0.446315
0.445586
0.444857
0.444128
0.443399
0.44267
0.441942
0.441213
0.440484
0.439755
0.439026
0.438297
0.437568
0.43684
0.436111
0.435382
0.434653
0.433924
0.433196
0.432467
0.431738
0.431009
0.430281
0.429552
0.428823
0.428094
0.427366
0.426637
0.425908
0.42518
0.424451
0.423722
0.422994
0.422265
0.421536
0.420808
0.420079
0.419351
0.418622
0.417893
0.417165
0.416436
0.415708
0.414979
0.41425
0.413522
0.412793
0.412065
0.411336
0.410608
0.409879
0.409151
0.408422
0.407694
0.406965
0.406237
0.405508
0.40478
0.404051
0.403323
0.402595
0.401866
0.401138
0.400409
0.399681
0.398952
0.398224
0.397496
0.396767
0.396039
0.39531
0.394582
0.393854
0.393125
0.392397
0.391668
0.39094
0.390212
0.389483
0.388755
0.388026
0.387298
0.38657
0.385841
0.385113
0.384385
0.383656
0.382928
0.3822
0.381471
0.380743
0.380015
0.379286
0.378558
0.37783
0.377101
0.376373
0.375644
0.374916
0.374188
0.373459
0.372731
0.372003
0.371274
0.370546
0.369818
0.369089
0.368361
0.367633
0.366904
0.366176
0.365448
0.364719
0.363991
0.363263
0.362534
0.361806
0.361078
0.360349
0.359621
0.358893
0.358164
0.357436
0.356708
0.355979
0.355251
0.354523
0.353794
0.353066
0.352337
0.351609
0.350881
0.350152
0.349424
0.348696
0.347967
0.347239
0.346511
0.345782
0.345054
0.344325
0.343597
0.342869
0.34214
0.341412
0.340684
0.339955
0.339227
0.338498
0.33777
0.337042
0.336313
0.335585
0.334856
0.334128
0.3334
0.332671
0.331943
0.331215
0.330486
0.329758
0.329029
0.328301
0.327573
0.326844
0.326116
0.325388
0.324659
0.323931
0.323203
0.322474
0.321746
0.321018
0.320289
0.319561
0.318833
0.318105
0.317376
0.316648
0.31592
0.315192
0.314464
0.313735
0.313007
0.312279
0.311551
0.310823
0.310095
0.309367
0.308639
0.307911
0.307183
0.306456
0.305728
0.305
0.304272
0.303545
0.302817
0.30209
0.301362
0.300635
0.299908
0.29918
0.298453
0.297726
0.296999
0.296273
0.295546
0.294819
0.294093
0.293366
0.29264
0.291914
0.291188
0.290463
0.289737
0.289012
0.288287
0.287562
0.286838
0.286114
0.28539
0.284667
0.283944
0.283221
0.282499
0.281778
0.281057
0.280337
0.279618
0.2789
0.278183
0.277467
0.276753
0.276041
0.27533
0.274622
0.273916
0.273216
0.272519
0.271936
0.270861
0.827721
1.13838
0.899258
1.05654
0.971053
1.00107
0.995247
0.994631
0.993907
0.993183
0.992458
0.991733
0.991008
0.990283
0.989557
0.988831
0.988105
0.987379
0.986653
0.985926
0.9852
0.984473
0.983747
0.98302
0.982294
0.981567
0.98084
0.980114
0.979387
0.97866
0.977933
0.977206
0.976479
0.975753
0.975026
0.974299
0.973572
0.972845
0.972118
0.971391
0.970664
0.969937
0.96921
0.968483
0.967756
0.967029
0.966302
0.965575
0.964847
0.96412
0.963393
0.962666
0.961939
0.961212
0.960485
0.959758
0.95903
0.958303
0.957576
0.956849
0.956122
0.955394
0.954667
0.95394
0.953213
0.952486
0.951758
0.951031
0.950304
0.949577
0.948849
0.948122
0.947395
0.946667
0.94594
0.945213
0.944485
0.943758
0.943031
0.942303
0.941576
0.940849
0.940121
0.939394
0.938666
0.937939
0.937211
0.936484
0.935757
0.935029
0.934302
0.933574
0.932847
0.932119
0.931392
0.930664
0.929937
0.929209
0.928481
0.927754
0.927026
0.926299
0.925571
0.924844
0.924116
0.923388
0.922661
0.921933
0.921205
0.920478
0.91975
0.919022
0.918294
0.917567
0.916839
0.916111
0.915384
0.914656
0.913928
0.9132
0.912472
0.911744
0.911017
0.910289
0.909561
0.908833
0.908105
0.907377
0.906649
0.905921
0.905193
0.904465
0.903738
0.90301
0.902282
0.901554
0.900825
0.900097
0.899369
0.898641
0.897913
0.897185
0.896457
0.895729
0.895001
0.894273
0.893544
0.892816
0.892088
0.89136
0.890632
0.889903
0.889175
0.888447
0.887719
0.88699
0.886262
0.885534
0.884805
0.884077
0.883348
0.88262
0.881892
0.881163
0.880435
0.879706
0.878978
0.878249
0.877521
0.876792
0.876064
0.875335
0.874607
0.873878
0.873149
0.872421
0.871692
0.870964
0.870235
0.869506
0.868778
0.868049
0.86732
0.866591
0.865863
0.865134
0.864405
0.863676
0.862947
0.862218
0.86149
0.860761
0.860032
0.859303
0.858574
0.857845
0.857116
0.856387
0.855658
0.854929
0.8542
0.853471
0.852742
0.852013
0.851284
0.850555
0.849825
0.849096
0.848367
0.847638
0.846909
0.846179
0.84545
0.844721
0.843992
0.843262
0.842533
0.841804
0.841074
0.840345
0.839616
0.838886
0.838157
0.837427
0.836698
0.835968
0.835239
0.834509
0.83378
0.83305
0.832321
0.831591
0.830862
0.830132
0.829402
0.828673
0.827943
0.827213
0.826484
0.825754
0.825024
0.824294
0.823565
0.822835
0.822105
0.821375
0.820645
0.819916
0.819186
0.818456
0.817726
0.816996
0.816266
0.815536
0.814806
0.814076
0.813346
0.812616
0.811886
0.811156
0.810426
0.809696
0.808966
0.808235
0.807505
0.806775
0.806045
0.805315
0.804585
0.803854
0.803124