/*--------------------------------*- C++ -*----------------------------------*\
| =========                 |                                                 |
| \\      /  F ield         | OpenFOAM: The Open Source CFD Toolbox           |
|  \\    /   O peration     | Version:  2512                                  |
|   \\  /    A nd           | Website:  www.openfoam.com                      |
|    \\/     M anipulation  |                                                 |
\*---------------------------------------------------------------------------*/
FoamFile
{
    version     2.0;
    format      ascii;
    arch        "LSB;label=32;scalar=64";
    class       volScalarField;
    location    "3e-05";
    object      Uy;
}
// * * * * * * * * * * * * * * * * * * * * * * * * * * * * * * * * * * * * * //

dimensions      [0 1 -1 0 0 0 0];

internalField   nonuniform List<scalar> 
100000
(
0.000168702
0.00017049
0.000277613
0.000241696
0.000274134
0.000270255
0.000274093
0.000275234
0.000275941
0.000276367
0.000276647
0.000276848
0.000277003
0.000277128
0.000277231
0.000277318
0.000277392
0.000277456
0.000277512
0.00027756
0.000277602
0.00027764
0.000277674
0.000277704
0.000277733
0.000277759
0.000277784
0.000277808
0.000277832
0.000277855
0.000277879
0.000277901
0.000277924
0.000277947
0.00027797
0.000277993
0.000278017
0.00027804
0.000278064
0.000278087
0.000278112
0.000278136
0.000278162
0.000278187
0.000278214
0.000278241
0.000278268
0.000278297
0.000278326
0.000278357
0.000278388
0.00027842
0.000278452
0.000278486
0.00027852
0.000278554
0.000278589
0.000278625
0.000278661
0.000278697
0.000278734
0.000278772
0.00027881
0.000278849
0.000278888
0.000278928
0.000278969
0.000279011
0.000279054
0.000279098
0.000279142
0.000279188
0.000279234
0.000279281
0.000279328
0.000279376
0.000279425
0.000279474
0.000279523
0.000279573
0.000279623
0.000279673
0.000279724
0.000279776
0.000279828
0.000279882
0.000279935
0.00027999
0.000280046
0.000280103
0.00028016
0.000280219
0.000280278
0.000280338
0.000280399
0.000280461
0.000280523
0.000280585
0.000280648
0.000280711
0.000280775
0.000280839
0.000280904
0.000280968
0.000281034
0.0002811
0.000281167
0.000281234
0.000281303
0.000281372
0.000281442
0.000281513
0.000281584
0.000281656
0.000281729
0.000281803
0.000281877
0.000281951
0.000282026
0.000282101
0.000282176
0.000282252
0.000282328
0.000282405
0.000282481
0.000282559
0.000282636
0.000282715
0.000282794
0.000282874
0.000282954
0.000283035
0.000283117
0.0002832
0.000283283
0.000283367
0.000283452
0.000283537
0.000283622
0.000283708
0.000283794
0.000283881
0.000283967
0.000284054
0.000284142
0.000284229
0.000284317
0.000284406
0.000284495
0.000284584
0.000284674
0.000284765
0.000284856
0.000284949
0.000285041
0.000285135
0.000285229
0.000285323
0.000285418
0.000285514
0.00028561
0.000285706
0.000285802
0.000285899
0.000285996
0.000286094
0.000286192
0.00028629
0.000286389
0.000286488
0.000286587
0.000286688
0.000286789
0.00028689
0.000286992
0.000287095
0.000287198
0.000287303
0.000287407
0.000287513
0.000287619
0.000287725
0.000287832
0.000287939
0.000288047
0.000288155
0.000288263
0.000288372
0.000288481
0.00028859
0.000288699
0.000288809
0.000288919
0.000289029
0.00028914
0.000289251
0.000289363
0.000289475
0.000289587
0.0002897
0.000289814
0.000289928
0.000290043
0.000290158
0.000290273
0.000290389
0.000290506
0.000290622
0.000290739
0.000290857
0.000290974
0.000291092
0.000291209
0.000291327
0.000291445
0.000291563
0.00029168
0.000291798
0.000291917
0.000292035
0.000292153
0.000292272
0.000292391
0.00029251
0.00029263
0.00029275
0.000292871
0.000292992
0.000293114
0.000293235
0.000293357
0.00029348
0.000293602
0.000293725
0.000293848
0.00029397
0.000294093
0.000294216
0.000294338
0.00029446
0.000294582
0.000294703
0.000294825
0.000294946
0.000295067
0.000295189
0.00029531
0.000295432
0.000295554
0.000295676
0.000295799
0.000295921
0.000296045
0.000296168
0.000296291
0.000296415
0.000296538
0.000296661
0.000296784
0.000296907
0.000297029
0.00029715
0.000297272
0.000297392
0.000297513
0.000297632
0.000297752
0.000297872
0.000297991
0.00029811
0.00029823
0.00029835
0.00029847
0.00029859
0.000298711
0.000298831
0.000298952
0.000299074
0.000299195
0.000299316
0.000299437
0.000299557
0.000299678
0.000299798
0.000299917
0.000300036
0.000300155
0.000300273
0.000300391
0.000300509
0.000300626
0.000300743
0.00030086
0.000300977
0.000301094
0.000301212
0.00030133
0.000301448
0.000301566
0.000301684
0.000301803
0.000301921
0.00030204
0.000302158
0.000302276
0.000302394
0.000302512
0.000302629
0.000302746
0.000302862
0.000302978
0.000303094
0.000303209
0.000303324
0.000303439
0.000303554
0.000303669
0.000303784
0.000303899
0.000304015
0.000304131
0.000304247
0.000304363
0.00030448
0.000304597
0.000304713
0.00030483
0.000304946
0.000305063
0.000305178
0.000305294
0.000305408
0.000305523
0.000305637
0.00030575
0.000305863
0.000305976
0.000306088
0.000306201
0.000306313
0.000306426
0.000306538
0.000306651
0.000306765
0.000306878
0.000306993
0.000307107
0.000307222
0.000307336
0.000307451
0.000307566
0.000307681
0.000307795
0.000307909
0.000308022
0.000308135
0.000308248
0.000308359
0.000308471
0.000308582
0.000308692
0.000308803
0.000308913
0.000309023
0.000309133
0.000309242
0.000309352
0.000309462
0.000309572
0.000309681
0.000309791
0.000309901
0.000310011
0.000310121
0.000310231
0.000310341
0.00031045
0.000310559
0.000310668
0.000310776
0.000310884
0.000310991
0.000311098
0.000311204
0.00031131
0.000311415
0.000311519
0.000311623
0.000311726
0.000311829
0.000311931
0.000312033
0.000312134
0.000312235
0.000312335
0.000312436
0.000312536
0.000312636
0.000312736
0.000312835
0.000312934
0.000313032
0.00031313
0.000313227
0.000313323
0.000313419
0.000313514
0.000313608
0.000313702
0.000313795
0.000313887
0.000313978
0.000314069
0.000314159
0.000314248
0.000314337
0.000314426
0.000314514
0.000314602
0.00031469
0.000314778
0.000314866
0.000314953
0.00031504
0.000315127
0.000315214
0.0003153
0.000315385
0.00031547
0.000315554
0.000315638
0.000315721
0.000315804
0.000315886
0.000315968
0.000316049
0.00031613
0.00031621
0.00031629
0.00031637
0.00031645
0.00031653
0.000316611
0.000316692
0.000316773
0.000316856
0.000316939
0.000317023
0.000317107
0.000317193
0.000317279
0.000317365
0.000317453
0.000317541
0.00031763
0.00031772
0.000317811
0.000317903
0.000317997
0.000318092
0.000318188
0.000318287
0.000318387
0.000318489
0.000318594
0.0003187
0.000318808
0.000318919
0.000319032
0.000319147
0.000319265
0.000319385
0.000319507
0.000319629
0.000319753
0.000319876
0.000319997
0.000320116
0.000320233
0.000320348
0.000320461
0.00032057
0.000320676
0.000320778
0.000320876
0.00032097
0.000321059
0.000321143
0.000321223
0.000321299
0.000321369
0.000321435
0.000321496
0.000321552
0.000321603
0.00032165
0.000321692
0.00032173
0.000321762
0.00032179
0.000321812
0.00032183
0.000321843
0.000321851
0.000321853
0.00032185
0.000321843
0.00032183
0.000321812
0.000321788
0.00032176
0.000321726
0.000321688
0.000321645
0.000321597
0.000321545
0.000321488
0.000321427
0.000321362
0.000321293
0.000321221
0.000321145
0.000321067
0.000320987
0.000320906
0.000320822
0.000320738
0.000320651
0.000320563
0.000320475
0.000320386
0.000320299
0.000320213
0.000320129
0.000320047
0.000319968
0.000319891
0.000319817
0.000319747
0.000319679
0.000319614
0.000319551
0.000319491
0.000319434
0.000319378
0.000319324
0.000319273
0.000319223
0.000319175
0.000319128
0.000319084
0.00031904
0.000318999
0.000318959
0.00031892
0.000318884
0.000318848
0.000318814
0.000318782
0.000318752
0.000318723
0.000318695
0.000318669
0.000318645
0.000318622
0.000318601
0.000318581
0.000318563
0.000318546
0.00031853
0.000318516
0.000318503
0.000318491
0.00031848
0.000318471
0.000318462
0.000318454
0.000318448
0.000318442
0.000318437
0.000318433
0.000318429
0.000318427
0.000318425
0.000318423
0.000318423
0.000318423
0.000318424
0.000318425
0.000318427
0.00031843
0.000318434
0.000318438
0.000318442
0.000318448
0.000318453
0.00031846
0.000318466
0.000318473
0.000318481
0.000318489
0.000318498
0.000318507
0.000318516
0.000318526
0.000318537
0.000318548
0.000318559
0.000318571
0.000318583
0.000318596
0.000318609
0.000318622
0.000318636
0.000318651
0.000318666
0.000318681
0.000318697
0.000318713
0.00031873
0.000318747
0.000318765
0.000318783
0.000318802
0.000318821
0.000318841
0.000318861
0.000318882
0.000318904
0.000318927
0.00031895
0.000318974
0.000318999
0.000319025
0.000319052
0.000319079
0.000319108
0.000319137
0.000319167
0.000319197
0.000319228
0.00031926
0.000319293
0.000319326
0.000319359
0.000319393
0.000319427
0.000319462
0.000319497
0.000319532
0.000319568
0.000319604
0.000319641
0.000319678
0.000319716
0.000319754
0.000319792
0.00031983
0.000319869
0.000319908
0.000319947
0.000319987
0.000320026
0.000320066
0.000320106
0.000320146
0.000320186
0.000320226
0.000320266
0.000320306
0.000320346
0.000320387
0.000320427
0.000320468
0.000320509
0.00032055
0.000320591
0.000320632
0.000320673
0.000320715
0.000320756
0.000320797
0.000320839
0.00032088
0.000320921
0.000320963
0.000321004
0.000321045
0.000321086
0.000321127
0.000321168
0.000321209
0.00032125
0.00032129
0.00032133
0.000321371
0.000321411
0.000321451
0.000321491
0.000321531
0.000321571
0.000321611
0.000321651
0.00032169
0.00032173
0.00032177
0.00032181
0.000321849
0.000321889
0.000321928
0.000321968
0.000322007
0.000322046
0.000322085
0.000322125
0.000322164
0.000322204
0.000322243
0.000322283
0.000322323
0.000322363
0.000322403
0.000322443
0.000322484
0.000322525
0.000322566
0.000322607
0.000322648
0.000322689
0.000322731
0.000322772
0.000322814
0.000322855
0.000322897
0.000322938
0.00032298
0.000323022
0.000323063
0.000323105
0.000323147
0.000323189
0.000323231
0.000323273
0.000323316
0.000323358
0.000323401
0.000323444
0.000323487
0.00032353
0.000323573
0.000323616
0.000323658
0.000323701
0.000323744
0.000323786
0.000323829
0.000323871
0.000323913
0.000323955
0.000323997
0.000324039
0.00032408
0.000324122
0.000324163
0.000324205
0.000324246
0.000324287
0.000324328
0.000324369
0.00032441
0.00032445
0.000324491
0.000324531
0.000324571
0.000324611
0.000324651
0.00032469
0.00032473
0.000324769
0.000324808
0.000324847
0.000324886
0.000324924
0.000324963
0.000325001
0.000325039
0.000325077
0.000325114
0.000325151
0.000325189
0.000325226
0.000325263
0.000325299
0.000325336
0.000325373
0.00032541
0.000325446
0.000325483
0.000325519
0.000325555
0.000325591
0.000325627
0.000325663
0.000325698
0.000325733
0.000325768
0.000325803
0.000325837
0.000325871
0.000325904
0.000325938
0.000325971
0.000326003
0.000326036
0.000326068
0.0003261
0.000326132
0.000326164
0.000326195
0.000326227
0.000326258
0.000326289
0.00032632
0.000326351
0.000326382
0.000326413
0.000326443
0.000326473
0.000326502
0.000326531
0.00032656
0.000326589
0.000326617
0.000326645
0.000326673
0.0003267
0.000326727
0.000326754
0.00032678
0.000326807
0.000326833
0.00032686
0.000326886
0.000326912
0.000326938
0.000326964
0.00032699
0.000327016
0.000327042
0.000327067
0.000327093
0.000327118
0.000327143
0.000327167
0.000327191
0.000327215
0.000327238
0.000327261
0.000327284
0.000327306
0.000327328
0.00032735
0.000327372
0.000327393
0.000327415
0.000327436
0.000327457
0.000327479
0.0003275
0.000327521
0.000327543
0.000327564
0.000327586
0.000327607
0.000327629
0.00032765
0.000327672
0.000327693
0.000327715
0.000327736
0.000327757
0.000327778
0.000327798
0.000327819
0.000327839
0.00032786
0.00032788
0.0003279
0.000327921
0.000327941
0.000327961
0.000327981
0.000328001
0.000328021
0.000328041
0.00032806
0.00032808
0.000328099
0.000328118
0.000328136
0.000328155
0.000328173
0.000328191
0.000328208
0.000328225
0.000328241
0.000328257
0.000328272
0.000328286
0.000328299
0.000328312
0.000328323
0.000328334
0.000328344
0.000328353
0.000328362
0.00032837
0.000328377
0.000328384
0.00032839
0.000328396
0.000328401
0.000328406
0.000328411
0.000328416
0.000328421
0.000328427
0.000328433
0.000328439
0.000328447
0.000328455
0.000328464
0.000328474
0.000328485
0.000328497
0.00032851
0.000328524
0.00032854
0.000328558
0.000328577
0.000328598
0.00032862
0.000328642
0.000328664
0.000328686
0.000328706
0.000328726
0.000328744
0.00032876
0.000328773
0.000328784
0.000328792
0.000328797
0.000328797
0.000328793
0.000328783
0.000328769
0.000328748
0.000328722
0.000328689
0.00032865
0.000328605
0.000328555
0.0003285
0.000328443
0.000328385
0.000328326
0.000328269
0.000328214
0.000328163
0.000328116
0.000328075
0.000328038
0.000328008
0.000327981
0.000327957
0.000327932
0.000327903
0.000327862
0.000327803
0.00032772
0.000327606
0.00032746
0.000327283
0.00032708
0.000326856
0.000326612
0.000326334
0.000325993
0.000325544
0.000324927
0.000324071
0.000322929
0.00032142
0.000319314
0.00031599
0.000309859
0.000297054
0.000270443
0.00019
1.13823e-06
2.66168e-05
0.000112893
0.000110156
0.000134891
0.000139562
0.000144923
0.000148359
0.000150699
0.000152346
0.000153537
0.000154421
0.000155092
0.000155613
0.000156025
0.000156358
0.000156631
0.000156858
0.00015705
0.000157215
0.000157358
0.000157483
0.000157593
0.00015769
0.000157778
0.000157856
0.000157927
0.000157991
0.000158049
0.000158101
0.00015815
0.000158194
0.000158235
0.000158274
0.000158309
0.000158343
0.000158374
0.000158404
0.000158432
0.000158459
0.000158484
0.000158509
0.000158532
0.000158554
0.000158576
0.000158596
0.000158615
0.000158634
0.000158651
0.000158668
0.000158684
0.000158699
0.000158714
0.000158728
0.000158742
0.000158756
0.00015877
0.000158783
0.000158797
0.00015881
0.000158824
0.000158838
0.000158851
0.000158864
0.000158877
0.00015889
0.000158903
0.000158915
0.000158927
0.000158939
0.00015895
0.000158962
0.000158973
0.000158984
0.000158995
0.000159006
0.000159017
0.000159029
0.000159041
0.000159053
0.000159065
0.000159078
0.000159091
0.000159104
0.000159117
0.00015913
0.000159143
0.000159155
0.000159168
0.00015918
0.000159192
0.000159203
0.000159215
0.000159226
0.000159238
0.000159249
0.000159261
0.000159273
0.000159285
0.000159298
0.000159311
0.000159324
0.000159337
0.000159351
0.000159365
0.000159379
0.000159393
0.000159407
0.000159421
0.000159435
0.000159449
0.000159462
0.000159476
0.000159489
0.000159503
0.000159517
0.00015953
0.000159545
0.000159559
0.000159574
0.000159589
0.000159605
0.000159621
0.000159637
0.000159654
0.000159671
0.000159688
0.000159705
0.000159722
0.000159739
0.000159756
0.000159773
0.00015979
0.000159807
0.000159824
0.000159841
0.000159858
0.000159875
0.000159893
0.00015991
0.000159928
0.000159947
0.000159966
0.000159985
0.000160005
0.000160025
0.000160045
0.000160065
0.000160086
0.000160107
0.000160127
0.000160148
0.000160169
0.000160189
0.00016021
0.000160231
0.000160251
0.000160272
0.000160293
0.000160314
0.000160335
0.000160357
0.000160379
0.000160401
0.000160423
0.000160446
0.000160469
0.000160493
0.000160516
0.00016054
0.000160564
0.000160588
0.000160611
0.000160635
0.000160659
0.000160682
0.000160706
0.000160729
0.000160753
0.000160776
0.0001608
0.000160823
0.000160847
0.00016087
0.000160894
0.000160919
0.000160943
0.000160968
0.000160993
0.000161019
0.000161044
0.00016107
0.000161096
0.000161123
0.000161149
0.000161176
0.000161203
0.00016123
0.000161257
0.000161284
0.00016131
0.000161337
0.000161364
0.000161391
0.000161418
0.000161445
0.000161472
0.0001615
0.000161527
0.000161555
0.000161583
0.000161611
0.00016164
0.000161669
0.000161699
0.000161728
0.000161759
0.000161789
0.00016182
0.000161852
0.000161883
0.000161915
0.000161947
0.000161978
0.00016201
0.000162042
0.000162074
0.000162106
0.000162138
0.000162169
0.000162201
0.000162233
0.000162266
0.000162298
0.000162331
0.000162364
0.000162398
0.000162432
0.000162467
0.000162502
0.000162538
0.000162575
0.000162612
0.000162649
0.000162687
0.000162725
0.000162763
0.000162802
0.00016284
0.000162879
0.000162917
0.000162955
0.000162994
0.000163032
0.000163071
0.00016311
0.000163149
0.000163189
0.000163229
0.00016327
0.000163312
0.000163354
0.000163397
0.000163441
0.000163485
0.00016353
0.000163576
0.000163622
0.000163668
0.000163714
0.000163761
0.000163807
0.000163853
0.0001639
0.000163946
0.000163992
0.000164038
0.000164084
0.00016413
0.000164177
0.000164224
0.000164271
0.000164319
0.000164367
0.000164416
0.000164465
0.000164515
0.000164565
0.000164616
0.000164668
0.000164719
0.000164771
0.000164824
0.000164876
0.000164928
0.00016498
0.000165032
0.000165083
0.000165135
0.000165186
0.000165238
0.000165289
0.000165341
0.000165393
0.000165445
0.000165497
0.00016555
0.000165603
0.000165656
0.00016571
0.000165765
0.00016582
0.000165875
0.000165931
0.000165986
0.000166042
0.000166098
0.000166153
0.000166209
0.000166264
0.000166319
0.000166373
0.000166428
0.000166482
0.000166536
0.00016659
0.000166644
0.000166698
0.000166752
0.000166807
0.000166862
0.000166918
0.000166974
0.00016703
0.000167087
0.000167144
0.000167201
0.000167259
0.000167316
0.000167374
0.000167431
0.000167488
0.000167544
0.0001676
0.000167656
0.000167711
0.000167766
0.00016782
0.000167874
0.000167928
0.000167982
0.000168036
0.00016809
0.000168145
0.000168199
0.000168254
0.00016831
0.000168365
0.000168421
0.000168477
0.000168534
0.00016859
0.000168646
0.000168702
0.000168758
0.000168814
0.00016887
0.000168926
0.000168981
0.000169036
0.000169091
0.000169145
0.0001692
0.000169253
0.000169307
0.00016936
0.000169414
0.000169467
0.000169521
0.000169574
0.000169628
0.000169682
0.000169736
0.00016979
0.000169844
0.000169898
0.000169953
0.000170008
0.000170062
0.000170118
0.000170173
0.000170228
0.000170283
0.000170338
0.000170394
0.000170448
0.000170503
0.000170558
0.000170612
0.000170666
0.00017072
0.000170774
0.000170829
0.000170883
0.000170938
0.000170993
0.000171048
0.000171103
0.000171158
0.000171214
0.000171269
0.000171326
0.000171382
0.000171438
0.000171495
0.000171552
0.000171608
0.000171665
0.000171721
0.000171778
0.000171834
0.000171889
0.000171945
0.000172
0.000172056
0.000172112
0.000172168
0.000172224
0.000172281
0.000172337
0.000172395
0.000172452
0.00017251
0.000172568
0.000172627
0.000172687
0.000172746
0.000172806
0.000172867
0.000172928
0.000172989
0.00017305
0.000173111
0.000173172
0.000173234
0.000173295
0.000173356
0.000173417
0.000173478
0.00017354
0.000173601
0.000173664
0.000173726
0.00017379
0.000173854
0.000173918
0.000173983
0.000174049
0.000174116
0.000174183
0.000174251
0.000174319
0.000174388
0.000174458
0.000174529
0.000174601
0.000174674
0.000174747
0.000174822
0.000174897
0.000174973
0.00017505
0.000175128
0.000175206
0.000175283
0.000175361
0.000175437
0.000175512
0.000175586
0.000175659
0.00017573
0.000175801
0.000175869
0.000175937
0.000176003
0.000176069
0.000176132
0.000176195
0.000176256
0.000176316
0.000176374
0.00017643
0.000176485
0.000176539
0.00017659
0.00017664
0.000176688
0.000176735
0.000176779
0.000176822
0.000176862
0.000176901
0.000176938
0.000176972
0.000177005
0.000177035
0.000177062
0.000177087
0.00017711
0.00017713
0.000177146
0.00017716
0.00017717
0.000177177
0.00017718
0.000177179
0.000177174
0.000177165
0.000177151
0.000177133
0.000177111
0.000177084
0.000177054
0.000177019
0.00017698
0.000176938
0.000176893
0.000176844
0.000176793
0.00017674
0.000176685
0.00017663
0.000176575
0.00017652
0.000176466
0.000176413
0.000176361
0.00017631
0.00017626
0.000176212
0.000176166
0.000176121
0.000176079
0.000176038
0.000176
0.000175964
0.00017593
0.000175899
0.000175869
0.000175842
0.000175817
0.000175794
0.000175773
0.000175754
0.000175737
0.000175722
0.000175709
0.000175697
0.000175687
0.000175678
0.000175671
0.000175665
0.00017566
0.000175657
0.000175655
0.000175654
0.000175654
0.000175655
0.000175657
0.00017566
0.000175664
0.000175669
0.000175675
0.000175682
0.00017569
0.000175698
0.000175708
0.000175718
0.00017573
0.000175742
0.000175755
0.000175769
0.000175784
0.000175799
0.000175816
0.000175833
0.000175851
0.000175869
0.000175888
0.000175908
0.000175928
0.000175949
0.000175971
0.000175993
0.000176015
0.000176038
0.000176062
0.000176086
0.000176111
0.000176136
0.000176162
0.000176188
0.000176215
0.000176242
0.000176269
0.000176297
0.000176325
0.000176353
0.000176382
0.000176411
0.00017644
0.00017647
0.0001765
0.00017653
0.00017656
0.00017659
0.000176621
0.000176651
0.000176682
0.000176713
0.000176744
0.000176776
0.000176807
0.000176838
0.000176869
0.0001769
0.000176931
0.000176962
0.000176993
0.000177023
0.000177053
0.000177083
0.000177112
0.000177141
0.00017717
0.000177198
0.000177226
0.000177254
0.000177281
0.000177308
0.000177334
0.00017736
0.000177386
0.000177412
0.000177437
0.000177462
0.000177488
0.000177513
0.000177537
0.000177562
0.000177586
0.000177611
0.000177635
0.000177658
0.000177682
0.000177705
0.000177729
0.000177752
0.000177774
0.000177797
0.00017782
0.000177843
0.000177865
0.000177888
0.000177911
0.000177933
0.000177956
0.000177978
0.000178001
0.000178024
0.000178046
0.000178069
0.000178091
0.000178114
0.000178136
0.000178159
0.000178181
0.000178203
0.000178225
0.000178247
0.00017827
0.000178292
0.000178314
0.000178336
0.000178358
0.00017838
0.000178403
0.000178425
0.000178447
0.000178469
0.000178492
0.000178514
0.000178537
0.00017856
0.000178582
0.000178605
0.000178628
0.000178651
0.000178674
0.000178697
0.00017872
0.000178743
0.000178766
0.000178789
0.000178812
0.000178835
0.000178857
0.00017888
0.000178903
0.000178926
0.000178949
0.000178972
0.000178995
0.000179017
0.00017904
0.000179063
0.000179086
0.000179108
0.000179131
0.000179153
0.000179175
0.000179197
0.000179218
0.00017924
0.000179261
0.000179282
0.000179303
0.000179324
0.000179345
0.000179366
0.000179386
0.000179407
0.000179428
0.000179448
0.000179469
0.000179489
0.00017951
0.00017953
0.000179551
0.000179571
0.000179591
0.000179611
0.000179631
0.000179651
0.00017967
0.000179689
0.000179709
0.000179728
0.000179747
0.000179766
0.000179785
0.000179804
0.000179823
0.000179842
0.000179862
0.000179881
0.000179901
0.00017992
0.00017994
0.00017996
0.000179979
0.000179999
0.000180019
0.000180039
0.000180059
0.000180079
0.000180099
0.000180119
0.000180139
0.000180159
0.000180179
0.0001802
0.00018022
0.000180241
0.000180261
0.000180282
0.000180302
0.000180323
0.000180344
0.000180365
0.000180386
0.000180407
0.000180428
0.000180449
0.000180471
0.000180492
0.000180513
0.000180535
0.000180557
0.000180578
0.0001806
0.000180621
0.000180643
0.000180664
0.000180686
0.000180707
0.000180728
0.000180749
0.00018077
0.000180792
0.000180813
0.000180834
0.000180855
0.000180877
0.000180898
0.00018092
0.000180941
0.000180963
0.000180985
0.000181007
0.000181029
0.000181052
0.000181074
0.000181097
0.000181119
0.000181141
0.000181164
0.000181186
0.000181208
0.000181231
0.000181253
0.000181275
0.000181296
0.000181318
0.00018134
0.000181362
0.000181384
0.000181406
0.000181428
0.00018145
0.000181472
0.000181495
0.000181517
0.00018154
0.000181562
0.000181585
0.000181607
0.00018163
0.000181652
0.000181675
0.000181697
0.000181719
0.000181741
0.000181762
0.000181783
0.000181805
0.000181826
0.000181846
0.000181867
0.000181887
0.000181908
0.000181928
0.000181948
0.000181968
0.000181989
0.000182009
0.000182029
0.00018205
0.00018207
0.00018209
0.00018211
0.000182131
0.00018215
0.00018217
0.00018219
0.000182209
0.000182227
0.000182246
0.000182264
0.000182281
0.000182298
0.000182314
0.00018233
0.000182346
0.000182361
0.000182376
0.00018239
0.000182404
0.000182418
0.000182431
0.000182444
0.000182456
0.000182468
0.00018248
0.000182491
0.000182502
0.000182512
0.000182522
0.000182531
0.000182539
0.000182547
0.000182554
0.000182561
0.000182567
0.000182573
0.000182578
0.000182583
0.000182587
0.000182591
0.000182594
0.000182596
0.000182598
0.000182599
0.0001826
0.000182601
0.000182601
0.0001826
0.0001826
0.000182599
0.000182598
0.000182597
0.000182596
0.000182594
0.000182592
0.000182589
0.000182585
0.000182581
0.000182576
0.000182571
0.000182564
0.000182556
0.000182547
0.000182537
0.000182525
0.000182512
0.000182496
0.000182478
0.000182457
0.000182434
0.000182408
0.000182379
0.000182346
0.00018231
0.000182271
0.000182228
0.00018218
0.000182128
0.000182072
0.000182011
0.000181944
0.000181873
0.000181797
0.000181717
0.000181633
0.000181545
0.000181453
0.000181359
0.000181261
0.00018116
0.000181055
0.000180947
0.000180836
0.000180722
0.000180605
0.000180485
0.000180361
0.000180235
0.000180105
0.000179971
0.000179832
0.000179689
0.000179539
0.000179381
0.000179213
0.000179031
0.000178834
0.000178619
0.000178381
0.00017812
0.00017783
0.00017751
0.000177156
0.000176764
0.000176332
0.000175858
0.000175337
0.000174768
0.00017415
0.000173478
0.000172751
0.000171963
0.000171105
0.000170162
0.000169113
0.00016793
0.000166576
0.000165014
0.000163208
0.000161115
0.000158675
0.000155801
0.000152354
0.000148039
0.00014238
0.000134621
0.000123513
0.000107027
8.31939e-05
4.67784e-05
-4.55272e-05
-3.96235e-05
5.81736e-06
4.21763e-05
4.71353e-05
6.33692e-05
6.73928e-05
7.1869e-05
7.48645e-05
7.69848e-05
7.85344e-05
7.96997e-05
8.05972e-05
8.13017e-05
8.18634e-05
8.23166e-05
8.2686e-05
8.29896e-05
8.32408e-05
8.34498e-05
8.36243e-05
8.37707e-05
8.38938e-05
8.39976e-05
8.40853e-05
8.41596e-05
8.42227e-05
8.42763e-05
8.43218e-05
8.43603e-05
8.43928e-05
8.442e-05
8.44424e-05
8.44607e-05
8.44751e-05
8.44861e-05
8.4494e-05
8.4499e-05
8.45015e-05
8.45016e-05
8.44994e-05
8.44953e-05
8.44894e-05
8.44819e-05
8.4473e-05
8.44628e-05
8.44515e-05
8.44393e-05
8.44262e-05
8.44123e-05
8.43977e-05
8.43825e-05
8.43665e-05
8.43499e-05
8.43326e-05
8.43145e-05
8.42956e-05
8.42759e-05
8.42554e-05
8.4234e-05
8.42118e-05
8.41888e-05
8.41651e-05
8.41407e-05
8.41158e-05
8.40904e-05
8.40647e-05
8.40386e-05
8.40124e-05
8.3986e-05
8.39594e-05
8.39326e-05
8.39055e-05
8.38782e-05
8.38505e-05
8.38223e-05
8.37936e-05
8.37643e-05
8.37344e-05
8.37038e-05
8.36725e-05
8.36406e-05
8.36081e-05
8.35751e-05
8.35416e-05
8.35078e-05
8.34737e-05
8.34395e-05
8.34052e-05
8.33708e-05
8.33365e-05
8.33021e-05
8.32677e-05
8.32331e-05
8.31984e-05
8.31633e-05
8.3128e-05
8.30922e-05
8.30558e-05
8.30189e-05
8.29815e-05
8.29434e-05
8.29047e-05
8.28656e-05
8.28259e-05
8.27858e-05
8.27454e-05
8.27048e-05
8.2664e-05
8.26231e-05
8.25822e-05
8.25412e-05
8.25e-05
8.24588e-05
8.24174e-05
8.23758e-05
8.23338e-05
8.22914e-05
8.22485e-05
8.22051e-05
8.21611e-05
8.21165e-05
8.20713e-05
8.20255e-05
8.19792e-05
8.19324e-05
8.18852e-05
8.18377e-05
8.179e-05
8.1742e-05
8.16939e-05
8.16457e-05
8.15974e-05
8.1549e-05
8.15005e-05
8.14518e-05
8.14028e-05
8.13536e-05
8.13041e-05
8.12541e-05
8.12036e-05
8.11526e-05
8.11011e-05
8.1049e-05
8.09963e-05
8.09432e-05
8.08895e-05
8.08354e-05
8.0781e-05
8.07262e-05
8.06712e-05
8.0616e-05
8.05607e-05
8.05053e-05
8.04498e-05
8.03941e-05
8.03384e-05
8.02824e-05
8.02263e-05
8.01699e-05
8.01131e-05
8.0056e-05
7.99984e-05
7.99403e-05
7.98818e-05
7.98228e-05
7.97634e-05
7.97035e-05
7.96433e-05
7.95828e-05
7.9522e-05
7.9461e-05
7.93998e-05
7.93384e-05
7.9277e-05
7.92155e-05
7.9154e-05
7.90924e-05
7.90308e-05
7.89691e-05
7.89073e-05
7.88454e-05
7.87833e-05
7.87209e-05
7.86582e-05
7.85952e-05
7.85319e-05
7.84682e-05
7.8404e-05
7.83395e-05
7.82746e-05
7.82093e-05
7.81437e-05
7.80777e-05
7.80115e-05
7.7945e-05
7.78782e-05
7.78112e-05
7.77441e-05
7.76769e-05
7.76095e-05
7.75421e-05
7.74747e-05
7.74071e-05
7.73395e-05
7.72718e-05
7.7204e-05
7.7136e-05
7.70678e-05
7.69993e-05
7.69305e-05
7.68613e-05
7.67918e-05
7.67219e-05
7.66515e-05
7.65807e-05
7.65095e-05
7.64378e-05
7.63657e-05
7.62933e-05
7.62205e-05
7.61474e-05
7.60742e-05
7.60007e-05
7.59272e-05
7.58536e-05
7.578e-05
7.57064e-05
7.56328e-05
7.55592e-05
7.54856e-05
7.54119e-05
7.5338e-05
7.5264e-05
7.51897e-05
7.51152e-05
7.50402e-05
7.49649e-05
7.4889e-05
7.48127e-05
7.47357e-05
7.46582e-05
7.45802e-05
7.45016e-05
7.44226e-05
7.43433e-05
7.42637e-05
7.41841e-05
7.41044e-05
7.40248e-05
7.39453e-05
7.38659e-05
7.37867e-05
7.37075e-05
7.36284e-05
7.35491e-05
7.34697e-05
7.33899e-05
7.33098e-05
7.32293e-05
7.31483e-05
7.30668e-05
7.29847e-05
7.2902e-05
7.28187e-05
7.27349e-05
7.26506e-05
7.2566e-05
7.24811e-05
7.23962e-05
7.23112e-05
7.22264e-05
7.21419e-05
7.20577e-05
7.1974e-05
7.18906e-05
7.18077e-05
7.17251e-05
7.16428e-05
7.15606e-05
7.14786e-05
7.13966e-05
7.13146e-05
7.12324e-05
7.11502e-05
7.10677e-05
7.0985e-05
7.09022e-05
7.08191e-05
7.07359e-05
7.06526e-05
7.05694e-05
7.04862e-05
7.04033e-05
7.03208e-05
7.02386e-05
7.0157e-05
7.00759e-05
6.99953e-05
6.99152e-05
6.98356e-05
6.97563e-05
6.96774e-05
6.95988e-05
6.95203e-05
6.9442e-05
6.93637e-05
6.92854e-05
6.9207e-05
6.91286e-05
6.90501e-05
6.89716e-05
6.8893e-05
6.88145e-05
6.87361e-05
6.86579e-05
6.858e-05
6.85025e-05
6.84255e-05
6.8349e-05
6.82732e-05
6.8198e-05
6.81234e-05
6.80495e-05
6.79761e-05
6.79032e-05
6.78308e-05
6.77587e-05
6.76868e-05
6.7615e-05
6.75433e-05
6.74715e-05
6.73998e-05
6.7328e-05
6.72562e-05
6.71845e-05
6.71128e-05
6.70413e-05
6.69701e-05
6.68992e-05
6.68288e-05
6.67589e-05
6.66897e-05
6.6621e-05
6.65531e-05
6.64859e-05
6.64193e-05
6.63535e-05
6.62884e-05
6.62238e-05
6.61598e-05
6.60961e-05
6.60328e-05
6.59695e-05
6.59064e-05
6.58434e-05
6.57803e-05
6.57173e-05
6.56543e-05
6.55915e-05
6.55289e-05
6.54666e-05
6.54046e-05
6.53431e-05
6.52819e-05
6.52213e-05
6.5161e-05
6.51013e-05
6.50421e-05
6.49835e-05
6.49255e-05
6.48682e-05
6.48114e-05
6.47553e-05
6.46997e-05
6.46447e-05
6.459e-05
6.45358e-05
6.44819e-05
6.44283e-05
6.4375e-05
6.4322e-05
6.42692e-05
6.42168e-05
6.41646e-05
6.41127e-05
6.40611e-05
6.40097e-05
6.39586e-05
6.39078e-05
6.38572e-05
6.38069e-05
6.37569e-05
6.37073e-05
6.36581e-05
6.36094e-05
6.35613e-05
6.35137e-05
6.34666e-05
6.34201e-05
6.33739e-05
6.33281e-05
6.32827e-05
6.32376e-05
6.31929e-05
6.31484e-05
6.31041e-05
6.30602e-05
6.30165e-05
6.29731e-05
6.293e-05
6.28871e-05
6.28445e-05
6.28021e-05
6.276e-05
6.27182e-05
6.26768e-05
6.26359e-05
6.25955e-05
6.25557e-05
6.25164e-05
6.24778e-05
6.24398e-05
6.24023e-05
6.23653e-05
6.23288e-05
6.22927e-05
6.22569e-05
6.22215e-05
6.21865e-05
6.21518e-05
6.21174e-05
6.20833e-05
6.20496e-05
6.20161e-05
6.19829e-05
6.195e-05
6.19173e-05
6.1885e-05
6.1853e-05
6.18213e-05
6.17901e-05
6.17594e-05
6.17291e-05
6.16993e-05
6.167e-05
6.16412e-05
6.16128e-05
6.15849e-05
6.15573e-05
6.15301e-05
6.15031e-05
6.14764e-05