/*--------------------------------*- C++ -*----------------------------------*\
| =========                 |                                                 |
| \\      /  F ield         | OpenFOAM: The Open Source CFD Toolbox           |
|  \\    /   O peration     | Version:  2512                                  |
|   \\  /    A nd           | Website:  www.openfoam.com                      |
|    \\/     M anipulation  |                                                 |
\*---------------------------------------------------------------------------*/
FoamFile
{
    version     2.0;
    format      ascii;
    arch        "LSB;label=32;scalar=64";
    class       volVectorField;
    location    "0.1";
    object      B;
}
// * * * * * * * * * * * * * * * * * * * * * * * * * * * * * * * * * * * * * //

dimensions      [1 0 -2 0 0 -1 0];

internalField   nonuniform List<vector> 
8333
(
(-4.78886e-06 20.0001 5.73224e-20)
(-4.78921e-06 20.0001 8.06693e-21)
(-4.78855e-06 20.0001 9.86974e-20)
(-4.78669e-06 20.0001 1.1983e-19)
(-4.7843e-06 20.0001 1.19427e-19)
(-4.78186e-06 20.0001 6.98713e-20)
(-4.77941e-06 20.0001 3.54469e-20)
(-4.77693e-06 20.0001 2.23553e-20)
(-4.77447e-06 20.0001 7.59391e-20)
(-4.77207e-06 20.0001 1.70115e-20)
(-4.76973e-06 20.0001 1.03932e-19)
(-4.76744e-06 20.0001 1.23215e-19)
(-4.76519e-06 20.0001 1.2371e-19)
(-4.76298e-06 20.0001 7.38041e-20)
(-4.7608e-06 20.0001 3.46813e-20)
(-4.75864e-06 20.0001 2.80411e-20)
(-4.75651e-06 20.0001 6.59481e-20)
(-4.7544e-06 20.0001 2.77741e-20)
(-4.75231e-06 20.0001 8.53771e-20)
(-4.75023e-06 20.0001 9.6943e-20)
(-4.74816e-06 20.0001 8.81367e-20)
(-4.74611e-06 20.0001 8.97831e-20)
(-4.74407e-06 20.0001 2.50505e-20)
(-4.74203e-06 20.0001 6.39698e-20)
(-4.74001e-06 20.0001 8.52659e-20)
(-4.73799e-06 20.0001 8.16334e-20)
(-4.73599e-06 20.0001 5.18202e-20)
(-4.73399e-06 20.0001 6.30972e-20)
(-4.732e-06 20.0001 7.09169e-20)
(-4.73001e-06 20.0001 1.03122e-19)
(-4.72804e-06 20.0001 5.65202e-20)
(-4.72607e-06 20.0001 9.78877e-20)
(-4.7241e-06 20.0001 1.12457e-19)
(-4.72214e-06 20.0001 1.01375e-19)
(-4.72019e-06 20.0001 6.6918e-20)
(-4.71824e-06 20.0001 7.50987e-20)
(-4.7163e-06 20.0001 7.90985e-20)
(-4.71436e-06 20.0001 1.08702e-19)
(-4.71242e-06 20.0001 5.8131e-20)
(-4.71049e-06 20.0001 1.00821e-19)
(-4.70857e-06 20.0001 1.05704e-19)
(-4.70664e-06 20.0001 1.01926e-19)
(-4.70472e-06 20.0001 5.26344e-20)
(-4.70281e-06 20.0001 2.73099e-20)
(-4.70089e-06 20.0001 2.77768e-20)
(-4.69898e-06 20.0001 6.46074e-20)
(-4.69708e-06 20.0001 9.0965e-20)
(-4.69517e-06 20.0001 1.18051e-19)
(-4.69327e-06 20.0001 1.14013e-19)
(-4.69136e-06 20.0001 1.02748e-19)
(-4.68946e-06 20.0001 4.92077e-20)
(-4.68757e-06 20.0001 2.34119e-20)
(-4.68567e-06 20.0001 2.52687e-20)
(-4.68378e-06 20.0001 6.20878e-20)
(-4.68189e-06 20.0001 8.95786e-20)
(-4.68e-06 20.0001 1.17905e-19)
(-4.67811e-06 20.0001 1.14902e-19)
(-4.67623e-06 20.0001 1.02628e-19)
(-4.67435e-06 20.0001 4.96866e-20)
(-4.67247e-06 20.0001 2.44289e-20)
(-4.67059e-06 20.0001 3.04947e-20)
(-4.66872e-06 20.0001 5.91353e-20)
(-4.66685e-06 20.0001 1.06189e-19)
(-4.66498e-06 20.0001 1.02891e-19)
(-4.66312e-06 20.0001 1.47988e-19)
(-4.66126e-06 20.0001 1.16194e-19)
(-4.65941e-06 20.0001 9.59994e-20)
(-4.65756e-06 20.0001 6.02802e-20)
(-4.65572e-06 20.0001 6.27863e-20)
(-4.65388e-06 20.0001 6.87909e-20)
(-4.65205e-06 20.0001 6.45689e-20)
(-4.65023e-06 20.0001 5.19401e-20)
(-4.64841e-06 20.0001 1.03208e-19)
(-4.6466e-06 20.0001 8.74941e-20)
(-4.6448e-06 20.0001 8.16955e-20)
(-4.64301e-06 20.0001 5.35355e-20)
(-4.64123e-06 20.0001 6.04442e-20)
(-4.63946e-06 20.0001 6.74336e-20)
(-4.63771e-06 20.0001 6.36743e-20)
(-4.63596e-06 20.0001 5.38117e-20)
(-4.63423e-06 20.0001 1.05431e-19)
(-4.63251e-06 20.0001 8.68862e-20)
(-4.63082e-06 20.0001 7.96517e-20)
(-4.62913e-06 20.0001 5.42032e-20)
(-4.62747e-06 20.0001 5.85586e-20)
(-4.62582e-06 20.0001 7.38375e-20)
(-4.6242e-06 20.0001 4.9675e-20)
(-4.6226e-06 20.0001 7.20807e-20)
(-4.62102e-06 20.0001 6.22474e-20)
(-4.61946e-06 20.0001 9.15077e-20)
(-4.61794e-06 20.0001 7.89565e-21)
(-4.61644e-06 20.0001 5.24629e-20)
(-4.61498e-06 20.0001 8.14844e-20)
(-4.61355e-06 20.0001 1.03803e-19)
(-4.61215e-06 20.0001 7.52293e-20)
(-4.6108e-06 20.0001 8.76047e-20)
(-4.60948e-06 20.0001 7.12668e-20)
(-4.6082e-06 20.0001 9.6887e-20)
(-4.60697e-06 20.0001 1.03745e-20)
(-4.60579e-06 20.0001 5.5808e-20)
(-4.60466e-06 20.0001 8.04577e-20)
(-4.60359e-06 20.0001 1.10883e-19)
(-4.60257e-06 20.0001 7.39186e-20)
(-4.60161e-06 20.0001 9.72434e-20)
(-4.60071e-06 20.0001 1.30355e-19)
(-4.59988e-06 20.0001 1.42981e-19)
(-4.59912e-06 20.0001 7.38862e-20)
(-4.59843e-06 20.0001 5.49433e-20)
(-4.59781e-06 20.0001 8.87195e-20)
(-4.59728e-06 20.0001 6.61333e-20)
(-4.59682e-06 20.0001 1.04201e-19)
(-4.59645e-06 20.0001 1.49859e-19)
(-4.59617e-06 20.0001 1.73812e-19)
(-4.59597e-06 20.0001 1.86974e-19)
(-4.59587e-06 20.0001 7.75821e-20)
(-4.59585e-06 20.0001 9.43609e-20)
(-4.59592e-06 20.0001 1.13212e-19)
(-4.59609e-06 20.0001 1.21678e-19)
(-4.59634e-06 20.0001 8.64617e-20)
(-4.59667e-06 20.0001 1.55286e-19)
(-4.59709e-06 20.0001 1.22939e-19)
(-4.59758e-06 20.0001 1.04451e-19)
(-4.59813e-06 20.0001 4.2253e-20)
(-4.59873e-06 20.0001 8.35833e-20)
(-4.59938e-06 20.0001 1.24626e-19)
(-4.60004e-06 20.0001 1.16186e-19)
(-4.60069e-06 20.0001 1.0908e-19)
(-4.60131e-06 20.0001 1.41543e-19)
(-4.60186e-06 20.0001 9.46062e-20)
(-4.6023e-06 20.0001 1.40799e-19)
(-4.60257e-06 20.0001 5.34574e-20)
(-4.60263e-06 20.0001 8.53928e-20)
(-4.60239e-06 20.0001 1.19217e-19)
(-4.60178e-06 20.0001 1.10447e-19)
(-4.60069e-06 20.0001 1.02055e-19)
(-4.59902e-06 20.0001 1.3518e-19)
(-4.59662e-06 20.0001 9.13293e-20)
(-4.59336e-06 20.0001 1.39904e-19)
(-4.58906e-06 20.0001 5.4475e-20)
(-4.58353e-06 20.0001 8.34483e-20)
(-4.57655e-06 20.0001 1.16466e-19)
(-4.56787e-06 20.0001 9.81554e-20)
(-4.55724e-06 20.0001 1.08292e-19)
(-4.54429e-06 20.0001 1.06097e-19)
(-4.52871e-06 20.0001 1.21507e-19)
(-4.50994e-06 20.0001 1.28693e-19)
(-4.48719e-06 20.0001 7.42434e-20)
(-4.45956e-06 20.0001 7.70304e-20)
(-1.43179e-05 20.0001 -5.18147e-20)
(-1.43149e-05 20.0001 -9.05035e-20)
(-1.43106e-05 20.0001 4.04872e-20)
(-1.4305e-05 20.0001 3.71927e-20)
(-1.42989e-05 20.0001 4.58855e-20)
(-1.42928e-05 20.0001 -5.05698e-20)
(-1.42867e-05 20.0001 -9.64754e-20)
(-1.42806e-05 20.0001 -8.00271e-20)
(-1.42746e-05 20.0001 -4.18929e-20)
(-1.42686e-05 20.0001 -8.93315e-20)
(-1.42627e-05 20.0001 3.80942e-20)
(-1.42568e-05 20.0001 3.33771e-20)
(-1.42509e-05 20.0001 4.49405e-20)
(-1.42451e-05 20.0001 -5.09184e-20)
(-1.42393e-05 20.0001 -1.01097e-19)
(-1.42336e-05 20.0001 -7.69696e-20)
(-1.42278e-05 20.0001 -5.37133e-20)
(-1.42221e-05 20.0001 -8.18374e-20)
(-1.42164e-05 20.0001 2.6921e-20)
(-1.42107e-05 20.0001 7.37456e-21)
(-1.4205e-05 20.0001 1.64732e-20)
(-1.41993e-05 20.0001 -2.54247e-20)
(-1.41936e-05 20.0001 -8.99092e-20)
(-1.41879e-05 20.0001 -8.58084e-21)
(-1.41823e-05 20.0001 9.96081e-22)
(-1.41766e-05 20.0001 -1.21206e-20)
(-1.41709e-05 20.0001 -5.7779e-20)
(-1.41653e-05 20.0001 -4.82274e-20)
(-1.41596e-05 20.0001 3.36157e-21)
(-1.4154e-05 20.0001 1.53382e-20)
(-1.41484e-05 20.0001 -2.82489e-20)
(-1.41427e-05 20.0001 4.57673e-20)
(-1.41371e-05 20.0001 3.88086e-20)
(-1.41315e-05 20.0001 1.26334e-20)
(-1.41258e-05 20.0001 -4.32785e-20)
(-1.41202e-05 20.0001 -3.78406e-20)
(-1.41146e-05 20.0001 9.05295e-21)
(-1.4109e-05 20.0001 1.83414e-20)
(-1.41033e-05 20.0001 -3.16999e-20)
(-1.40977e-05 20.0001 4.89409e-20)
(-1.40921e-05 20.0001 2.18629e-20)
(-1.40865e-05 20.0001 1.01101e-20)
(-1.40809e-05 20.0001 -7.51658e-20)
(-1.40753e-05 20.0001 -1.2124e-19)
(-1.40696e-05 20.0001 -1.27513e-19)
(-1.4064e-05 20.0001 -5.41874e-20)
(-1.40584e-05 20.0001 -3.81053e-20)
(-1.40528e-05 20.0001 5.45907e-20)
(-1.40472e-05 20.0001 2.00806e-20)
(-1.40416e-05 20.0001 6.26915e-22)
(-1.4036e-05 20.0001 -8.64428e-20)
(-1.40303e-05 20.0001 -1.31619e-19)
(-1.40247e-05 20.0001 -1.33515e-19)
(-1.40191e-05 20.0001 -5.82939e-20)
(-1.40135e-05 20.0001 -4.04394e-20)
(-1.40079e-05 20.0001 5.32857e-20)
(-1.40023e-05 20.0001 2.03715e-20)
(-1.39966e-05 20.0001 1.36935e-23)
(-1.3991e-05 20.0001 -8.63344e-20)
(-1.39854e-05 20.0001 -1.30165e-19)
(-1.39798e-05 20.0001 -1.24392e-19)
(-1.39742e-05 20.0001 -6.52461e-20)
(-1.39685e-05 20.0001 -8.44891e-21)
(-1.39629e-05 20.0001 2.58872e-20)
(-1.39573e-05 20.0001 8.38539e-20)
(-1.39517e-05 20.0001 3.83524e-20)
(-1.39461e-05 20.0001 1.19227e-20)
(-1.39405e-05 20.0001 -3.72957e-20)
(-1.39349e-05 20.0001 -4.73765e-20)
(-1.39293e-05 20.0001 -2.08995e-20)
(-1.39237e-05 20.0001 -3.04344e-20)
(-1.39181e-05 20.0001 -2.46951e-20)
(-1.39125e-05 20.0001 3.04534e-20)
(-1.39069e-05 20.0001 4.86194e-22)
(-1.39013e-05 20.0001 -1.01391e-20)
(-1.38957e-05 20.0001 -4.88033e-20)
(-1.38902e-05 20.0001 -5.23027e-20)
(-1.38846e-05 20.0001 -2.37815e-20)
(-1.38791e-05 20.0001 -3.20616e-20)
(-1.38735e-05 20.0001 -2.36657e-20)
(-1.3868e-05 20.0001 3.20622e-20)
(-1.38625e-05 20.0001 -3.58784e-22)
(-1.3857e-05 20.0001 -1.24738e-20)
(-1.38515e-05 20.0001 -4.80928e-20)
(-1.3846e-05 20.0001 -5.55238e-20)
(-1.38406e-05 20.0001 -1.42385e-20)
(-1.38351e-05 20.0001 -5.41083e-20)
(-1.38297e-05 20.0001 -5.249e-21)
(-1.38243e-05 20.0001 -2.30671e-20)
(-1.3819e-05 20.0001 -4.28957e-20)
(-1.38136e-05 20.0001 -1.48844e-19)
(-1.38083e-05 20.0001 -9.11561e-20)
(-1.3803e-05 20.0001 -3.71434e-20)
(-1.37977e-05 20.0001 3.10576e-20)
(-1.37925e-05 20.0001 -1.12042e-20)
(-1.37873e-05 20.0001 2.2993e-20)
(-1.37822e-05 20.0001 -5.7511e-21)
(-1.3777e-05 20.0001 -3.3504e-20)
(-1.3772e-05 20.0001 -1.4362e-19)
(-1.37669e-05 20.0001 -8.65689e-20)
(-1.3762e-05 20.0001 -3.44484e-20)
(-1.3757e-05 20.0001 3.55985e-20)
(-1.37522e-05 20.0001 3.89492e-21)
(-1.37474e-05 20.0001 2.16239e-20)
(-1.37426e-05 20.0001 7.44054e-20)
(-1.37379e-05 20.0001 5.81938e-20)
(-1.37333e-05 20.0001 -4.93082e-20)
(-1.37287e-05 20.0001 -4.36421e-20)
(-1.37242e-05 20.0001 -1.90395e-20)
(-1.37198e-05 20.0001 -3.86401e-20)
(-1.37155e-05 20.0001 2.25561e-20)
(-1.37112e-05 20.0001 9.23833e-20)
(-1.37071e-05 20.0001 1.4852e-19)
(-1.3703e-05 20.0001 1.25525e-19)
(-1.3699e-05 20.0001 -1.81963e-20)
(-1.36951e-05 20.0001 -8.12992e-22)
(-1.36913e-05 20.0001 1.10824e-20)
(-1.36875e-05 20.0001 8.02805e-20)
(-1.36839e-05 20.0001 -1.82073e-20)
(-1.36803e-05 20.0001 6.79352e-20)
(-1.36768e-05 20.0001 2.68634e-20)
(-1.36734e-05 20.0001 -1.36745e-20)
(-1.36701e-05 20.0001 -1.4963e-19)
(-1.36668e-05 20.0001 -8.78028e-20)
(-1.36635e-05 20.0001 -1.62462e-20)
(-1.36602e-05 20.0001 -2.74474e-20)
(-1.3657e-05 20.0001 -2.49564e-20)
(-1.36537e-05 20.0001 1.74029e-20)
(-1.36503e-05 20.0001 -3.04828e-20)
(-1.36469e-05 20.0001 3.86236e-20)
(-1.36432e-05 20.0001 -9.06896e-20)
(-1.36394e-05 20.0001 -4.53466e-20)
(-1.36353e-05 20.0001 3.39188e-21)
(-1.36308e-05 20.0001 -2.20495e-20)
(-1.36258e-05 20.0001 -2.69481e-20)
(-1.36203e-05 20.0001 1.26244e-20)
(-1.36141e-05 20.0001 -3.41908e-20)
(-1.3607e-05 20.0001 3.7939e-20)
(-1.3599e-05 20.0001 -8.86466e-20)
(-1.35898e-05 20.0001 -4.55669e-20)
(-1.35793e-05 20.0001 2.04932e-21)
(-1.35672e-05 20.0001 -3.04421e-20)
(-1.35531e-05 20.0001 -2.48118e-20)
(-1.35373e-05 20.0001 -1.02642e-20)
(-1.35187e-05 20.0001 -1.4946e-20)
(-1.34985e-05 20.0001 -1.40595e-20)
(-1.34742e-05 20.0001 -9.32696e-20)
(-1.34475e-05 20.0001 -9.08984e-20)
(-1.34095e-05 20.0001 -6.79844e-20)
(-2.38471e-05 20.0001 -1.11469e-19)
(-2.38407e-05 20.0001 -2.28584e-19)
(-2.38327e-05 20.0001 -1.38321e-20)
(-2.38232e-05 20.0001 -1.14986e-19)
(-2.38134e-05 20.0001 -5.16125e-20)
(-2.38037e-05 20.0001 -2.41639e-19)
(-2.3794e-05 20.0001 -2.41171e-19)
(-2.37843e-05 20.0001 -2.23747e-19)
(-2.37746e-05 20.0001 -1.11183e-19)
(-2.37651e-05 20.0001 -2.35217e-19)
(-2.37555e-05 20.0001 -2.28375e-20)
(-2.37461e-05 20.0001 -1.25008e-19)
(-2.37366e-05 20.0001 -5.77217e-20)
(-2.37272e-05 20.0001 -2.47126e-19)
(-2.37178e-05 20.0001 -2.49344e-19)
(-2.37085e-05 20.0001 -2.24538e-19)
(-2.36991e-05 20.0001 -1.23923e-19)
(-2.36898e-05 20.0001 -2.27703e-19)
(-2.36804e-05 20.0001 -5.08576e-20)
(-2.36711e-05 20.0001 -1.0317e-19)
(-2.36618e-05 20.0001 -1.52483e-19)
(-2.36524e-05 20.0001 -1.31079e-19)
(-2.36431e-05 20.0001 -2.75951e-19)
(-2.36338e-05 20.0001 -8.52281e-20)
(-2.36245e-05 20.0001 -1.62518e-19)
(-2.36152e-05 20.0001 -1.08784e-19)
(-2.36059e-05 20.0001 -2.54708e-19)
(-2.35966e-05 20.0001 -1.9719e-19)
(-2.35873e-05 20.0001 -1.40464e-19)
(-2.3578e-05 20.0001 -4.53496e-20)
(-2.35687e-05 20.0001 -1.73439e-19)
(-2.35593e-05 20.0001 -4.78776e-21)
(-2.355e-05 20.0001 -1.11763e-19)
(-2.35407e-05 20.0001 -7.87266e-20)
(-2.35314e-05 20.0001 -2.39165e-19)
(-2.35221e-05 20.0001 -1.88311e-19)
(-2.35128e-05 20.0001 -1.37105e-19)
(-2.35035e-05 20.0001 -4.52065e-20)
(-2.34942e-05 20.0001 -1.79985e-19)
(-2.34849e-05 20.0001 -6.72692e-21)
(-2.34756e-05 20.0001 -1.31557e-19)
(-2.34663e-05 20.0001 -9.11465e-20)
(-2.3457e-05 20.0001 -2.74857e-19)
(-2.34477e-05 20.0001 -2.66701e-19)
(-2.34384e-05 20.0001 -2.77976e-19)
(-2.34291e-05 20.0001 -1.35297e-19)
(-2.34197e-05 20.0001 -2.07397e-19)
(-2.34104e-05 20.0001 -1.0163e-20)
(-2.34011e-05 20.0001 -1.39485e-19)
(-2.33918e-05 20.0001 -1.05911e-19)
(-2.33824e-05 20.0001 -2.89791e-19)
(-2.33731e-05 20.0001 -2.78849e-19)
(-2.33638e-05 20.0001 -2.85116e-19)
(-2.33544e-05 20.0001 -1.39803e-19)
(-2.33451e-05 20.0001 -2.09684e-19)
(-2.33357e-05 20.0001 -1.28349e-20)
(-2.33264e-05 20.0001 -1.41005e-19)
(-2.3317e-05 20.0001 -1.06525e-19)
(-2.33077e-05 20.0001 -2.90162e-19)
(-2.32983e-05 20.0001 -2.78106e-19)
(-2.32889e-05 20.0001 -2.75929e-19)
(-2.32796e-05 20.0001 -1.43735e-19)
(-2.32702e-05 20.0001 -1.79919e-19)
(-2.32608e-05 20.0001 -2.90542e-20)
(-2.32515e-05 20.0001 -8.46521e-20)
(-2.32421e-05 20.0001 -5.69236e-20)
(-2.32327e-05 20.0001 -1.92963e-19)
(-2.32234e-05 20.0001 -1.76177e-19)
(-2.3214e-05 20.0001 -1.88881e-19)
(-2.32046e-05 20.0001 -8.99818e-20)
(-2.31953e-05 20.0001 -1.84618e-19)
(-2.31859e-05 20.0001 -6.63365e-20)
(-2.31765e-05 20.0001 -1.31308e-19)
(-2.31672e-05 20.0001 -9.35518e-20)
(-2.31578e-05 20.0001 -2.15281e-19)
(-2.31484e-05 20.0001 -1.88706e-19)
(-2.31391e-05 20.0001 -1.94704e-19)
(-2.31297e-05 20.0001 -9.33043e-20)
(-2.31204e-05 20.0001 -1.87068e-19)
(-2.31111e-05 20.0001 -6.69257e-20)
(-2.31018e-05 20.0001 -1.31284e-19)
(-2.30924e-05 20.0001 -9.42979e-20)
(-2.30831e-05 20.0001 -2.19634e-19)
(-2.30738e-05 20.0001 -1.89498e-19)
(-2.30646e-05 20.0001 -1.97654e-19)
(-2.30553e-05 20.0001 -8.72426e-20)
(-2.30461e-05 20.0001 -2.05744e-19)
(-2.30368e-05 20.0001 -5.95471e-20)
(-2.30276e-05 20.0001 -1.75944e-19)
(-2.30184e-05 20.0001 -1.44837e-19)
(-2.30092e-05 20.0001 -3.48487e-19)
(-2.30001e-05 20.0001 -2.54957e-19)
(-2.2991e-05 20.0001 -1.94348e-19)
(-2.29819e-05 20.0001 -4.68001e-20)
(-2.29728e-05 20.0001 -1.62627e-19)
(-2.29638e-05 20.0001 -2.95393e-20)
(-2.29548e-05 20.0001 -1.55518e-19)
(-2.29459e-05 20.0001 -1.32838e-19)
(-2.29369e-05 20.0001 -3.41507e-19)
(-2.29281e-05 20.0001 -2.49424e-19)
(-2.29192e-05 20.0001 -1.88953e-19)
(-2.29105e-05 20.0001 -4.14536e-20)
(-2.29017e-05 20.0001 -1.42821e-19)
(-2.2893e-05 20.0001 -2.34594e-20)
(-2.28844e-05 20.0001 -8.781e-20)
(-2.28759e-05 20.0001 -3.91406e-20)
(-2.28674e-05 20.0001 -2.47168e-19)
(-2.2859e-05 20.0001 -1.92108e-19)
(-2.28506e-05 20.0001 -1.60674e-19)
(-2.28423e-05 20.0001 -9.5577e-20)
(-2.28341e-05 20.0001 -1.37224e-19)
(-2.2826e-05 20.0001 3.87395e-20)
(-2.28179e-05 20.0001 -1.13881e-20)
(-2.281e-05 20.0001 3.12374e-20)
(-2.28021e-05 20.0001 -2.03903e-19)
(-2.27943e-05 20.0001 -1.4907e-19)
(-2.27866e-05 20.0001 -1.34918e-19)
(-2.27789e-05 20.0001 9.42857e-21)
(-2.27714e-05 20.0001 -1.56569e-19)
(-2.27639e-05 20.0001 3.71296e-21)
(-2.27565e-05 20.0001 -1.34695e-19)
(-2.27492e-05 20.0001 -1.14791e-19)
(-2.27419e-05 20.0001 -3.52458e-19)
(-2.27347e-05 20.0001 -2.63564e-19)
(-2.27275e-05 20.0001 -1.84897e-19)
(-2.27204e-05 20.0001 -1.06786e-19)
(-2.27132e-05 20.0001 -1.97175e-19)
(-2.2706e-05 20.0001 -5.08722e-20)
(-2.26987e-05 20.0001 -1.96045e-19)
(-2.26913e-05 20.0001 -8.40283e-20)
(-2.26838e-05 20.0001 -2.89388e-19)
(-2.26761e-05 20.0001 -2.08923e-19)
(-2.2668e-05 20.0001 -1.52687e-19)
(-2.26597e-05 20.0001 -9.35775e-20)
(-2.26509e-05 20.0001 -1.93992e-19)
(-2.26415e-05 20.0001 -5.26365e-20)
(-2.26315e-05 20.0001 -1.98443e-19)
(-2.26207e-05 20.0001 -8.33584e-20)
(-2.2609e-05 20.0001 -2.87586e-19)
(-2.25962e-05 20.0001 -2.08092e-19)
(-2.2582e-05 20.0001 -1.52966e-19)
(-2.25666e-05 20.0001 -1.00631e-19)
(-2.25492e-05 20.0001 -1.88393e-19)
(-2.25306e-05 20.0001 -8.7976e-20)
(-2.25091e-05 20.0001 -1.43876e-19)
(-2.2487e-05 20.0001 -2.04437e-19)
(-2.24611e-05 20.0001 -2.11357e-19)
(-2.24333e-05 20.0001 -3.03513e-19)
(-2.23939e-05 20.0001 -1.48155e-19)
(-2.23372e-05 20.0001 -2.19847e-19)
(-3.33764e-05 20.0001 -1.85815e-19)
(-3.33667e-05 20.0001 -3.40508e-19)
(-3.33548e-05 20.0001 -1.07501e-19)
(-3.33414e-05 20.0001 -2.62403e-19)
(-3.33278e-05 20.0001 -1.73789e-19)
(-3.33145e-05 20.0001 -3.95087e-19)
(-3.33012e-05 20.0001 -3.70718e-19)
(-3.32879e-05 20.0001 -3.62193e-19)
(-3.32747e-05 20.0001 -1.95838e-19)
(-3.32615e-05 20.0001 -3.55588e-19)
(-3.32484e-05 20.0001 -1.22826e-19)
(-3.32354e-05 20.0001 -2.77814e-19)
(-3.32223e-05 20.0001 -1.84397e-19)
(-3.32093e-05 20.0001 -4.05574e-19)
(-3.31963e-05 20.0001 -3.80932e-19)
(-3.31834e-05 20.0001 -3.65928e-19)
(-3.31704e-05 20.0001 -2.08949e-19)
(-3.31574e-05 20.0001 -3.48909e-19)
(-3.31445e-05 20.0001 -1.64854e-19)
(-3.31315e-05 20.0001 -2.22321e-19)
(-3.31186e-05 20.0001 -3.2021e-19)
(-3.31056e-05 20.0001 -2.42328e-19)
(-3.30926e-05 20.0001 -4.23197e-19)
(-3.30797e-05 20.0001 -1.9368e-19)
(-3.30667e-05 20.0001 -3.19362e-19)
(-3.30538e-05 20.0001 -2.24326e-19)
(-3.30408e-05 20.0001 -4.08444e-19)
(-3.30279e-05 20.0001 -3.33805e-19)
(-3.30149e-05 20.0001 -2.9013e-19)
(-3.30019e-05 20.0001 -1.32526e-19)
(-3.2989e-05 20.0001 -2.99617e-19)
(-3.2976e-05 20.0001 -9.95217e-20)
(-3.2963e-05 20.0001 -2.61998e-19)
(-3.29501e-05 20.0001 -1.92519e-19)
(-3.29371e-05 20.0001 -3.92364e-19)
(-3.29241e-05 20.0001 -3.27409e-19)
(-3.29111e-05 20.0001 -2.89592e-19)
(-3.28981e-05 20.0001 -1.35868e-19)
(-3.28851e-05 20.0001 -3.09179e-19)
(-3.28722e-05 20.0001 -1.07202e-19)
(-3.28592e-05 20.0001 -2.82873e-19)
(-3.28462e-05 20.0001 -2.1228e-19)
(-3.28332e-05 20.0001 -4.33942e-19)
(-3.28201e-05 20.0001 -4.00847e-19)
(-3.28071e-05 20.0001 -4.10766e-19)
(-3.27941e-05 20.0001 -2.23791e-19)
(-3.27811e-05 20.0001 -3.47232e-19)
(-3.27681e-05 20.0001 -1.205e-19)
(-3.2755e-05 20.0001 -2.9477e-19)
(-3.2742e-05 20.0001 -2.29487e-19)
(-3.27289e-05 20.0001 -4.50258e-19)
(-3.27159e-05 20.0001 -4.12497e-19)
(-3.27028e-05 20.0001 -4.17953e-19)
(-3.26897e-05 20.0001 -2.28545e-19)
(-3.26767e-05 20.0001 -3.49742e-19)
(-3.26636e-05 20.0001 -1.227e-19)
(-3.26505e-05 20.0001 -2.97573e-19)
(-3.26374e-05 20.0001 -2.30226e-19)
(-3.26243e-05 20.0001 -4.50225e-19)
(-3.26112e-05 20.0001 -4.12392e-19)
(-3.25981e-05 20.0001 -4.10752e-19)
(-3.2585e-05 20.0001 -2.28046e-19)
(-3.25719e-05 20.0001 -3.26994e-19)
(-3.25588e-05 20.0001 -1.25141e-19)
(-3.25457e-05 20.0001 -2.50558e-19)
(-3.25325e-05 20.0001 -1.77789e-19)
(-3.25194e-05 20.0001 -3.63207e-19)
(-3.25063e-05 20.0001 -3.19011e-19)
(-3.24931e-05 20.0001 -3.28927e-19)
(-3.248e-05 20.0001 -1.76995e-19)
(-3.24669e-05 20.0001 -3.21616e-19)
(-3.24537e-05 20.0001 -1.50413e-19)
(-3.24406e-05 20.0001 -2.88475e-19)
(-3.24274e-05 20.0001 -2.09605e-19)
(-3.24143e-05 20.0001 -3.82821e-19)
(-3.24012e-05 20.0001 -3.30612e-19)
(-3.2388e-05 20.0001 -3.34835e-19)
(-3.23749e-05 20.0001 -1.79991e-19)
(-3.23618e-05 20.0001 -3.24459e-19)
(-3.23486e-05 20.0001 -1.52485e-19)
(-3.23355e-05 20.0001 -2.88179e-19)
(-3.23224e-05 20.0001 -2.10109e-19)
(-3.23093e-05 20.0001 -3.88703e-19)
(-3.22962e-05 20.0001 -3.32456e-19)
(-3.22831e-05 20.0001 -3.37201e-19)
(-3.22701e-05 20.0001 -1.78604e-19)
(-3.2257e-05 20.0001 -3.38568e-19)
(-3.22439e-05 20.0001 -1.53831e-19)
(-3.22309e-05 20.0001 -3.24855e-19)
(-3.22179e-05 20.0001 -2.61782e-19)
(-3.22049e-05 20.0001 -4.92403e-19)
(-3.21919e-05 20.0001 -3.9681e-19)
(-3.2179e-05 20.0001 -3.43607e-19)
(-3.21661e-05 20.0001 -1.4863e-19)
(-3.21532e-05 20.0001 -3.02516e-19)
(-3.21403e-05 20.0001 -1.26796e-19)
(-3.21275e-05 20.0001 -3.05982e-19)
(-3.21147e-05 20.0001 -2.4786e-19)
(-3.21019e-05 20.0001 -4.85318e-19)
(-3.20892e-05 20.0001 -3.91323e-19)
(-3.20765e-05 20.0001 -3.36583e-19)
(-3.20639e-05 20.0001 -1.40113e-19)
(-3.20513e-05 20.0001 -2.82449e-19)
(-3.20388e-05 20.0001 -1.11184e-19)
(-3.20263e-05 20.0001 -2.48736e-19)
(-3.20139e-05 20.0001 -1.65182e-19)
(-3.20015e-05 20.0001 -4.00995e-19)
(-3.19892e-05 20.0001 -3.34071e-19)
(-3.1977e-05 20.0001 -3.05339e-19)
(-3.19648e-05 20.0001 -1.6793e-19)
(-3.19527e-05 20.0001 -2.76602e-19)
(-3.19407e-05 20.0001 -5.86153e-20)
(-3.19288e-05 20.0001 -1.77955e-19)
(-3.19169e-05 20.0001 -9.91576e-20)
(-3.19051e-05 20.0001 -3.55412e-19)
(-3.18935e-05 20.0001 -2.9284e-19)
(-3.18818e-05 20.0001 -2.78227e-19)
(-3.18703e-05 20.0001 -9.3381e-20)
(-3.18589e-05 20.0001 -2.84566e-19)
(-3.18475e-05 20.0001 -9.75076e-20)
(-3.18362e-05 20.0001 -2.87932e-19)
(-3.1825e-05 20.0001 -2.34288e-19)
(-3.18138e-05 20.0001 -4.94565e-19)
(-3.18027e-05 20.0001 -4.0904e-19)
(-3.17916e-05 20.0001 -3.44605e-19)
(-3.17805e-05 20.0001 -1.95572e-19)
(-3.17694e-05 20.0001 -3.39977e-19)
(-3.17583e-05 20.0001 -1.52331e-19)
(-3.17471e-05 20.0001 -3.40939e-19)
(-3.17358e-05 20.0001 -2.1895e-19)
(-3.17244e-05 20.0001 -4.41438e-19)
(-3.17127e-05 20.0001 -3.56753e-19)
(-3.17008e-05 20.0001 -3.0905e-19)
(-3.16886e-05 20.0001 -1.78402e-19)
(-3.16759e-05 20.0001 -3.32998e-19)
(-3.16627e-05 20.0001 -1.51066e-19)
(-3.16489e-05 20.0001 -3.40573e-19)
(-3.16344e-05 20.0001 -2.16339e-19)
(-3.1619e-05 20.0001 -4.4106e-19)
(-3.16026e-05 20.0001 -3.56309e-19)
(-3.15849e-05 20.0001 -3.07659e-19)
(-3.15661e-05 20.0001 -1.84351e-19)
(-3.15455e-05 20.0001 -3.23507e-19)
(-3.15239e-05 20.0001 -1.92575e-19)
(-3.14997e-05 20.0001 -2.66926e-19)
(-3.14753e-05 20.0001 -3.75053e-19)
(-3.14474e-05 20.0001 -3.15056e-19)
(-3.14167e-05 20.0001 -4.61628e-19)
(-3.13759e-05 20.0001 -2.49372e-19)
(-3.13158e-05 20.0001 -3.77841e-19)
(-3.12517e-05 20.0001 -2.8007e-19)
(-4.29058e-05 20.0001 -2.86893e-19)
(-4.28928e-05 20.0001 -3.8917e-19)
(-4.2877e-05 20.0001 -2.3747e-19)
(-4.28595e-05 20.0001 -3.48292e-19)
(-4.28423e-05 20.0001 -2.99998e-19)
(-4.28254e-05 20.0001 -4.54089e-19)
(-4.28085e-05 20.0001 -4.54564e-19)
(-4.27916e-05 20.0001 -4.53087e-19)
(-4.27748e-05 20.0001 -3.08034e-19)
(-4.27581e-05 20.0001 -4.12791e-19)
(-4.27414e-05 20.0001 -2.60509e-19)
(-4.27247e-05 20.0001 -3.68878e-19)
(-4.27081e-05 20.0001 -3.14951e-19)
(-4.26915e-05 20.0001 -4.68557e-19)
(-4.26749e-05 20.0001 -4.65699e-19)
(-4.26583e-05 20.0001 -4.59525e-19)
(-4.26418e-05 20.0001 -3.19457e-19)
(-4.26252e-05 20.0001 -4.14053e-19)
(-4.26086e-05 20.0001 -2.91163e-19)
(-4.2592e-05 20.0001 -3.34136e-19)
(-4.25754e-05 20.0001 -4.06317e-19)
(-4.25589e-05 20.0001 -3.3723e-19)
(-4.25423e-05 20.0001 -4.67449e-19)
(-4.25257e-05 20.0001 -3.19594e-19)
(-4.25091e-05 20.0001 -4.05733e-19)
(-4.24925e-05 20.0001 -3.42265e-19)
(-4.24758e-05 20.0001 -4.63876e-19)
(-4.24592e-05 20.0001 -4.24653e-19)
(-4.24426e-05 20.0001 -3.93866e-19)
(-4.2426e-05 20.0001 -2.50688e-19)
(-4.24094e-05 20.0001 -3.63178e-19)
(-4.23927e-05 20.0001 -2.3484e-19)
(-4.23761e-05 20.0001 -3.50611e-19)
(-4.23594e-05 20.0001 -3.12667e-19)
(-4.23428e-05 20.0001 -4.49594e-19)
(-4.23261e-05 20.0001 -4.20997e-19)
(-4.23095e-05 20.0001 -3.96425e-19)
(-4.22928e-05 20.0001 -2.58459e-19)
(-4.22761e-05 20.0001 -3.76303e-19)
(-4.22595e-05 20.0001 -2.47028e-19)
(-4.22428e-05 20.0001 -3.7397e-19)
(-4.22261e-05 20.0001 -3.38167e-19)
(-4.22094e-05 20.0001 -4.96716e-19)
(-4.21927e-05 20.0001 -4.91947e-19)
(-4.2176e-05 20.0001 -4.98093e-19)
(-4.21592e-05 20.0001 -3.37997e-19)
(-4.21425e-05 20.0001 -4.1803e-19)
(-4.21258e-05 20.0001 -2.69182e-19)
(-4.2109e-05 20.0001 -3.89734e-19)
(-4.20923e-05 20.0001 -3.5691e-19)
(-4.20755e-05 20.0001 -5.13153e-19)
(-4.20587e-05 20.0001 -5.03204e-19)
(-4.20419e-05 20.0001 -5.05901e-19)
(-4.20252e-05 20.0001 -3.43273e-19)
(-4.20084e-05 20.0001 -4.21846e-19)
(-4.19916e-05 20.0001 -2.70318e-19)
(-4.19747e-05 20.0001 -3.92775e-19)
(-4.19579e-05 20.0001 -3.58078e-19)
(-4.19411e-05 20.0001 -5.12116e-19)
(-4.19242e-05 20.0001 -5.02219e-19)
(-4.19074e-05 20.0001 -5.00236e-19)
(-4.18905e-05 20.0001 -3.39812e-19)
(-4.18737e-05 20.0001 -4.04123e-19)
(-4.18568e-05 20.0001 -2.61926e-19)
(-4.18399e-05 20.0001 -3.51671e-19)
(-4.18231e-05 20.0001 -3.06833e-19)
(-4.18062e-05 20.0001 -4.3601e-19)
(-4.17893e-05 20.0001 -4.20626e-19)
(-4.17724e-05 20.0001 -4.27754e-19)
(-4.17555e-05 20.0001 -2.93578e-19)
(-4.17386e-05 20.0001 -3.94067e-19)
(-4.17216e-05 20.0001 -2.79495e-19)
(-4.17047e-05 20.0001 -3.82051e-19)
(-4.16878e-05 20.0001 -3.32418e-19)
(-4.16709e-05 20.0001 -4.52026e-19)
(-4.1654e-05 20.0001 -4.30253e-19)
(-4.1637e-05 20.0001 -4.33224e-19)
(-4.16201e-05 20.0001 -2.9649e-19)
(-4.16032e-05 20.0001 -3.96141e-19)
(-4.15863e-05 20.0001 -2.82541e-19)
(-4.15694e-05 20.0001 -3.81243e-19)
(-4.15525e-05 20.0001 -3.33992e-19)
(-4.15356e-05 20.0001 -4.57294e-19)
(-4.15187e-05 20.0001 -4.33044e-19)
(-4.15018e-05 20.0001 -4.35766e-19)
(-4.14849e-05 20.0001 -2.98149e-19)
(-4.1468e-05 20.0001 -4.08162e-19)
(-4.14511e-05 20.0001 -2.89969e-19)
(-4.14343e-05 20.0001 -4.1501e-19)
(-4.14175e-05 20.0001 -3.83802e-19)
(-4.14006e-05 20.0001 -5.39519e-19)
(-4.13838e-05 20.0001 -4.88215e-19)
(-4.13671e-05 20.0001 -4.46643e-19)
(-4.13503e-05 20.0001 -2.78013e-19)
(-4.13336e-05 20.0001 -3.80027e-19)
(-4.13169e-05 20.0001 -2.6626e-19)
(-4.13002e-05 20.0001 -3.97184e-19)
(-4.12836e-05 20.0001 -3.68775e-19)
(-4.1267e-05 20.0001 -5.32116e-19)
(-4.12504e-05 20.0001 -4.82849e-19)
(-4.12339e-05 20.0001 -4.3795e-19)
(-4.12174e-05 20.0001 -2.66411e-19)
(-4.12009e-05 20.0001 -3.58911e-19)
(-4.11845e-05 20.0001 -2.44246e-19)
(-4.11682e-05 20.0001 -3.46134e-19)
(-4.11519e-05 20.0001 -2.97332e-19)
(-4.11357e-05 20.0001 -4.59624e-19)
(-4.11195e-05 20.0001 -4.30972e-19)
(-4.11034e-05 20.0001 -4.08648e-19)
(-4.10874e-05 20.0001 -2.75095e-19)
(-4.10714e-05 20.0001 -3.49314e-19)
(-4.10555e-05 20.0001 -1.98107e-19)
(-4.10397e-05 20.0001 -2.83835e-19)
(-4.10239e-05 20.0001 -2.37944e-19)
(-4.10083e-05 20.0001 -4.14429e-19)
(-4.09927e-05 20.0001 -3.91761e-19)
(-4.09772e-05 20.0001 -3.79922e-19)
(-4.09617e-05 20.0001 -2.25093e-19)
(-4.09464e-05 20.0001 -3.54325e-19)
(-4.09311e-05 20.0001 -2.38279e-19)
(-4.09159e-05 20.0001 -3.80346e-19)
(-4.09008e-05 20.0001 -3.58648e-19)
(-4.08857e-05 20.0001 -5.38879e-19)
(-4.08706e-05 20.0001 -4.99641e-19)
(-4.08556e-05 20.0001 -4.54524e-19)
(-4.08406e-05 20.0001 -3.13843e-19)
(-4.08256e-05 20.0001 -4.13931e-19)
(-4.08106e-05 20.0001 -2.92711e-19)
(-4.07955e-05 20.0001 -4.23387e-19)
(-4.07803e-05 20.0001 -3.50057e-19)
(-4.07649e-05 20.0001 -4.97462e-19)
(-4.07494e-05 20.0001 -4.55027e-19)
(-4.07336e-05 20.0001 -4.20549e-19)
(-4.07175e-05 20.0001 -2.9504e-19)
(-4.0701e-05 20.0001 -4.04307e-19)
(-4.0684e-05 20.0001 -2.89349e-19)
(-4.06664e-05 20.0001 -4.20198e-19)
(-4.06482e-05 20.0001 -3.46736e-19)
(-4.06291e-05 20.0001 -4.97364e-19)
(-4.06091e-05 20.0001 -4.53692e-19)
(-4.05879e-05 20.0001 -4.17825e-19)
(-4.05657e-05 20.0001 -2.96707e-19)
(-4.05419e-05 20.0001 -3.99322e-19)
(-4.05174e-05 20.0001 -3.12504e-19)
(-4.04903e-05 20.0001 -3.78418e-19)
(-4.04633e-05 20.0001 -4.56026e-19)
(-4.04329e-05 20.0001 -3.9619e-19)
(-4.03986e-05 20.0001 -5.08196e-19)
(-4.03549e-05 20.0001 -3.68044e-19)
(-4.02938e-05 20.0001 -4.59083e-19)
(-4.02214e-05 20.0001 -3.92946e-19)
(-5.24355e-05 20.0001 -3.81614e-19)
(-5.24192e-05 20.0001 -4.31791e-19)
(-5.23993e-05 20.0001 -3.59224e-19)
(-5.23777e-05 20.0001 -4.27668e-19)
(-5.23568e-05 20.0001 -4.15263e-19)
(-5.23364e-05 20.0001 -5.01273e-19)
(-5.23159e-05 20.0001 -5.13322e-19)
(-5.22954e-05 20.0001 -5.16758e-19)
(-5.2275e-05 20.0001 -4.14299e-19)
(-5.22547e-05 20.0001 -4.64338e-19)
(-5.22344e-05 20.0001 -3.89879e-19)
(-5.22142e-05 20.0001 -4.5256e-19)
(-5.2194e-05 20.0001 -4.35224e-19)
(-5.21738e-05 20.0001 -5.18391e-19)
(-5.21536e-05 20.0001 -5.26313e-19)
(-5.21334e-05 20.0001 -5.26876e-19)
(-5.21132e-05 20.0001 -4.24141e-19)
(-5.2093e-05 20.0001 -4.75557e-19)
(-5.20728e-05 20.0001 -4.00806e-19)
(-5.20526e-05 20.0001 -4.5299e-19)
(-5.20324e-05 20.0001 -4.74412e-19)
(-5.20122e-05 20.0001 -4.22812e-19)
(-5.1992e-05 20.0001 -4.96862e-19)
(-5.19717e-05 20.0001 -4.30769e-19)
(-5.19515e-05 20.0001 -4.82168e-19)
(-5.19312e-05 20.0001 -4.51677e-19)
(-5.1911e-05 20.0001 -5.0826e-19)
(-5.18907e-05 20.0001 -4.89031e-19)
(-5.18704e-05 20.0001 -4.68162e-19)
(-5.18502e-05 20.0001 -3.63086e-19)
(-5.18299e-05 20.0001 -4.2026e-19)
(-5.18096e-05 20.0001 -3.62587e-19)
(-5.17893e-05 20.0001 -4.33781e-19)
(-5.17689e-05 20.0001 -4.26376e-19)
(-5.17486e-05 20.0001 -4.97322e-19)
(-5.17283e-05 20.0001 -4.89364e-19)
(-5.1708e-05 20.0001 -4.74768e-19)
(-5.16876e-05 20.0001 -3.75962e-19)
(-5.16673e-05 20.0001 -4.3713e-19)
(-5.16469e-05 20.0001 -3.7919e-19)
(-5.16265e-05 20.0001 -4.59777e-19)
(-5.16061e-05 20.0001 -4.56997e-19)
(-5.15857e-05 20.0001 -5.45171e-19)
(-5.15653e-05 20.0001 -5.5644e-19)
(-5.15449e-05 20.0001 -5.61389e-19)
(-5.15245e-05 20.0001 -4.47471e-19)
(-5.1504e-05 20.0001 -4.79778e-19)
(-5.14836e-05 20.0001 -4.06533e-19)
(-5.14631e-05 20.0001 -4.7949e-19)
(-5.14427e-05 20.0001 -4.7698e-19)
(-5.14222e-05 20.0001 -5.61851e-19)
(-5.14017e-05 20.0001 -5.69346e-19)
(-5.13812e-05 20.0001 -5.71022e-19)
(-5.13607e-05 20.0001 -4.53439e-19)
(-5.13402e-05 20.0001 -4.85075e-19)
(-5.13196e-05 20.0001 -4.08233e-19)
(-5.12991e-05 20.0001 -4.82163e-19)
(-5.12785e-05 20.0001 -4.78484e-19)
(-5.12579e-05 20.0001 -5.60476e-19)
(-5.12374e-05 20.0001 -5.66446e-19)
(-5.12168e-05 20.0001 -5.65917e-19)
(-5.11962e-05 20.0001 -4.48388e-19)
(-5.11756e-05 20.0001 -4.70193e-19)
(-5.11549e-05 20.0001 -3.93528e-19)
(-5.11343e-05 20.0001 -4.44311e-19)
(-5.11137e-05 20.0001 -4.28422e-19)
(-5.1093e-05 20.0001 -4.94047e-19)
(-5.10724e-05 20.0001 -4.95577e-19)
(-5.10517e-05 20.0001 -5.02248e-19)