/*--------------------------------*- C++ -*----------------------------------*\
| =========                 |                                                 |
| \\      /  F ield         | OpenFOAM: The Open Source CFD Toolbox           |
|  \\    /   O peration     | Version:  2512                                  |
|   \\  /    A nd           | Website:  www.openfoam.com                      |
|    \\/     M anipulation  |                                                 |
\*---------------------------------------------------------------------------*/
FoamFile
{
    version     2.0;
    format      ascii;
    arch        "LSB;label=32;scalar=64";
    class       volScalarField;
    location    "0.1";
    object      p;
}
// * * * * * * * * * * * * * * * * * * * * * * * * * * * * * * * * * * * * * //

dimensions      [1 -1 -2 0 0 0 0];

internalField   nonuniform List<scalar> 
8333
(
-522.652
-523.446
-524.241
-525.036
-525.832
-526.627
-527.423
-528.22
-529.016
-529.813
-530.609
-531.406
-532.204
-533.001
-533.799
-534.597
-535.395
-536.193
-536.992
-537.79
-538.589
-539.388
-540.187
-540.986
-541.786
-542.585
-543.385
-544.185
-544.985
-545.785
-546.585
-547.386
-548.186
-548.987
-549.787
-550.588
-551.389
-552.19
-552.991
-553.792
-554.594
-555.395
-556.196
-556.998
-557.799
-558.601
-559.403
-560.204
-561.006
-561.808
-562.609
-563.411
-564.213
-565.015
-565.817
-566.619
-567.42
-568.222
-569.024
-569.826
-570.628
-571.429
-572.231
-573.033
-573.835
-574.636
-575.438
-576.239
-577.041
-577.842
-578.643
-579.445
-580.246
-581.047
-581.848
-582.649
-583.45
-584.251
-585.051
-585.852
-586.652
-587.452
-588.253
-589.053
-589.852
-590.652
-591.452
-592.251
-593.051
-593.85
-594.649
-595.448
-596.246
-597.045
-597.843
-598.641
-599.439
-600.237
-601.034
-601.831
-602.629
-603.425
-604.222
-605.018
-605.815
-606.611
-607.406
-608.202
-608.997
-609.792
-610.587
-611.381
-612.175
-612.969
-613.763
-614.556
-615.35
-616.142
-616.935
-617.727
-618.519
-619.31
-620.102
-620.893
-621.683
-622.474
-623.264
-624.053
-624.843
-625.631
-626.42
-627.208
-627.996
-628.784
-629.571
-630.358
-631.144
-631.93
-632.716
-633.501
-634.286
-635.07
-635.854
-636.638
-637.421
-638.204
-638.987
-639.769
-526.89
-527.684
-528.479
-529.274
-530.07
-530.865
-531.661
-532.457
-533.254
-534.051
-534.847
-535.644
-536.442
-537.239
-538.037
-538.835
-539.633
-540.431
-541.229
-542.028
-542.827
-543.626
-544.425
-545.224
-546.024
-546.823
-547.623
-548.423
-549.223
-550.023
-550.823
-551.624
-552.424
-553.225
-554.025
-554.826
-555.627
-556.428
-557.229
-558.03
-558.832
-559.633
-560.434
-561.236
-562.037
-562.839
-563.641
-564.442
-565.244
-566.046
-566.847
-567.649
-568.451
-569.253
-570.055
-570.856
-571.658
-572.46
-573.262
-574.064
-574.866
-575.667
-576.469
-577.271
-578.072
-578.874
-579.676
-580.477
-581.279
-582.08
-582.881
-583.683
-584.484
-585.285
-586.086
-586.887
-587.688
-588.488
-589.289
-590.09
-590.89
-591.69
-592.49
-593.29
-594.09
-594.89
-595.69
-596.489
-597.288
-598.088
-598.887
-599.685
-600.484
-601.282
-602.081
-602.879
-603.677
-604.474
-605.272
-606.069
-606.866
-607.663
-608.46
-609.256
-610.053
-610.849
-611.644
-612.44
-613.235
-614.03
-614.825
-615.619
-616.413
-617.207
-618.001
-618.794
-619.587
-620.38
-621.173
-621.965
-622.757
-623.548
-624.34
-625.131
-625.921
-626.711
-627.501
-628.291
-629.08
-629.869
-630.658
-631.446
-632.234
-633.022
-633.809
-634.595
-635.382
-636.168
-636.954
-637.739
-638.524
-639.308
-640.092
-640.876
-641.659
-642.442
-643.224
-644.006
-644.788
-531.128
-531.922
-532.717
-533.512
-534.308
-535.103
-535.899
-536.695
-537.492
-538.288
-539.085
-539.882
-540.68
-541.477
-542.275
-543.073
-543.871
-544.669
-545.467
-546.266
-547.065
-547.864
-548.663
-549.462
-550.262
-551.061
-551.861
-552.661
-553.461
-554.261
-555.061
-555.862
-556.662
-557.463
-558.263
-559.064
-559.865
-560.666
-561.467
-562.268
-563.07
-563.871
-564.672
-565.474
-566.275
-567.077
-567.878
-568.68
-569.482
-570.284
-571.085
-571.887
-572.689
-573.491
-574.293
-575.094
-575.896
-576.698
-577.5
-578.302
-579.103
-579.905
-580.707
-581.509
-582.31
-583.112
-583.914
-584.715
-585.517
-586.318
-587.119
-587.921
-588.722
-589.523
-590.324
-591.125
-591.926
-592.726
-593.527
-594.327
-595.128
-595.928
-596.728
-597.528
-598.328
-599.128
-599.928
-600.727
-601.526
-602.325
-603.124
-603.923
-604.722
-605.52
-606.319
-607.117
-607.915
-608.712
-609.51
-610.307
-611.104
-611.901
-612.698
-613.494
-614.29
-615.086
-615.882
-616.678
-617.473
-618.268
-619.063
-619.857
-620.651
-621.445
-622.239
-623.032
-623.825
-624.618
-625.411
-626.203
-626.995
-627.786
-628.577
-629.368
-630.159
-630.949
-631.739
-632.529
-633.318
-634.107
-634.896
-635.684
-636.472
-637.259
-638.047
-638.833
-639.62
-640.406
-641.191
-641.977
-642.761
-643.546
-644.33
-645.114
-645.897
-646.68
-647.462
-648.244
-649.026
-649.807
-535.366
-536.16
-536.955
-537.75
-538.546
-539.341
-540.137
-540.933
-541.73
-542.526
-543.323
-544.12
-544.918
-545.715
-546.513
-547.311
-548.109
-548.907
-549.705
-550.504
-551.303
-552.102
-552.901
-553.7
-554.5
-555.299
-556.099
-556.899
-557.699
-558.499
-559.299
-560.099
-560.9
-561.701
-562.501
-563.302
-564.103
-564.904
-565.705
-566.506
-567.308
-568.109
-568.91
-569.712
-570.513
-571.315
-572.116
-572.918
-573.72
-574.521
-575.323
-576.125
-576.927
-577.729
-578.53
-579.332
-580.134
-580.936
-581.738
-582.54
-583.341
-584.143
-584.945
-585.747
-586.548
-587.35
-588.151
-588.953
-589.754
-590.556
-591.357
-592.158
-592.96
-593.761
-594.562
-595.363
-596.164
-596.964
-597.765
-598.565
-599.366
-600.166
-600.966
-601.766
-602.566
-603.366
-604.165
-604.965
-605.764
-606.563
-607.362
-608.161
-608.96
-609.758
-610.557
-611.355
-612.153
-612.95
-613.748
-614.545
-615.342
-616.139
-616.936
-617.732
-618.528
-619.324
-620.12
-620.916
-621.711
-622.506
-623.3
-624.095
-624.889
-625.683
-626.477
-627.27
-628.063
-628.856
-629.648
-630.441
-631.232
-632.024
-632.815
-633.606
-634.397
-635.187
-635.977
-636.767
-637.556
-638.345
-639.134
-639.922
-640.71
-641.497
-642.284
-643.071
-643.858
-644.644
-645.429
-646.214
-646.999
-647.784
-648.568
-649.351
-650.135
-650.918
-651.7
-652.482
-653.264
-654.045
-654.825
-539.603
-540.398
-541.193
-541.988
-542.784
-543.579
-544.375
-545.171
-545.968
-546.764
-547.561
-548.358
-549.156
-549.953
-550.751
-551.549
-552.347
-553.145
-553.943
-554.742
-555.541
-556.34
-557.139
-557.938
-558.737
-559.537
-560.337
-561.137
-561.937
-562.737
-563.537
-564.337
-565.138
-565.939
-566.739
-567.54
-568.341
-569.142
-569.943
-570.744
-571.545
-572.347
-573.148
-573.95
-574.751
-575.553
-576.354
-577.156
-577.958
-578.759
-579.561
-580.363
-581.165
-581.967
-582.768
-583.57
-584.372
-585.174
-585.976
-586.778
-587.579
-588.381
-589.183
-589.985
-590.786
-591.588
-592.389
-593.191
-593.992
-594.794
-595.595
-596.396
-597.198
-597.999
-598.8
-599.601
-600.401
-601.202
-602.003
-602.803
-603.604
-604.404
-605.204
-606.004
-606.804
-607.604
-608.403
-609.203
-610.002
-610.801
-611.6
-612.399
-613.198
-613.996
-614.794
-615.593
-616.39
-617.188
-617.986
-618.783
-619.58
-620.377
-621.174
-621.97
-622.766
-623.562
-624.358
-625.153
-625.949
-626.744
-627.538
-628.333
-629.127
-629.921
-630.715
-631.508
-632.301
-633.094
-633.886
-634.678
-635.47
-636.262
-637.053
-637.844
-638.635
-639.425
-640.215
-641.005
-641.794
-642.583
-643.371
-644.16
-644.948
-645.735
-646.522
-647.309
-648.095
-648.881
-649.667
-650.452
-651.237
-652.022
-652.806
-653.589
-654.373
-655.155
-655.938
-656.72
-657.502
-658.283
-659.063
-543.841
-544.636
-545.431
-546.226
-547.022
-547.817
-548.613
-549.409
-550.206
-551.002
-551.799
-552.596
-553.393
-554.191
-554.989
-555.786
-556.585
-557.383
-558.181
-558.98
-559.779
-560.578
-561.377
-562.176
-562.975
-563.775
-564.575
-565.375
-566.175
-566.975
-567.775
-568.575
-569.376
-570.176
-570.977
-571.778
-572.579
-573.38
-574.181
-574.982
-575.783
-576.585
-577.386
-578.188
-578.989
-579.791
-580.592
-581.394
-582.196
-582.997
-583.799
-584.601
-585.403
-586.204
-587.006
-587.808
-588.61
-589.412
-590.214
-591.015
-591.817
-592.619
-593.421
-594.222
-595.024
-595.826
-596.627
-597.429
-598.23
-599.032
-599.833
-600.634
-601.435
-602.237
-603.038
-603.838
-604.639
-605.44
-606.241
-607.041
-607.842
-608.642
-609.442
-610.242
-611.042
-611.842
-612.641
-613.441
-614.24
-615.039
-615.838
-616.637
-617.436
-618.234
-619.032
-619.83
-620.628
-621.426
-622.224
-623.021
-623.818
-624.615
-625.411
-626.208
-627.004
-627.8
-628.596
-629.391
-630.187
-630.981
-631.776
-632.571
-633.365
-634.159
-634.952
-635.746
-636.539
-637.332
-638.124
-638.916
-639.708
-640.5
-641.291
-642.082
-642.873
-643.663
-644.453
-645.243
-646.032
-646.821
-647.609
-648.398
-649.185
-649.973
-650.76
-651.547
-652.333
-653.119
-653.905
-654.69
-655.475
-656.259
-657.044
-657.827
-658.61
-659.393
-660.176
-660.958
-661.739
-662.52
-663.301
-664.081
-548.079
-548.874
-549.669
-550.464
-551.26
-552.055
-552.851
-553.647
-554.444
-555.24
-556.037
-556.834
-557.631
-558.429
-559.227
-560.024
-560.822
-561.621
-562.419
-563.218
-564.017
-564.816
-565.615
-566.414
-567.213
-568.013
-568.813
-569.613
-570.413
-571.213
-572.013
-572.813
-573.614
-574.414
-575.215
-576.016
-576.817
-577.618
-578.419
-579.22
-580.021
-580.823
-581.624
-582.425
-583.227
-584.029
-584.83
-585.632
-586.434
-587.235
-588.037
-588.839
-589.641
-590.442
-591.244
-592.046
-592.848
-593.65
-594.452
-595.253
-596.055
-596.857
-597.659
-598.46
-599.262
-600.064
-600.865
-601.667
-602.468
-603.27
-604.071
-604.872
-605.673
-606.474
-607.275
-608.076
-608.877
-609.678
-610.479
-611.279
-612.079
-612.88
-613.68
-614.48
-615.28
-616.08
-616.879
-617.679
-618.478
-619.277
-620.076
-620.875
-621.673
-622.472
-623.27
-624.068
-624.866
-625.664
-626.461
-627.259
-628.056
-628.853
-629.649
-630.446
-631.242
-632.038
-632.834
-633.629
-634.424
-635.219
-636.014
-636.809
-637.603
-638.397
-639.19
-639.984
-640.777
-641.57
-642.362
-643.154
-643.946
-644.738
-645.529
-646.32
-647.111
-647.901
-648.691
-649.48
-650.27
-651.059
-651.847
-652.635
-653.423
-654.211
-654.998
-655.785
-656.571
-657.357
-658.143
-658.928
-659.713
-660.497
-661.281
-662.065
-662.848
-663.631
-664.414
-665.196
-665.977
-666.758
-667.539
-668.319
-669.098
-552.317
-553.112
-553.907
-554.702
-555.497
-556.293
-557.089
-557.885
-558.682
-559.478
-560.275
-561.072
-561.869
-562.667
-563.465
-564.262
-565.06
-565.859
-566.657
-567.456
-568.255
-569.053
-569.853
-570.652
-571.451
-572.251
-573.051
-573.85
-574.65
-575.451
-576.251
-577.051
-577.852
-578.652
-579.453
-580.254
-581.055
-581.856
-582.657
-583.458
-584.259
-585.061
-585.862
-586.663
-587.465
-588.266
-589.068
-589.87
-590.671
-591.473
-592.275
-593.077
-593.879
-594.68
-595.482
-596.284
-597.086
-597.888
-598.689
-599.491
-600.293
-601.095
-601.897
-602.698
-603.5
-604.302
-605.103
-605.905
-606.706
-607.507
-608.309
-609.11
-609.911
-610.712
-611.513
-612.314
-613.115
-613.916
-614.716
-615.517
-616.317
-617.118
-617.918
-618.718
-619.518
-620.317
-621.117
-621.917
-622.716
-623.515
-624.314
-625.113
-625.911
-626.71
-627.508
-628.306
-629.104
-629.902
-630.699
-631.497
-632.294
-633.091
-633.887
-634.684
-635.48
-636.276
-637.072
-637.867
-638.662
-639.457
-640.252
-641.046
-641.841
-642.635
-643.428
-644.222
-645.015
-645.807
-646.6
-647.392
-648.184
-648.976
-649.767
-650.558
-651.348
-652.139
-652.929
-653.718
-654.508
-655.297
-656.085
-656.873
-657.661
-658.449
-659.236
-660.023
-660.809
-661.595
-662.381
-663.166
-663.951
-664.735
-665.519
-666.303
-667.086
-667.869
-668.651
-669.433
-670.215
-670.996
-671.777
-672.557
-673.336
-556.555
-557.35
-558.145
-558.94
-559.735
-560.531
-561.327
-562.123
-562.92
-563.716
-564.513
-565.31
-566.107
-566.905
-567.702
-568.5
-569.298
-570.097
-570.895
-571.694
-572.492
-573.291
-574.091
-574.89
-575.689
-576.489
-577.289
-578.088
-578.888
-579.689
-580.489
-581.289
-582.09
-582.89
-583.691
-584.492
-585.293
-586.094
-586.895
-587.696
-588.497
-589.298
-590.1
-590.901
-591.703
-592.504
-593.306
-594.108
-594.909
-595.711
-596.513
-597.315
-598.116
-598.918
-599.72
-600.522
-601.324
-602.126
-602.927
-603.729
-604.531
-605.333
-606.134
-606.936
-607.738
-608.539
-609.341
-610.143
-610.944
-611.745
-612.547
-613.348
-614.149
-614.95
-615.751
-616.552
-617.353
-618.154
-618.954
-619.755
-620.555
-621.356
-622.156
-622.956
-623.756
-624.555
-625.355
-626.154
-626.954
-627.753
-628.552
-629.351
-630.149
-630.948
-631.746
-632.544
-633.342
-634.14
-634.937
-635.735
-636.532
-637.328
-638.125
-638.922
-639.718
-640.514
-641.309
-642.105
-642.9
-643.695
-644.49
-645.284
-646.079
-646.872
-647.666
-648.459
-649.253
-650.045
-650.838
-651.63
-652.422
-653.213
-654.005
-654.796
-655.586
-656.377
-657.167
-657.956
-658.745
-659.534
-660.323
-661.111
-661.899
-662.687
-663.474
-664.26
-665.047
-665.833
-666.619
-667.404
-668.189
-668.973
-669.757
-670.541
-671.324
-672.107
-672.889
-673.671
-674.453
-675.234
-676.014
-676.795
-677.574
-678.353
-560.793
-561.588
-562.383
-563.178
-563.973
-564.769
-565.565
-566.361
-567.158
-567.954
-568.751
-569.548
-570.345
-571.143
-571.94
-572.738
-573.536
-574.335
-575.133
-575.932
-576.73
-577.529
-578.328
-579.128
-579.927
-580.727
-581.526
-582.326
-583.126
-583.926
-584.727
-585.527
-586.328
-587.128
-587.929
-588.73
-589.531
-590.332
-591.133
-591.934
-592.735
-593.536
-594.338
-595.139
-595.941
-596.742
-597.544
-598.346
-599.147
-599.949
-600.751
-601.553
-602.354
-603.156
-603.958
-604.76
-605.562
-606.363
-607.165
-607.967
-608.769
-609.571
-610.372
-611.174
-611.976
-612.777
-613.579
-614.38
-615.182
-615.983
-616.785
-617.586
-618.387
-619.188
-619.989
-620.79
-621.591
-622.392
-623.192
-623.993
-624.793
-625.593
-626.394
-627.194
-627.994
-628.793
-629.593
-630.392
-631.192
-631.991
-632.79
-633.589
-634.387
-635.186
-635.984
-636.782
-637.58
-638.378
-639.175
-639.972
-640.77
-641.566
-642.363
-643.159
-643.956
-644.752
-645.547
-646.343
-647.138
-647.933
-648.728
-649.522
-650.316
-651.11
-651.904
-652.697
-653.49
-654.283
-655.076
-655.868
-656.66
-657.451
-658.243
-659.034
-659.824
-660.614
-661.404
-662.194
-662.983
-663.772
-664.561
-665.349
-666.137
-666.924
-667.712
-668.498
-669.285
-670.071
-670.856
-671.642
-672.426
-673.211
-673.995
-674.779
-675.562
-676.345
-677.127
-677.909
-678.69
-679.472
-680.252
-681.032
-681.812
-682.591
-683.37
-565.031
-565.826
-566.621
-567.416
-568.211
-569.007
-569.803
-570.599
-571.395
-572.192
-572.989
-573.786
-574.583
-575.381
-576.178
-576.976
-577.774
-578.573
-579.371
-580.17
-580.968
-581.767
-582.566
-583.366
-584.165
-584.965
-585.764
-586.564
-587.364
-588.164
-588.965
-589.765
-590.566
-591.366
-592.167
-592.968
-593.769
-594.57
-595.371
-596.172
-596.973
-597.774
-598.576
-599.377
-600.179
-600.98
-601.782
-602.584
-603.385
-604.187
-604.989
-605.79
-606.592
-607.394
-608.196
-608.998
-609.8
-610.601
-611.403
-612.205
-613.007
-613.809
-614.61
-615.412
-616.214
-617.015
-617.817
-618.618
-619.42
-620.221
-621.023
-621.824
-622.625
-623.426
-624.227
-625.028
-625.829
-626.63
-627.43
-628.231
-629.031
-629.831
-630.632
-631.432
-632.231
-633.031
-633.831
-634.63
-635.43
-636.229
-637.028
-637.826
-638.625
-639.424
-640.222
-641.02
-641.818
-642.616
-643.413
-644.21
-645.007
-645.804
-646.601
-647.397
-648.194
-648.99
-649.785
-650.581
-651.376
-652.171
-652.966
-653.76
-654.554
-655.348
-656.142
-656.935
-657.728
-658.521
-659.314
-660.106
-660.898
-661.689
-662.48
-663.271
-664.062
-664.852
-665.642
-666.432
-667.221
-668.01
-668.799
-669.587
-670.375
-671.162
-671.949
-672.736
-673.523
-674.309
-675.094
-675.879
-676.664
-677.449
-678.233
-679.016
-679.8
-680.582
-681.365
-682.147
-682.928
-683.709
-684.49
-685.27
-686.05
-686.829
-687.608
-688.386
-569.269
-570.064
-570.859
-571.654
-572.449
-573.245
-574.041
-574.837
-575.633
-576.43
-577.227
-578.024
-578.821
-579.619
-580.416
-581.214
-582.012
-582.81
-583.609
-584.407
-585.206
-586.005
-586.804
-587.604
-588.403
-589.203
-590.002
-590.802
-591.602
-592.402
-593.203
-594.003
-594.803
-595.604
-596.405
-597.206
-598.006
-598.807
-599.609
-600.41
-601.211
-602.012
-602.814
-603.615
-604.417
-605.218
-606.02
-606.821
-607.623
-608.425
-609.227
-610.028
-610.83
-611.632
-612.434
-613.236
-614.038
-614.839
-615.641
-616.443
-617.245
-618.046
-618.848
-619.65
-620.452
-621.253
-622.055
-622.856
-623.658
-624.459
-625.26
-626.062
-626.863
-627.664
-628.465
-629.266
-630.067
-630.867
-631.668
-632.469
-633.269
-634.069
-634.869
-635.669
-636.469
-637.269
-638.069
-638.868
-639.667
-640.467
-641.266
-642.064
-642.863
-643.661
-644.46
-645.258
-646.056
-646.853
-647.651
-648.448
-649.245
-650.042
-650.839
-651.635
-652.431
-653.227
-654.023
-654.819
-655.614
-656.409
-657.204
-657.998
-658.792
-659.586
-660.38
-661.173
-661.966
-662.759
-663.551
-664.344
-665.136
-665.927
-666.718
-667.509
-668.3
-669.09
-669.88
-670.67
-671.459
-672.248
-673.037
-673.825
-674.613
-675.4
-676.187
-676.974
-677.76
-678.546
-679.332
-680.117
-680.902
-681.687
-682.471
-683.254
-684.037
-684.82
-685.603
-686.385
-687.166
-687.947
-688.728
-689.508
-690.288
-691.067
-691.845
-692.624
-573.507
-574.302
-575.097
-575.892
-576.687
-577.483
-578.279
-579.075
-579.871
-580.668
-581.465
-582.262
-583.059
-583.857
-584.654
-585.452
-586.25
-587.048
-587.847
-588.645
-589.444
-590.243
-591.042
-591.842
-592.641
-593.441
-594.24
-595.04
-595.84
-596.64
-597.441
-598.241
-599.041
-599.842
-600.643
-601.443
-602.244
-603.045
-603.846
-604.648
-605.449
-606.25
-607.052
-607.853
-608.655
-609.456
-610.258
-611.059
-611.861
-612.663
-613.465
-614.266
-615.068
-615.87
-616.672
-617.474
-618.275
-619.077
-619.879
-620.681
-621.483
-622.284
-623.086
-623.888
-624.69
-625.491
-626.293
-627.094
-627.896
-628.697
-629.498
-630.3
-631.101
-631.902
-632.703
-633.504
-634.305
-635.105
-635.906
-636.707
-637.507
-638.307
-639.107
-639.907
-640.707
-641.507
-642.307
-643.106
-643.905
-644.704
-645.503
-646.302
-647.101
-647.899
-648.698
-649.496
-650.294
-651.091
-651.889
-652.686
-653.483
-654.28
-655.077
-655.873
-656.669
-657.465
-658.261
-659.056
-659.852
-660.647
-661.441
-662.236
-663.03
-663.824
-664.618
-665.411
-666.204
-666.997
-667.789
-668.582
-669.373
-670.165
-670.956
-671.747
-672.538
-673.328
-674.118
-674.908
-675.697
-676.486
-677.274
-678.063
-678.851
-679.638
-680.425
-681.212
-681.998
-682.784
-683.57
-684.355
-685.14
-685.924
-686.708
-687.492
-688.275
-689.058
-689.84
-690.622
-691.404
-692.185
-692.966
-693.746
-694.525
-695.305
-696.083
-696.861
-697.639
-577.745
-578.54
-579.334
-580.13
-580.925
-581.721
-582.517
-583.313
-584.109
-584.906
-585.703
-586.5
-587.297
-588.095
-588.892
-589.69
-590.488
-591.286
-592.085
-592.883
-593.682
-594.481
-595.28
-596.079
-596.879
-597.678
-598.478
-599.278
-600.078
-600.878
-601.678
-602.479
-603.279
-604.08
-604.881
-605.681
-606.482
-607.283
-608.084
-608.886
-609.687
-610.488
-611.29
-612.091
-612.892
-613.694
-614.496
-615.297
-616.099
-616.901
-617.702
-618.504
-619.306
-620.108
-620.91
-621.712
-622.513
-623.315
-624.117
-624.919
-625.721
-626.522
-627.324
-628.126
-628.927
-629.729
-630.531
-631.332
-632.134
-632.935
-633.736
-634.538
-635.339
-636.14
-636.941
-637.742
-638.543
-639.343
-640.144
-640.944
-641.745
-642.545
-643.345
-644.145
-644.945
-645.745
-646.544
-647.344
-648.143
-648.942
-649.741
-650.54
-651.339
-652.137
-652.936
-653.734
-654.532
-655.329
-656.127
-656.924
-657.721
-658.518
-659.315
-660.111
-660.907
-661.703
-662.499
-663.294
-664.09
-664.885
-665.679
-666.474
-667.268
-668.062
-668.855
-669.649
-670.442
-671.235
-672.027
-672.819
-673.611
-674.403
-675.194
-675.985
-676.776
-677.566
-678.356
-679.146
-679.935
-680.724
-681.512
-682.301
-683.088
-683.876
-684.663
-685.45
-686.236
-687.022
-687.808
-688.593
-689.378
-690.162
-690.946
-691.73
-692.513
-693.296
-694.078
-694.86
-695.642
-696.423
-697.203
-697.984
-698.763
-699.542
-700.321
-701.099
-701.877
-702.654
-581.983
-582.777
-583.572
-584.368
-585.163
-585.959
-586.755
-587.551
-588.347
-589.144
-589.941
-590.738
-591.535
-592.332
-593.13
-593.928
-594.726
-595.524
-596.323
-597.121
-597.92
-598.719
-599.518
-600.317
-601.117
-601.916
-602.716
-603.516
-604.316
-605.116
-605.916
-606.717
-607.517
-608.318
-609.119
-609.919
-610.72
-611.521
-612.322
-613.124
-613.925
-614.726
-615.527
-616.329
-617.13
-617.932
-618.734
-619.535
-620.337
-621.139
-621.94
-622.742
-623.544
-624.346
-625.148
-625.949
-626.751
-627.553
-628.355
-629.157
-629.958
-630.76
-631.562
-632.364
-633.165
-633.967
-634.769
-635.57
-636.371
-637.173
-637.974
-638.775
-639.577
-640.378
-641.179
-641.98
-642.78
-643.581
-644.382
-645.182
-645.983
-646.783
-647.583
-648.383
-649.183
-649.983
-650.782
-651.582
-652.381
-653.18
-653.979
-654.778
-655.577
-656.375
-657.173
-657.972
-658.769
-659.567
-660.365
-661.162
-661.959
-662.756
-663.552
-664.349
-665.145
-665.941
-666.737
-667.532
-668.327
-669.122
-669.917
-670.712
-671.506
-672.3
-673.093
-673.887
-674.68
-675.473
-676.265
-677.057
-677.849
-678.641
-679.432
-680.223
-681.014
-681.804
-682.594
-683.383
-684.173
-684.962
-685.75
-686.538
-687.326
-688.114
-688.901
-689.688
-690.474
-691.26
-692.046
-692.831
-693.616
-694.4
-695.184
-695.968
-696.751
-697.534
-698.316
-699.098
-699.88
-700.661
-701.441
-702.221
-703.001
-703.78
-704.559
-705.337
-706.115
-706.892
-586.221
-587.015
-587.81
-588.606
-589.401
-590.197
-590.993
-591.789
-592.585
-593.382
-594.179
-594.976
-595.773
-596.57
-597.368
-598.166
-598.964
-599.762
-600.561
-601.359
-602.158
-602.957
-603.756
-604.555
-605.355
-606.154
-606.954
-607.754
-608.554
-609.354
-610.154
-610.955
-611.755
-612.556
-613.356
-614.157
-614.958
-615.759
-616.56
-617.361
-618.163
-618.964
-619.765
-620.567
-621.368
-622.17
-622.972
-623.773
-624.575
-625.377
-626.178
-626.98
-627.782
-628.584
-629.386
-630.187
-630.989
-631.791
-632.593
-633.395
-634.196
-634.998
-635.8
-636.602
-637.403
-638.205
-639.006
-639.808
-640.609
-641.411
-642.212
-643.013
-643.815
-644.616
-645.417
-646.218
-647.018
-647.819
-648.62
-649.42
-650.221
-651.021
-651.821
-652.621
-653.421
-654.221
-655.02
-655.82
-656.619
-657.418
-658.217
-659.016
-659.815
-660.613
-661.411
-662.209
-663.007
-663.805
-664.603
-665.4
-666.197
-666.994
-667.79
-668.587
-669.383
-670.179
-670.975
-671.77
-672.565
-673.36
-674.155
-674.95
-675.744
-676.538
-677.331
-678.125
-678.918
-679.71
-680.503
-681.295
-682.087
-682.879
-683.67
-684.461
-685.251
-686.042
-686.832
-687.621
-688.411
-689.199
-689.988
-690.776
-691.564
-692.352
-693.139
-693.926
-694.712
-695.498
-696.284
-697.069
-697.854
-698.638
-699.422
-700.206
-700.989
-701.772
-702.554
-703.336
-704.117
-704.898
-705.679
-706.459
-707.239
-708.018
-708.797
-709.575
-710.353
-711.13
-711.907
-589.665
-590.459
-591.253
-592.048
-592.844
-593.639
-594.435
-595.231
-596.027
-596.823
-597.62
-598.417
-599.214
-600.011
-600.808
-601.606
-602.404
-603.202
-604
-604.799
-605.597
-606.396
-607.195
-607.994
-608.793
-609.593
-610.392
-611.192
-611.992
-612.792
-613.592
-614.392
-615.193
-615.993
-616.794
-617.594
-618.395
-619.196
-619.997
-620.798
-621.599
-622.401
-623.202
-624.003
-624.805
-625.606
-626.408
-627.209
-628.011
-628.813
-629.614
-630.416
-631.218
-632.02
-632.822
-633.623
-634.425
-635.227
-636.029
-636.831
-637.633
-638.434
-639.236
-640.038
-640.84
-641.641
-642.443
-643.244
-644.046
-644.847
-645.649
-646.45
-647.251
-648.052
-648.854
-649.655
-650.455
-651.256
-652.057
-652.858
-653.658
-654.459
-655.259
-656.059
-656.859
-657.659
-658.459
-659.258
-660.058
-660.857
-661.656
-662.455
-663.254
-664.052
-664.851
-665.649
-666.447
-667.245
-668.043
-668.84
-669.638
-670.435
-671.232
-672.028
-672.825
-673.621
-674.417
-675.213
-676.008
-676.803
-677.598
-678.393
-679.187
-679.982
-680.776
-681.569
-682.363
-683.156
-683.948
-684.741
-685.533
-686.325
-687.116
-687.908
-688.699
-689.489
-690.28
-691.07
-691.859
-692.648
-693.437
-694.226
-695.014
-695.802
-696.59
-697.377
-698.163
-698.95
-699.736
-700.521
-701.307
-702.091
-702.876
-703.66
-704.444
-705.227
-706.009
-706.792
-707.574
-708.355
-709.136
-709.917
-710.697
-711.477
-712.256
-713.034
-713.813
-714.59
-715.368
-716.144
-716.921
-593.902
-594.697
-595.491
-596.286
-597.082
-597.877
-598.673
-599.469
-600.265
-601.061
-601.858
-602.655
-603.452
-604.249
-605.046
-605.844
-606.642
-607.44
-608.238
-609.037
-609.835
-610.634
-611.433
-612.232
-613.031
-613.831
-614.63
-615.43
-616.23
-617.03
-617.83
-618.63
-619.431
-620.231
-621.032
-621.832
-622.633
-623.434
-624.235
-625.036
-625.837
-626.639
-627.44
-628.241
-629.043
-629.844
-630.646
-631.447
-632.249
-633.051
-633.852
-634.654
-635.456
-636.258
-637.06
-637.861
-638.663
-639.465
-640.267
-641.069
-641.87
-642.672
-643.474
-644.276
-645.077
-645.879
-646.681
-647.482
-648.284
-649.085
-649.887
-650.688
-651.489
-652.29
-653.091
-653.892
-654.693
-655.494
-656.295
-657.096
-657.896
-658.696
-659.497
-660.297
-661.097
-661.897
-662.697
-663.496
-664.296
-665.095
-665.894
-666.693
-667.492
-668.29
-669.089
-669.887
-670.685
-671.483
-672.281
-673.078
-673.876
-674.673
-675.47
-676.266
-677.063
-677.859
-678.655
-679.45
-680.246
-681.041
-681.836
-682.631
-683.425
-684.22
-685.013
-685.807
-686.6
-687.393
-688.186
-688.979
-689.771
-690.563
-691.354
-692.146
-692.937
-693.727
-694.517
-695.307
-696.097
-696.886
-697.675
-698.464
-699.252
-700.04
-700.827
-701.615
-702.401
-703.188
-703.974
-704.759
-705.545
-706.329
-707.114
-707.898
-708.681
-709.465
-710.247
-711.03
-711.812
-712.593
-713.374
-714.155
-714.935
-715.714
-716.494
-717.272
-718.05
-718.828
-719.605
-720.382
-721.158
-721.934
-598.14
-598.935
-599.729
-600.524
-601.319
-602.115
-602.911
-603.706
-604.503
-605.299
-606.096
-606.892
-607.689
-608.487
-609.284
-610.082
-610.88
-611.678
-612.476
-613.274
-614.073
-614.872
-615.671
-616.47
-617.269
-618.069
-618.868
-619.668
-620.468
-621.268
-622.068
-622.868
-623.668
-624.469
-625.27
-626.07
-626.871
-627.672
-628.473
-629.274
-630.075
-630.876
-631.678
-632.479
-633.281
-634.082
-634.884
-635.685
-636.487
-637.289
-638.09
-638.892
-639.694
-640.496
-641.297
-642.099
-642.901
-643.703
-644.505
-645.307
-646.108
-646.91
-647.712
-648.514
-649.315
-650.117
-650.919
-651.72
-652.522
-653.323
-654.125
-654.926
-655.727
-656.528
-657.329
-658.13
-658.931
-659.732
-660.533
-661.333
-662.134
-662.934
-663.735
-664.535
-665.335
-666.135
-666.934
-667.734
-668.533
-669.333
-670.132
-670.931
-671.73
-672.528
-673.327
-674.125
-674.923
-675.721
-676.519
-677.316
-678.113
-678.911
-679.707
-680.504
-681.301
-682.097
-682.893
-683.688
-684.484
-685.279
-686.074
-686.869
-687.663
-688.457
-689.251
-690.045
-690.838
-691.631
-692.424
-693.217
-694.009
-694.801
-695.592
-696.384
-697.174
-697.965
-698.755
-699.545
-700.335
-701.124
-701.913
-702.702
-703.49
-704.278
-705.065
-705.852
-706.639
-707.426
-708.212
-708.997
-709.782
-710.567
-711.352
-712.136
-712.919
-713.702
-714.485
-715.268
-716.049
-716.831
-717.612
-718.392
-719.173
-719.952
-720.731
-721.51
-722.288
-723.066
-723.843
-724.62
-725.396
-726.172
-602.378
-603.173
-603.967
-604.762
-605.557
-606.353
-607.149
-607.944
-608.741
-609.537
-610.334
-611.13
-611.927
-612.725
-613.522
-614.32
-615.118
-615.916
-616.714
-617.512
-618.311
-619.11
-619.909
-620.708
-621.507
-622.307
-623.106
-623.906
-624.706
-625.506
-626.306
-627.106
-627.906
-628.707
-629.508
-630.308
-631.109
-631.91
-632.711
-633.512
-634.313
-635.114
-635.916
-636.717
-637.519
-638.32
-639.122
-639.923
-640.725
-641.527
-642.328
-643.13
-643.932
-644.734
-645.535
-646.337
-647.139
-647.941
-648.743
-649.545
-650.346
-651.148
-651.95
-652.752
-653.553
-654.355
-655.157
-655.958
-656.76
-657.561
-658.362
-659.164
-659.965
-660.766
-661.567
-662.368
-663.169
-663.97
-664.771
-665.571
-666.372
-667.172
-667.973
-668.773
-669.573
-670.373
-671.172
-671.972
-672.771
-673.571
-674.37
-675.169
-675.968
-676.766
-677.565
-678.363
-679.161
-679.959
-680.757
-681.554
-682.351
-683.148
-683.945
-684.742
-685.538
-686.335
-687.131
-687.926
-688.722
-689.517
-690.312
-691.107
-691.901
-692.695
-693.489
-694.283
-695.076
-695.869
-696.662
-697.455
-698.247
-699.039
-699.83
-700.621
-701.412
-702.203
-702.993
-703.783
-704.573
-705.362
-706.151
-706.94
-707.728
-708.516
-709.303
-710.09
-710.877
-711.663
-712.449
-713.235
-714.02
-714.805
-715.589
-716.373
-717.157
-717.94
-718.723
-719.505
-720.287
-721.069
-721.85
-722.63
-723.41
-724.19
-724.969
-725.748
-726.526
-727.304
-728.081
-728.858
-729.634
-730.41
-731.185
-606.616
-607.411
-608.205
-609
-609.795
-610.591
-611.386
-612.182
-612.979
-613.775
-614.572
-615.368
-616.165
-616.963
-617.76
-618.558
-619.356
-620.154
-620.952
-621.75
-622.549
-623.348
-624.147
-624.946
-625.745
-626.544
-627.344
-628.144
-628.944
-629.744
-630.544
-631.344
-632.144
-632.945
-633.745
-634.546
-635.347
-636.148
-636.949
-637.75
-638.551
-639.352
-640.154
-640.955
-641.756
-642.558
-643.36
-644.161
-644.963
-645.764
-646.566
-647.368
-648.17
-648.972
-649.773
-650.575
-651.377
-652.179
-652.981
-653.782
-654.584
-655.386
-656.188
-656.989
-657.791
-658.593
-659.394
-660.196
-660.998
-661.799
-662.6
-663.402
-664.203
-665.004
-665.805
-666.606
-667.407
-668.208
-669.009
-669.809
-670.61
-671.41
-672.21
-673.011
-673.811
-674.61
-675.41
-676.21
-677.009
-677.809
-678.608
-679.407
-680.205
-681.004
-681.803
-682.601
-683.399
-684.197
-684.995
-685.792
-686.589
-687.386
-688.183
-688.98
-689.776
-690.572
-691.368
-692.164
-692.96
-693.755
-694.55
-695.345
-696.139
-696.933
-697.727
-698.521
-699.314
-700.107
-700.9
-701.692
-702.485
-703.276
-704.068
-704.859
-705.65
-706.441
-707.231
-708.021
-708.811
-709.6
-710.389
-711.177
-711.966
-712.754
-713.541
-714.328
-715.115
-715.901
-716.687
-717.473
-718.258
-719.043
-719.827
-720.611
-721.395
-722.178
-722.961
-723.743
-724.525
-725.307
-726.088
-726.868
-727.648
-728.428
-729.207
-729.986
-730.764
-731.542
-732.319
-733.096
-733.872
-734.648
-735.423
-736.197
-610.854