/*--------------------------------*- C++ -*----------------------------------*\
| =========                 |                                                 |
| \\      /  F ield         | OpenFOAM: The Open Source CFD Toolbox           |
|  \\    /   O peration     | Version:  2512                                  |
|   \\  /    A nd           | Website:  www.openfoam.com                      |
|    \\/     M anipulation  |                                                 |
\*---------------------------------------------------------------------------*/
FoamFile
{
    version     2.0;
    format      ascii;
    arch        "LSB;label=32;scalar=64";
    class       volScalarField;
    location    "0.1";
    object      pB;
}
// * * * * * * * * * * * * * * * * * * * * * * * * * * * * * * * * * * * * * //

dimensions      [1 1 -3 0 0 -1 0];

internalField   nonuniform List<scalar> 
8333
(
5.83774
5.84737
5.85702
5.86666
5.87629
5.88589
5.89548
5.90505
5.91461
5.92415
5.93368
5.9432
5.95271
5.96221
5.97171
5.98121
5.9907
6.00018
6.00967
6.01915
6.02864
6.03812
6.04761
6.05709
6.06657
6.07606
6.08554
6.09503
6.10452
6.114
6.12349
6.13298
6.14247
6.15196
6.16145
6.17094
6.18043
6.18992
6.19941
6.2089
6.21839
6.22789
6.23738
6.24687
6.25636
6.26585
6.27534
6.28483
6.29431
6.3038
6.31329
6.32277
6.33226
6.34174
6.35122
6.3607
6.37018
6.37966
6.38914
6.39861
6.40809
6.41756
6.42703
6.4365
6.44596
6.45543
6.46489
6.47435
6.48381
6.49326
6.50272
6.51217
6.52162
6.53106
6.54051
6.54995
6.55938
6.56882
6.57825
6.58768
6.5971
6.60652
6.61593
6.62535
6.63475
6.64416
6.65356
6.66295
6.67234
6.68172
6.6911
6.70047
6.70984
6.71919
6.72855
6.73789
6.74723
6.75655
6.76587
6.77518
6.78448
6.79377
6.80305
6.81232
6.82157
6.83081
6.84004
6.84926
6.85846
6.86765
6.87682
6.88597
6.8951
6.90421
6.9133
6.92237
6.93142
6.94044
6.94945
6.95842
6.96737
6.9763
6.98519
6.99406
7.0029
7.01171
7.02049
7.02925
7.03797
7.04667
7.05534
7.06398
7.0726
7.08119
7.08976
7.09832
7.10686
7.11539
7.12391
7.13243
7.14094
7.14946
7.15798
7.1665
7.17503
7.18355
7.19204
7.20047
6.25211
6.26347
6.27485
6.2862
6.29753
6.30883
6.3201
6.33134
6.34256
6.35376
6.36494
6.37611
6.38726
6.3984
6.40954
6.42067
6.43179
6.44291
6.45403
6.46514
6.47625
6.48736
6.49847
6.50958
6.52069
6.5318
6.5429
6.55401
6.56512
6.57623
6.58733
6.59844
6.60954
6.62065
6.63175
6.64286
6.65396
6.66506
6.67615
6.68725
6.69835
6.70944
6.72053
6.73161
6.7427
6.75378
6.76486
6.77594
6.78701
6.79808
6.80914
6.8202
6.83126
6.84232
6.85337
6.86441
6.87545
6.88649
6.89752
6.90855
6.91957
6.93059
6.9416
6.95261
6.96361
6.97461
6.9856
6.99658
7.00757
7.01854
7.02951
7.04047
7.05143
7.06238
7.07333
7.08427
7.0952
7.10613
7.11705
7.12796
7.13887
7.14977
7.16066
7.17154
7.18242
7.19329
7.20416
7.21501
7.22586
7.2367
7.24753
7.25836
7.26917
7.27998
7.29078
7.30157
7.31235
7.32311
7.33387
7.34462
7.35536
7.36609
7.37681
7.38751
7.39821
7.40889
7.41956
7.43021
7.44086
7.45149
7.46211
7.47271
7.48329
7.49386
7.50442
7.51496
7.52548
7.53598
7.54647
7.55694
7.56739
7.57782
7.58824
7.59863
7.60901
7.61937
7.62971
7.64004
7.65035
7.66065
7.67093
7.6812
7.69147
7.70172
7.71197
7.72222
7.73247
7.74273
7.753
7.76328
7.77357
7.78389
7.79423
7.80459
7.81498
7.82538
7.83581
7.8462
7.85656
6.66578
6.67889
6.69199
6.70506
6.71809
6.73107
6.74401
6.75693
6.7698
6.78266
6.79549
6.8083
6.82109
6.83387
6.84664
6.8594
6.87215
6.8849
6.89764
6.91038
6.92311
6.93585
6.94858
6.96131
6.97404
6.98677
6.9995
7.01223
7.02495
7.03768
7.0504
7.06312
7.07584
7.08856
7.10127
7.11398
7.12669
7.1394
7.1521
7.1648
7.17749
7.19019
7.20287
7.21555
7.22823
7.2409
7.25357
7.26623
7.27888
7.29153
7.30417
7.31681
7.32943
7.34206
7.35467
7.36728
7.37988
7.39247
7.40505
7.41763
7.4302
7.44276
7.45531
7.46786
7.48039
7.49292
7.50544
7.51795
7.53045
7.54294
7.55542
7.5679
7.58036
7.59282
7.60526
7.6177
7.63012
7.64254
7.65494
7.66734
7.67973
7.6921
7.70447
7.71683
7.72917
7.74151
7.75384
7.76615
7.77846
7.79075
7.80304
7.81531
7.82758
7.83983
7.85207
7.8643
7.87652
7.88873
7.90093
7.91311
7.92529
7.93745
7.94961
7.96175
7.97388
7.986
7.9981
8.0102
8.02229
8.03436
8.04642
8.05847
8.07051
8.08254
8.09455
8.10655
8.11854
8.13053
8.1425
8.15446
8.16641
8.17835
8.19028
8.2022
8.21411
8.22602
8.23792
8.24982
8.26171
8.27361
8.2855
8.2974
8.30931
8.32122
8.33315
8.34509
8.35705
8.36903
8.38104
8.39308
8.40516
8.41728
8.42944
8.44164
8.45389
8.46618
8.47854
8.4909
8.50327
8.51533
7.07845
7.09329
7.10811
7.12289
7.13761
7.15227
7.16689
7.18147
7.196
7.2105
7.22498
7.23942
7.25385
7.26826
7.28266
7.29705
7.31143
7.3258
7.34016
7.35452
7.36888
7.38323
7.39759
7.41193
7.42628
7.44063
7.45497
7.46931
7.48365
7.49799
7.51232
7.52666
7.54099
7.55531
7.56963
7.58395
7.59826
7.61257
7.62688
7.64117
7.65546
7.66975
7.68403
7.6983
7.71256
7.72682
7.74107
7.75531
7.76954
7.78377
7.79798
7.81219
7.82638
7.84057
7.85474
7.86891
7.88306
7.89721
7.91134
7.92546
7.93957
7.95367
7.96776
7.98184
7.9959
8.00996
8.024
8.03803
8.05204
8.06605
8.08004
8.09402
8.10799
8.12194
8.13588
8.14981
8.16373
8.17763
8.19152
8.2054
8.21926
8.23311
8.24695
8.26077
8.27458
8.28838
8.30217
8.31594
8.3297
8.34344
8.35718
8.3709
8.3846
8.3983
8.41198
8.42565
8.43931
8.45295
8.46659
8.48021
8.49381
8.50741
8.521
8.53457
8.54813
8.56168
8.57523
8.58876
8.60228
8.61579
8.6293
8.64279
8.65628
8.66976
8.68323
8.69669
8.71015
8.72361
8.73706
8.7505
8.76395
8.77739
8.79084
8.80428
8.81772
8.83117
8.84463
8.8581
8.87157
8.88506
8.89856
8.91209
8.92563
8.9392
8.9528
8.96643
8.98009
8.9938
9.00755
9.02135
9.0352
9.04912
9.06309
9.07713
9.09124
9.10542
9.11969
9.134
9.14832
9.16237
9.17596
7.48978
7.50636
7.5229
7.53938
7.55579
7.57212
7.58841
7.60464
7.62082
7.63696
7.65308
7.66916
7.68522
7.70125
7.71728
7.73329
7.74928
7.76527
7.78125
7.79723
7.8132
7.82917
7.84514
7.8611
7.87706
7.89301
7.90897
7.92492
7.94087
7.95681
7.97276
7.98869
8.00463
8.02056
8.03648
8.0524
8.06831
8.08421
8.10011
8.116
8.13189
8.14776
8.16363
8.17948
8.19533
8.21117
8.22699
8.24281
8.25862
8.27441
8.29019
8.30596
8.32172
8.33746
8.35319
8.36891
8.38462
8.40031
8.41599
8.43165
8.4473
8.46293
8.47855
8.49416
8.50975
8.52532
8.54088
8.55642
8.57195
8.58746
8.60296
8.61844
8.63391
8.64935
8.66479
8.6802
8.6956
8.71099
8.72636
8.74171
8.75704
8.77236
8.78767
8.80295
8.81822
8.83348
8.84872
8.86394
8.87915
8.89434
8.90952
8.92468
8.93983
8.95496
8.97008
8.98518
9.00027
9.01535
9.03041
9.04546
9.0605
9.07552
9.09053
9.10554
9.12053
9.13551
9.15048
9.16544
9.1804
9.19535
9.21029
9.22522
9.24015
9.25508
9.27
9.28492
9.29985
9.31477
9.32969
9.34462
9.35956
9.3745
9.38945
9.40441
9.41938
9.43437
9.44938
9.46441
9.47946
9.49454
9.50964
9.52478
9.53996
9.55518
9.57044
9.58576
9.60112
9.61655
9.63203
9.64759
9.66321
9.67891
9.6947
9.71057
9.72653
9.74259
9.75876
9.77498
9.79121
9.80721
9.82274
7.89947
7.91777
7.93603
7.9542
7.97228
7.99028
8.00822
8.0261
8.04393
8.06171
8.07945
8.09716
8.11484
8.1325
8.15014
8.16776
8.18537
8.20297
8.22057
8.23815
8.25573
8.27331
8.29088
8.30845
8.32601
8.34357
8.36113
8.37869
8.39624
8.41378
8.43133
8.44886
8.4664
8.48392
8.50144
8.51895
8.53646
8.55395
8.57144
8.58892
8.60639
8.62384
8.64129
8.65873
8.67615
8.69356
8.71096
8.72834
8.74571
8.76307
8.78041
8.79774
8.81506
8.83235
8.84963
8.8669
8.88415
8.90138
8.91859
8.93579
8.95297
8.97013
8.98728
9.0044
9.02151
9.0386
9.05567
9.07273
9.08976
9.10677
9.12377
9.14074
9.1577
9.17464
9.19156
9.20846
9.22533
9.24219
9.25903
9.27585
9.29266
9.30944
9.3262
9.34295
9.35967
9.37638
9.39306
9.40973
9.42639
9.44302
9.45963
9.47623
9.49281
9.50938
9.52592
9.54246
9.55897
9.57547
9.59196
9.60843
9.62489
9.64134
9.65777
9.6742
9.69061
9.70702
9.72341
9.7398
9.75618
9.77256
9.78893
9.8053
9.82167
9.83804
9.85441
9.87078
9.88716
9.90354
9.91994
9.93634
9.95276
9.9692
9.98565
10.0021
10.0186
10.0351
10.0517
10.0683
10.0849
10.1016
10.1183
10.135
10.1518
10.1687
10.1856
10.2026
10.2196
10.2368
10.254
10.2713
10.2887
10.3062
10.3238
10.3415
10.3593
10.3772
10.3952
10.4133
10.4314
10.4493
10.4668
10.4837
8.30718
8.3272
8.34717
8.36702
8.38677
8.40643
8.42601
8.44553
8.46499
8.4844
8.50376
8.52309
8.54238
8.56165
8.5809
8.60013
8.61935
8.63855
8.65775
8.67694
8.69612
8.71529
8.73446
8.75363
8.77279
8.79195
8.81111
8.83026
8.8494
8.86854
8.88768
8.90681
8.92593
8.94504
8.96415
8.98325
9.00234
9.02141
9.04048
9.05954
9.07859
9.09762
9.11664
9.13565
9.15464
9.17362
9.19258
9.21152
9.23045
9.24937
9.26826
9.28714
9.306
9.32485
9.34367
9.36247
9.38126
9.40002
9.41877
9.43749
9.4562
9.47488
9.49354
9.51218
9.5308
9.5494
9.56797
9.58653
9.60506
9.62357
9.64205
9.66052
9.67896
9.69738
9.71578
9.73415
9.7525
9.77083
9.78913
9.80742
9.82568
9.84391
9.86213
9.88032
9.8985
9.91665
9.93478
9.95288
9.97097
9.98904
10.0071
10.0251
10.0431
10.0611
10.0791
10.097
10.115
10.1329
10.1508
10.1687
10.1866
10.2044
10.2223
10.2401
10.2579
10.2758
10.2936
10.3114
10.3292
10.347
10.3648
10.3826
10.4004
10.4182
10.436
10.4538
10.4716
10.4895
10.5073
10.5252
10.5431
10.561
10.579
10.5969
10.6149
10.633
10.6511
10.6692
10.6874
10.7056
10.7239
10.7423
10.7607
10.7792
10.7978
10.8164
10.8352
10.854
10.8729
10.892
10.9111
10.9304
10.9498
10.9693
10.9889
11.0087
11.0286
11.0485
11.0685
11.0883
11.1076
11.1265
11.1449
8.71261
8.73433
8.756
8.77752
8.79892
8.82022
8.84145
8.86259
8.88368
8.9047
8.92567
8.94661
8.96751
8.98838
9.00923
9.03006
9.05087
9.07167
9.09246
9.11324
9.13401
9.15478
9.17554
9.19629
9.21704
9.23779
9.25853
9.27927
9.3
9.32073
9.34144
9.36216
9.38286
9.40355
9.42424
9.44491
9.46558
9.48623
9.50687
9.5275
9.54811
9.56871
9.5893
9.60987
9.63042
9.65095
9.67147
9.69197
9.71245
9.73291
9.75335
9.77377
9.79417
9.81455
9.83491
9.85525
9.87556
9.89585
9.91611
9.93636
9.95658
9.97677
9.99694
10.0171
10.0372
10.0573
10.0774
10.0974
10.1174
10.1374
10.1574
10.1774
10.1973
10.2172
10.237
10.2569
10.2767
10.2965
10.3162
10.336
10.3557
10.3754
10.395
10.4147
10.4343
10.4539
10.4734
10.493
10.5125
10.532
10.5514
10.5709
10.5903
10.6097
10.6291
10.6485
10.6678
10.6871
10.7065
10.7258
10.745
10.7643
10.7836
10.8028
10.822
10.8413
10.8605
10.8797
10.8989
10.9181
10.9374
10.9566
10.9758
10.995
11.0143
11.0335
11.0528
11.0721
11.0914
11.1107
11.1301
11.1495
11.1689
11.1884
11.2079
11.2275
11.2471
11.2668
11.2865
11.3063
11.3262
11.3461
11.3662
11.3863
11.4065
11.4268
11.4472
11.4678
11.4884
11.5092
11.5301
11.5511
11.5722
11.5935
11.615
11.6366
11.6583
11.6801
11.7019
11.7235
11.7447
11.7655
11.7858
9.11541
9.13884
9.16219
9.18536
9.2084
9.23134
9.25419
9.27695
9.29965
9.32228
9.34485
9.36738
9.38988
9.41234
9.43478
9.45719
9.47959
9.50197
9.52434
9.54671
9.56906
9.59141
9.61375
9.63608
9.65841
9.68074
9.70306
9.72537
9.74768
9.76997
9.79227
9.81455
9.83683
9.85909
9.88134
9.90359
9.92582
9.94803
9.97024
9.99242
10.0146
10.0368
10.0589
10.081
10.1031
10.1252
10.1473
10.1693
10.1913
10.2133
10.2353
10.2572
10.2792
10.3011
10.323
10.3448
10.3667
10.3885
10.4102
10.432
10.4537
10.4754
10.4971
10.5187
10.5403
10.5619
10.5835
10.605
10.6265
10.648
10.6694
10.6908
10.7122
10.7336
10.7549
10.7762
10.7975
10.8187
10.8399
10.8611
10.8822
10.9034
10.9245
10.9455
10.9666
10.9876
11.0086
11.0295
11.0505
11.0714
11.0923
11.1131
11.134
11.1548
11.1756
11.1963
11.2171
11.2378
11.2585
11.2792
11.2999
11.3206
11.3412
11.3619
11.3825
11.4031
11.4238
11.4444
11.465
11.4856
11.5062
11.5269
11.5475
11.5681
11.5888
11.6095
11.6302
11.6509
11.6717
11.6924
11.7133
11.7341
11.755
11.776
11.797
11.8181
11.8392
11.8604
11.8817
11.9031
11.9245
11.946
11.9677
11.9894
12.0113
12.0332
12.0553
12.0775
12.0998
12.1223
12.145
12.1677
12.1906
12.2137
12.237
12.2604
12.2839
12.3075
12.3311
12.3545
12.3776
12.4002
12.4224
12.4439
9.51528
9.54041
9.56541
9.59023
9.61489
9.63945
9.66391
9.68828
9.71257
9.73679
9.76096
9.78507
9.80915
9.83319
9.8572
9.88119
9.90516
9.92912
9.95306
9.977
10.0009
10.0248
10.0487
10.0726
10.0965
10.1204
10.1443
10.1682
10.1921
10.2159
10.2398
10.2636
10.2875
10.3113
10.3351
10.3589
10.3827
10.4064
10.4302
10.4539
10.4777
10.5014
10.525
10.5487
10.5723
10.596
10.6196
10.6431
10.6667
10.6902
10.7137
10.7372
10.7606
10.784
10.8074
10.8308
10.8541
10.8774
10.9007
10.924
10.9472
10.9704
10.9935
11.0167
11.0398
11.0628
11.0859
11.1089
11.1318
11.1548
11.1777
11.2005
11.2234
11.2462
11.269
11.2917
11.3144
11.3371
11.3598
11.3824
11.4049
11.4275
11.45
11.4725
11.495
11.5174
11.5398
11.5622
11.5845
11.6068
11.6291
11.6514
11.6736
11.6958
11.718
11.7402
11.7623
11.7844
11.8065
11.8286
11.8507
11.8728
11.8948
11.9168
11.9388
11.9609
11.9829
12.0049
12.0269
12.0489
12.0709
12.093
12.115
12.137
12.1591
12.1812
12.2033
12.2255
12.2477
12.2699
12.2922
12.3145
12.3369
12.3593
12.3818
12.4044
12.427
12.4497
12.4725
12.4954
12.5184
12.5415
12.5648
12.5881
12.6116
12.6352
12.6589
12.6828
12.7068
12.731
12.7553
12.7798
12.8045
12.8293
12.8544
12.8795
12.9049
12.9303
12.9556
12.9808
13.0057
13.0302
13.0542
13.0776
13.1004
9.9119
9.9387
9.96535
9.99179
10.0181
10.0442
10.0703
10.0962
10.1221
10.1479
10.1737
10.1993
10.225
10.2506
10.2762
10.3017
10.3272
10.3528
10.3783
10.4038
10.4292
10.4547
10.4802
10.5056
10.5311
10.5565
10.582
10.6074
10.6328
10.6582
10.6836
10.709
10.7344
10.7598
10.7851
10.8105
10.8358
10.8611
10.8864
10.9117
10.9369
10.9622
10.9874
11.0126
11.0377
11.0629
11.088
11.1131
11.1381
11.1632
11.1882
11.2132
11.2381
11.263
11.2879
11.3128
11.3376
11.3624
11.3872
11.4119
11.4366
11.4613
11.4859
11.5105
11.5351
11.5596
11.5841
11.6086
11.633
11.6574
11.6818
11.7061
11.7304
11.7546
11.7788
11.803
11.8272
11.8513
11.8753
11.8994
11.9234
11.9473
11.9713
11.9952
12.019
12.0429
12.0667
12.0904
12.1142
12.1379
12.1616
12.1852
12.2088
12.2324
12.256
12.2796
12.3031
12.3266
12.3501
12.3735
12.397
12.4204
12.4438
12.4672
12.4906
12.514
12.5374
12.5608
12.5842
12.6076
12.631
12.6544
12.6778
12.7013
12.7248
12.7483
12.7718
12.7954
12.819
12.8426
12.8663
12.8901
12.9139
12.9378
12.9618
12.9858
13.01
13.0342
13.0585
13.083
13.1075
13.1322
13.157
13.1819
13.207
13.2322
13.2576
13.2831
13.3088
13.3347
13.3607
13.3869
13.4133
13.4399
13.4667
13.4936
13.5207
13.5478
13.575
13.6019
13.6286
13.6549
13.6806
13.7059
13.7305
13.7545
10.3049
10.3334
10.3617
10.3897
10.4176
10.4453
10.473
10.5005
10.5279
10.5553
10.5826
10.6098
10.637
10.6642
10.6913
10.7184
10.7455
10.7726
10.7996
10.8266
10.8537
10.8807
10.9077
10.9347
10.9617
10.9887
11.0156
11.0426
11.0696
11.0965
11.1234
11.1504
11.1773
11.2042
11.2311
11.2579
11.2848
11.3116
11.3384
11.3652
11.392
11.4188
11.4455
11.4722
11.4989
11.5255
11.5522
11.5788
11.6053
11.6319
11.6584
11.6848
11.7113
11.7377
11.7641
11.7904
11.8167
11.843
11.8693
11.8955
11.9216
11.9478
11.9739
11.9999
12.0259
12.0519
12.0779
12.1038
12.1297
12.1555
12.1813
12.207
12.2328
12.2584
12.2841
12.3097
12.3352
12.3607
12.3862
12.4117
12.4371
12.4625
12.4878
12.5131
12.5383
12.5636
12.5888
12.6139
12.639
12.6641
12.6892
12.7142
12.7392
12.7642
12.7891
12.814
12.8389
12.8638
12.8887
12.9135
12.9383
12.9631
12.9879
13.0126
13.0374
13.0622
13.0869
13.1117
13.1364
13.1612
13.186
13.2108
13.2356
13.2604
13.2853
13.3102
13.3351
13.3601
13.3851
13.4102
13.4353
13.4605
13.4857
13.5111
13.5365
13.562
13.5876
13.6134
13.6392
13.6652
13.6912
13.7174
13.7438
13.7703
13.797
13.8238
13.8508
13.8779
13.9053
13.9328
13.9605
13.9885
14.0166
14.0449
14.0734
14.1021
14.1309
14.1598
14.1886
14.2173
14.2457
14.2738
14.3013
14.3283
14.3547
14.3805
10.6941
10.7242
10.7541
10.7837
10.8131
10.8424
10.8716
10.9007
10.9297
10.9586
10.9875
11.0162
11.045
11.0737
11.1023
11.131
11.1596
11.1882
11.2167
11.2453
11.2738
11.3024
11.3309
11.3594
11.388
11.4165
11.445
11.4735
11.5019
11.5304
11.5589
11.5873
11.6157
11.6442
11.6726
11.7009
11.7293
11.7577
11.786
11.8143
11.8426
11.8708
11.899
11.9273
11.9554
11.9836
12.0117
12.0398
12.0678
12.0959
12.1238
12.1518
12.1797
12.2076
12.2355
12.2633
12.2911
12.3188
12.3465
12.3742
12.4018
12.4294
12.4569
12.4844
12.5119
12.5393
12.5667
12.594
12.6213
12.6486
12.6758
12.703
12.7301
12.7572
12.7843
12.8113
12.8382
12.8651
12.892
12.9189
12.9457
12.9724
12.9992
13.0258
13.0525
13.0791
13.1056
13.1322
13.1587
13.1851
13.2115
13.2379
13.2643
13.2906
13.3169
13.3432
13.3694
13.3957
13.4219
13.448
13.4742
13.5004
13.5265
13.5526
13.5787
13.6048
13.6309
13.657
13.6832
13.7093
13.7354
13.7616
13.7877
13.8139
13.8402
13.8664
13.8928
13.9191
13.9455
13.972
13.9985
14.0252
14.0518
14.0786
14.1055
14.1325
14.1595
14.1867
14.2141
14.2415
14.2691
14.2969
14.3248
14.3528
14.3811
14.4095
14.4381
14.4668
14.4958
14.525
14.5544
14.584
14.6138
14.6438
14.674
14.7044
14.7349
14.7655
14.7961
14.8265
14.8566
14.8864
14.9157
14.9444
14.9725
15
15.0268
11.079
11.1107
11.1422
11.1733
11.2043
11.2352
11.266
11.2966
11.3271
11.3575
11.3879
11.4182
11.4485
11.4787
11.5089
11.539
11.5691
11.5992
11.6293
11.6594
11.6894
11.7195
11.7495
11.7796
11.8096
11.8396
11.8696
11.8996
11.9296
11.9596
11.9895
12.0195
12.0494
12.0793
12.1092
12.1391
12.169
12.1988
12.2286
12.2584
12.2882
12.3179
12.3476
12.3773
12.407
12.4366
12.4662
12.4958
12.5253
12.5548
12.5843
12.6137
12.6431
12.6724
12.7017
12.731
12.7602
12.7894
12.8185
12.8476
12.8767
12.9057
12.9347
12.9636
12.9925
13.0214
13.0502
13.0789
13.1076
13.1363
13.1649
13.1935
13.2221
13.2505
13.279
13.3074
13.3357
13.364
13.3923
13.4205
13.4487
13.4768
13.5049
13.533
13.561
13.589
13.6169
13.6448
13.6726
13.7004
13.7282
13.7559
13.7836
13.8113
13.839
13.8666
13.8942
13.9217
13.9493
13.9768
14.0043
14.0318
14.0592
14.0867
14.1141
14.1416
14.169
14.1965
14.2239
14.2514
14.2789
14.3064
14.3339
14.3614
14.389
14.4167
14.4443
14.4721
14.4999
14.5277
14.5557
14.5837
14.6118
14.64
14.6683
14.6967
14.7252
14.7539
14.7827
14.8116
14.8407
14.8699
14.8994
14.929
14.9588
14.9887
15.0189
15.0493
15.0799
15.1107
15.1417
15.173
15.2045
15.2362
15.268
15.3001
15.3323
15.3646
15.3968
15.4289
15.4607
15.4922
15.5232
15.5536
15.5835
15.6126
15.6411
15.6688
11.4595
11.4927
11.5257
11.5584
11.5909
11.6233
11.6556
11.6877
11.7198
11.7517
11.7836
11.8154
11.8472
11.8789
11.9105
11.9422
11.9738
12.0054
12.037
12.0686
12.1001
12.1316
12.1632
12.1947
12.2262
12.2577
12.2892
12.3207
12.3522
12.3836
12.4151
12.4465
12.4779
12.5093
12.5407
12.5721
12.6034
12.6347
12.666
12.6973
12.7285
12.7597
12.7909
12.8221
12.8532
12.8843
12.9153
12.9463
12.9773
13.0083
13.0392
13.0701
13.1009
13.1317
13.1624
13.1931
13.2238
13.2544
13.285
13.3155
13.346
13.3764
13.4068
13.4372
13.4675
13.4977
13.5279
13.5581
13.5882
13.6182
13.6483
13.6782
13.7081
13.738
13.7678
13.7976
13.8273
13.857
13.8866
13.9162
13.9458
13.9753
14.0047
14.0341
14.0635
14.0928
14.122
14.1513
14.1805
14.2096
14.2387
14.2678
14.2968
14.3258
14.3548
14.3837
14.4126
14.4415
14.4704
14.4992
14.528
14.5568
14.5856
14.6144
14.6432
14.6719
14.7007
14.7295
14.7583
14.787
14.8159
14.8447
14.8735
14.9024
14.9314
14.9603
14.9894
15.0185
15.0476
15.0768
15.1061
15.1355
15.165
15.1946
15.2243
15.2542
15.2841
15.3142
15.3445
15.3749
15.4055
15.4362
15.4671
15.4983
15.5296
15.5611
15.5929
15.6248
15.657
15.6894
15.7221
15.755
15.7881
15.8214
15.855
15.8887
15.9225
15.9565
15.9903
16.0241
16.0576
16.0907
16.1234
16.1555
16.187
16.2178
16.248
16.2773
11.835
11.8698
11.9042
11.9385
11.9725
12.0064
12.0402
12.0739
12.1074
12.1408
12.1742
12.2075
12.2407
12.2739
12.3071
12.3402
12.3733
12.4064
12.4394
12.4724
12.5055
12.5385
12.5715
12.6045
12.6375
12.6704
12.7034
12.7364
12.7693
12.8022
12.8351
12.868
12.9009
12.9338
12.9666
12.9995
13.0323
13.065
13.0978
13.1305
13.1632
13.1959
13.2285
13.2611
13.2936
13.3262
13.3587
13.3911
13.4235
13.4559
13.4883
13.5206
13.5528
13.585
13.6172
13.6493
13.6814
13.7134
13.7454
13.7773
13.8092
13.8411
13.8728
13.9046
13.9363
13.9679
13.9995
14.031
14.0625
14.094
14.1254
14.1567
14.188
14.2192
14.2504
14.2815
14.3126
14.3436
14.3746
14.4056
14.4364
14.4673
14.498
14.5288
14.5595
14.5901
14.6207
14.6513
14.6818
14.7122
14.7427
14.7731
14.8034
14.8337
14.864
14.8942
14.9245
14.9547
14.9848
15.015
15.0451
15.0752
15.1053
15.1353
15.1654
15.1955
15.2256
15.2556
15.2857
15.3158
15.3459
15.3761
15.4062
15.4365
15.4667
15.497
15.5274
15.5578
15.5883
15.6189
15.6496
15.6803
15.7112
15.7422
15.7733
15.8045
15.8359
15.8674
15.8991
15.9309
15.963
15.9952
16.0276
16.0602
16.0931
16.1261
16.1594
16.1929
16.2267
16.2607
16.295
16.3294
16.3642
16.3991
16.4343
16.4697
16.5051
16.5407
16.5762
16.6116
16.6467
16.6814
16.7157
16.7495
16.7827
16.8151
16.8469
16.8779
16.908
12.169
12.2054
12.2416
12.2776
12.3133
12.3488
12.3842
12.4195
12.4546
12.4896
12.5245
12.5594
12.5941
12.6288
12.6635
12.6981
12.7326
12.7672
12.8017
12.8362
12.8707
12.9052
12.9397
12.9741
13.0086
13.043
13.0774
13.1118
13.1462
13.1806
13.215
13.2494
13.2837
13.318
13.3524
13.3866
13.4209
13.4551
13.4893
13.5235
13.5577
13.5918
13.6259
13.66
13.694
13.728
13.7619
13.7958
13.8297
13.8636
13.8973
13.9311
13.9648
13.9985
14.0321
14.0656
14.0992
14.1326
14.166
14.1994
14.2327
14.266
14.2992
14.3324
14.3655
14.3986
14.4316
14.4645
14.4974
14.5303
14.5631
14.5958
14.6285
14.6612
14.6937
14.7263
14.7587
14.7911
14.8235
14.8558
14.8881
14.9203
14.9524
14.9845
15.0166
15.0486
15.0805
15.1124
15.1443
15.1761
15.2079
15.2396
15.2713
15.3029
15.3345
15.3661
15.3977
15.4292
15.4606
15.4921
15.5235
15.5549
15.5863
15.6177
15.649
15.6804
15.7117
15.7431
15.7745
15.8058
15.8372
15.8686
15.9001
15.9315
15.9631
15.9946
16.0262
16.0579
16.0897
16.1215
16.1534
16.1854
16.2175
16.2497
16.2821
16.3145
16.3472
16.3799
16.4129
16.446
16.4792
16.5127
16.5464
16.5803
16.6144
16.6487
16.6833
16.7181
16.7531
16.7884
16.824
16.8598
16.8959
16.9322
16.9688
17.0055
17.0425
17.0796
17.1167
17.1538
17.1908
17.2275
17.2639
17.2998
17.3352
17.3699
17.404
17.4374
17.4699
17.5017
17.5325
12.5323
12.5702
12.6079
12.6453
12.6825
12.7195
12.7564
12.7931
12.8297
12.8661
12.9025
12.9388
12.9749
13.0111
13.0472
13.0832
13.1192
13.1552
13.1912
13.2271
13.263
13.2989
13.3348
13.3707
13.4066
13.4425
13.4783
13.5142
13.55
13.5858
13.6216
13.6574
13.6932
13.7289
13.7646
13.8003
13.836
13.8717
13.9073
13.9429
13.9785
14.014
14.0495
14.085
14.1204
14.1558
14.1912
14.2265
14.2617
14.297
14.3322
14.3673
14.4024
14.4374
14.4724
14.5074
14.5423
14.5771
14.6119
14.6466
14.6813
14.716
14.7505
14.7851
14.8195
14.854
14.8883
14.9226
14.9569
14.9911
15.0252
15.0593
15.0933
15.1272
15.1611
15.195
15.2288
15.2625
15.2962
15.3298
15.3634
15.3969
15.4303
15.4637
15.4971
15.5304
15.5636
15.5968
15.63
15.6631
15.6961
15.7291
15.7621
15.795
15.8279
15.8607
15.8935
15.9263
15.959
15.9918
16.0245
16.0571
16.0898
16.1224
16.155
16.1877
16.2203
16.2529
16.2855
16.3182
16.3508
16.3835
16.4162
16.449
16.4818
16.5146
16.5475
16.5805
16.6135
16.6467
16.6799
16.7132
16.7467
16.7802
16.8139
16.8477
16.8817
16.9158
16.9501
16.9846
17.0193
17.0542
17.0893
17.1246
17.1602
17.196
17.2321
17.2684
17.3049
17.3418
17.3789
17.4162
17.4539
17.4917
17.5299
17.5682
17.6067
17.6454
17.6841
17.7227
17.7613
17.7995
17.8375
17.875
17.9119
17.9483
17.9839
18.0189
18.053
18.0863
18.1186
18.15
12.8897
12.9292
12.9683
13.0071
13.0458
13.0842
13.1225
13.1607
13.1987
13.2366
13.2744
13.312
13.3497
13.3872
13.4247
13.4622
13.4996
13.537
13.5743
13.6117
13.649
13.6863
13.7237
13.7609
13.7982
13.8355
13.8728
13.91
13.9472
13.9845
14.0217
14.0589
14.096
14.1332
14.1703
14.2074
14.2445
14.2815
14.3186
14.3555
14.3925
14.4294
14.4663
14.5032
14.54
14.5768
14.6135
14.6502
14.6868
14.7234
14.76
14.7965
14.8329
14.8693
14.9057
14.942
14.9783
15.0144
15.0506
15.0867
15.1227
15.1587
15.1946
15.2305
15.2663
15.302
15.3377
15.3733
15.4089
15.4444
15.4798
15.5152
15.5506
15.5858
15.621
15.6562
15.6913
15.7263
15.7613
15.7962
15.831
15.8658
15.9006
15.9352
15.9699
16.0044
16.0389
16.0734
16.1078
16.1422
16.1765
16.2107
16.245
16.2791
16.3133
16.3474
16.3814
16.4155
16.4494
16.4834
16.5173
16.5513
16.5852
16.619
16.6529
16.6868
16.7206
16.7545
16.7884
16.8223
16.8562
16.8901
16.9241
16.9581
16.9921
17.0263
17.0604
17.0947
17.129
17.1634
17.1979
17.2326
17.2673
17.3022
17.3372
17.3723
17.4076
17.4431
17.4788
17.5147
17.5507
17.587
17.6235
17.6603
17.6972
17.7345
17.772
17.8098
17.8478
17.8862
17.9248
17.9636
18.0028
18.0422
18.0819
18.1218
18.1618
18.202
18.2422
18.2824
18.3225
18.3623
18.4018
18.4408
18.4793
18.5172
18.5544
18.5909
18.6266
18.6614
18.6952
18.728
13.2409
13.2818
13.3224
13.3627
13.4028
13.4427
13.4824
13.5219
13.5613
13.6006
13.6398
13.6789
13.7179
13.7568
13.7957
13.8346
13.8734
13.9122
13.9509
13.9896
14.0284
14.0671
14.1058
14.1444
14.1831
14.2217
14.2604
14.299
14.3376
14.3762
14.4148
14.4534
14.4919
14.5305
14.569
14.6074
14.6459
14.6843
14.7227
14.7611
14.7994
14.8377
14.8759
14.9141
14.9523
14.9904
15.0285
15.0666
15.1046
15.1425
15.1804
15.2183
15.2561
15.2938
15.3315
15.3691
15.4067
15.4442
15.4817
15.5191
15.5565
15.5938
15.631
15.6682
15.7053
15.7423
15.7793
15.8163
15.8531
15.8899
15.9267
15.9633
16
16.0365
16.073
16.1094
16.1458
16.1821
16.2183
16.2545
16.2906
16.3267
16.3627
16.3986
16.4345
16.4703
16.5061
16.5418
16.5774
16.613
16.6486
16.6841
16.7195
16.7549
16.7903
16.8256
16.8609
16.8962
16.9314
16.9666
17.0017
17.0369
17.072
17.1071
17.1422
17.1773
17.2124
17.2475
17.2826
17.3177
17.3528
17.388
17.4232
17.4584
17.4937
17.5291
17.5645
17.6
17.6356
17.6712
17.707
17.7429
17.7789
17.8151
17.8514
17.8879
17.9245
17.9613
17.9983
18.0355
18.0729
18.1106
18.1485
18.1866
18.225
18.2637
18.3026
18.3418
18.3813
18.4211
18.4612
18.5016
18.5422
18.5832
18.6243
18.6657
18.7073
18.749
18.7907
18.8324
18.874
18.9153
18.9563
18.9969
19.0369
19.0763
19.115
19.153
19.1901
19.2264
19.2616
19.2959
19.3291
13.5856
13.628
13.67
13.7117
13.7532
13.7945
13.8356
13.8765
13.9173
13.958
13.9985
14.039
14.0793
14.1196
14.1599
14.2001
14.2403
14.2804
14.3205
14.3606
14.4007
14.4407
14.4808
14.5208
14.5608
14.6009
14.6409
14.6808
14.7208
14.7608
14.8007
14.8406
14.8805
14.9204
14.9602
15.0001
15.0399
15.0796
15.1194
15.1591
15.1987
15.2384
15.278
15.3175
15.357
15.3965
15.4359
15.4753
15.5146
15.5539
15.5931
15.6323
15.6714
15.7104
15.7494
15.7884
15.8273
15.8661
15.9049
15.9436
15.9822
16.0208
16.0593
16.0978
16.1362
16.1745
16.2128
16.251
16.2891
16.3272
16.3652
16.4032
16.441
16.4789
16.5166
16.5543
16.5919
16.6294
16.6669
16.7044
16.7417
16.779
16.8162
16.8534
16.8905
16.9276
16.9645
17.0015
17.0384
17.0752
17.1119
17.1487
17.1853
17.2219
17.2585
17.2951
17.3315
17.368
17.4044
17.4408
17.4772
17.5135
17.5498
17.5861
17.6224
17.6587
17.695
17.7313
17.7676
17.8039
17.8403
17.8766
17.913
17.9495
17.986
18.0226
18.0592
18.096
18.1328
18.1697
18.2067
18.2439
18.2811
18.3185
18.3561
18.3939
18.4318
18.4699
18.5082
18.5467
18.5855
18.6245
18.6637
18.7032
18.743
18.7831
18.8234
18.8641
18.905
18.9462
18.9878
19.0296
19.0717
19.1141
19.1567
19.1996
19.2426
19.2858
19.329
19.3722
19.4152
19.458
19.5005
19.5425
19.584
19.6249
19.6651
19.7045
19.7431
19.7808
19.8175
19.8532
19.8878
19.9212
13.9234
13.9673
14.0107
14.0538
14.0967
14.1393
14.1818
14.2241
14.2662
14.3082
14.3501
14.3919
14.4336
14.4753
14.5168
14.5584
14.5999
14.6414
14.6828
14.7242
14.7656
14.807
14.8484
14.8898
14.9311
14.9725
15.0138
15.0551
15.0964
15.1377
15.179
15.2202
15.2614
15.3026
15.3438
15.385
15.4261
15.4672
15.5082
15.5492
15.5902
15.6312
15.6721
15.7129
15.7537
15.7945
15.8352
15.8759
15.9165
15.9571
15.9976
16.0381
16.0785
16.1188
16.1591
16.1993
16.2395
16.2796
16.3197
16.3596
16.3996
16.4394
16.4792
16.5189
16.5586
16.5982
16.6377
16.6772
16.7166
16.7559
16.7951
16.8343
16.8734
16.9125
16.9515
16.9904
17.0292
17.068
17.1067
17.1453
17.1839
17.2224
17.2609
17.2992
17.3375
17.3758
17.414
17.4521
17.4902
17.5282
17.5662
17.6041
17.6419
17.6797
17.7175
17.7552
17.7929
17.8305
17.8681
17.9057
17.9432
17.9807
18.0182
18.0557
18.0932
18.1306
18.1681
18.2056
18.2431
18.2806
18.3181
18.3556
18.3932
18.4309
18.4686
18.5064
18.5442
18.5821
18.6201
18.6583
18.6965
18.7349
18.7734
18.8121
18.8509
18.8899
18.9291
18.9684
19.008
19.0479
19.0879
19.1282
19.1688
19.2097
19.2508
19.2922
19.3339
19.3759
19.4183
19.4609
19.5039
19.5471
19.5907
19.6345
19.6786
19.7229
19.7674
19.812
19.8566
19.9012
19.9457
19.9899
20.0339
20.0773
20.1203
20.1626
20.2042
20.2451
20.2851
20.3242
20.3623
20.3994
20.4353
20.4701
14.2542
14.2994
14.3442
14.3887
14.4329
14.4769
14.5207
14.5643
14.6078
14.6511
14.6943
14.7374
14.7804
14.8234
14.8663
14.9091
14.9519
14.9947
15.0375
15.0802
15.1229
15.1656
15.2083
15.2509
15.2936
15.3362
15.3789
15.4215
15.4641
15.5067
15.5492
15.5918
15.6343
15.6768
15.7193
15.7617
15.8041
15.8465
15.8888
15.9312
15.9734
16.0156
16.0578
16.1
16.1421
16.1841
16.2261
16.2681
16.31
16.3518
16.3936
16.4353
16.477
16.5186
16.5601
16.6016
16.6431
16.6844
16.7257
16.7669
16.8081
16.8492
16.8902
16.9312
16.9721
17.0129
17.0537
17.0943
17.135
17.1755
17.216
17.2564
17.2967
17.3369
17.3771
17.4172
17.4573
17.4973
17.5372
17.577
17.6168
17.6565
17.6961
17.7356
17.7751
17.8146
17.8539
17.8932
17.9325
17.9717
18.0108
18.0499
18.0889
18.1279
18.1668
18.2056
18.2445
18.2833
18.322
18.3607
18.3994
18.4381
18.4768
18.5154
18.554
18.5926
18.6312
18.6699
18.7085
18.7471
18.7858
18.8245
18.8633
18.9021
18.941
18.9799
19.0189
19.058
19.0972
19.1366
19.176
19.2156
19.2553
19.2951
19.3352
19.3754
19.4158
19.4565
19.4973
19.5384
19.5797
19.6213
19.6632
19.7054
19.7478
19.7906
19.8336
19.877
19.9207
19.9647
20.009
20.0537
20.0986
20.1439
20.1894
20.2351
20.281
20.327
20.373
20.4191
20.4649
20.5106
20.5559
20.6008
20.6451
20.6888
20.7319
20.7741
20.8155
20.856
20.8955
20.9339
20.9712
21.0073
21.0421
14.5775
14.6241
14.6702
14.716
14.7616
14.8069
14.852
14.8969
14.9416
14.9862
15.0307
15.0751
15.1194
15.1636
15.2078
15.2519
15.296
15.3401
15.3841
15.4281
15.4721
15.5161
15.56
15.604
15.6479
15.6918
15.7357
15.7796
15.8235
15.8673
15.9112
15.955
15.9988
16.0425
16.0863
16.13
16.1736
16.2173
16.2609
16.3045
16.348
16.3915
16.4349
16.4783
16.5217
16.565
16.6082
16.6514
16.6945
16.7376
16.7806
16.8236
16.8665
16.9094
16.9521
16.9948
17.0375
17.0801
17.1226
17.165
17.2074
17.2497
17.292
17.3341
17.3762
17.4183
17.4602
17.5021
17.5439
17.5856
17.6273
17.6689
17.7104
17.7518
17.7932
17.8345
17.8757
17.9169
17.9579
17.9989
18.0399
18.0807
18.1215
18.1622
18.2029
18.2435
18.284
18.3244