/*--------------------------------*- C++ -*----------------------------------*\
| =========                 |                                                 |
| \\      /  F ield         | OpenFOAM: The Open Source CFD Toolbox           |
|  \\    /   O peration     | Version:  2512                                  |
|   \\  /    A nd           | Website:  www.openfoam.com                      |
|    \\/     M anipulation  |                                                 |
\*---------------------------------------------------------------------------*/
FoamFile
{
    version     2.0;
    format      ascii;
    arch        "LSB;label=32;scalar=64";
    class       surfaceScalarField;
    location    "0.1";
    object      phi;
}
// * * * * * * * * * * * * * * * * * * * * * * * * * * * * * * * * * * * * * //

dimensions      [1 0 -1 0 0 0 0];

oriented        oriented;

internalField   nonuniform List<scalar> 
16431
(
0.00262855
-7.79813e-07
0.00262811
-7.77783e-07
0.00262767
-7.82494e-07
0.00262722
-7.92043e-07
0.00262678
-7.98203e-07
0.00262633
-8.02798e-07
0.00262588
-8.07636e-07
0.00262543
-8.12039e-07
0.00262497
-8.15777e-07
0.00262452
-8.19096e-07
0.00262406
-8.22146e-07
0.0026236
-8.24994e-07
0.00262314
-8.27689e-07
0.00262268
-8.3027e-07
0.00262221
-8.32769e-07
0.00262175
-8.35203e-07
0.00262128
-8.3759e-07
0.00262081
-8.39937e-07
0.00262034
-8.42265e-07
0.00261986
-8.44577e-07
0.00261939
-8.46874e-07
0.00261891
-8.49155e-07
0.00261843
-8.51416e-07
0.00261795
-8.53664e-07
0.00261747
-8.55892e-07
0.00261699
-8.58104e-07
0.0026165
-8.60303e-07
0.00261601
-8.62487e-07
0.00261553
-8.64657e-07
0.00261503
-8.66824e-07
0.00261454
-8.68977e-07
0.00261405
-8.71125e-07
0.00261355
-8.73268e-07
0.00261306
-8.75406e-07
0.00261256
-8.77536e-07
0.00261206
-8.79662e-07
0.00261155
-8.81791e-07
0.00261105
-8.83905e-07
0.00261054
-8.86005e-07
0.00261003
-8.88094e-07
0.00260953
-8.90164e-07
0.00260901
-8.92221e-07
0.0026085
-8.94278e-07
0.00260799
-8.96329e-07
0.00260747
-8.9838e-07
0.00260695
-9.00422e-07
0.00260644
-9.02467e-07
0.00260591
-9.04505e-07
0.00260539
-9.0655e-07
0.00260487
-9.0858e-07
0.00260434
-9.10606e-07
0.00260381
-9.12621e-07
0.00260328
-9.14624e-07
0.00260275
-9.16624e-07
0.00260222
-9.1861e-07
0.00260169
-9.20602e-07
0.00260115
-9.22587e-07
0.00260061
-9.24571e-07
0.00260008
-9.26542e-07
0.00259954
-9.28516e-07
0.00259899
-9.30494e-07
0.00259845
-9.32463e-07
0.0025979
-9.34429e-07
0.00259736
-9.36404e-07
0.00259681
-9.38378e-07
0.00259626
-9.40333e-07
0.00259571
-9.4229e-07
0.00259515
-9.4424e-07
0.0025946
-9.46177e-07
0.00259404
-9.48116e-07
0.00259349
-9.50045e-07
0.00259293
-9.51973e-07
0.00259236
-9.53909e-07
0.0025918
-9.55838e-07
0.00259124
-9.57758e-07
0.00259067
-9.59675e-07
0.0025901
-9.61589e-07
0.00258954
-9.63499e-07
0.00258897
-9.65411e-07
0.00258839
-9.67329e-07
0.00258782
-9.69245e-07
0.00258725
-9.71159e-07
0.00258667
-9.7307e-07
0.00258609
-9.74993e-07
0.00258551
-9.769e-07
0.00258493
-9.78809e-07
0.00258435
-9.80718e-07
0.00258376
-9.82621e-07
0.00258318
-9.84518e-07
0.00258259
-9.86417e-07
0.002582
-9.88315e-07
0.00258141
-9.9022e-07
0.00258082
-9.92136e-07
0.00258023
-9.94069e-07
0.00257964
-9.9601e-07
0.00257904
-9.9795e-07
0.00257844
-9.99895e-07
0.00257784
-1.00186e-06
0.00257724
-1.00384e-06
0.00257664
-1.00584e-06
0.00257604
-1.00783e-06
0.00257544
-1.00985e-06
0.00257483
-1.01189e-06
0.00257422
-1.01395e-06
0.00257361
-1.01604e-06
0.002573
-1.01817e-06
0.00257239
-1.02034e-06
0.00257178
-1.02254e-06
0.00257117
-1.02477e-06
0.00257055
-1.02705e-06
0.00256993
-1.02936e-06
0.00256932
-1.03173e-06
0.0025687
-1.03416e-06
0.00256807
-1.03666e-06
0.00256745
-1.03923e-06
0.00256683
-1.04188e-06
0.0025662
-1.04462e-06
0.00256558
-1.04746e-06
0.00256495
-1.0504e-06
0.00256432
-1.05345e-06
0.00256369
-1.05662e-06
0.00256306
-1.05993e-06
0.00256242
-1.06338e-06
0.00256179
-1.06698e-06
0.00256115
-1.07076e-06
0.00256052
-1.07471e-06
0.00255988
-1.07887e-06
0.00255924
-1.08324e-06
0.0025586
-1.08783e-06
0.00255795
-1.09264e-06
0.00255731
-1.09772e-06
0.00255667
-1.10305e-06
0.00255602
-1.10861e-06
0.00255537
-1.1144e-06
0.00255472
-1.12041e-06
0.00255407
-1.12662e-06
0.00255342
-1.13298e-06
0.00255277
-1.1394e-06
0.00255212
-1.14582e-06
0.00255147
-1.15197e-06
0.00255081
-1.1579e-06
0.00255016
-1.16255e-06
0.00254951
-1.16757e-06
0.00254885
-1.16658e-06
0.00254821
-1.17332e-06
0.00254755
-1.15275e-06
0.00254701
-1.17881e-06
-1.15138e-06
0.00262855
-7.38799e-07
0.00262811
-7.37362e-07
0.00262767
-7.46081e-07
0.00262722
-7.55512e-07
0.00262677
-7.60988e-07
0.00262633
-7.65644e-07
0.00262588
-7.70577e-07
0.00262543
-7.74911e-07
0.00262497
-7.78526e-07
0.00262452
-7.81744e-07
0.00262406
-7.84702e-07
0.0026236
-7.87461e-07
0.00262314
-7.90072e-07
0.00262268
-7.92581e-07
0.00262221
-7.95019e-07
0.00262175
-7.97403e-07
0.00262128
-7.99735e-07
0.00262081
-8.02025e-07
0.00262034
-8.04299e-07
0.00261986
-8.06562e-07
0.00261939
-8.0881e-07
0.00261891
-8.11049e-07
0.00261843
-8.13272e-07
0.00261795
-8.15475e-07
0.00261747
-8.17661e-07
0.00261699
-8.19831e-07
0.0026165
-8.2199e-07
0.00261601
-8.24144e-07
0.00261553
-8.2628e-07
0.00261503
-8.28395e-07
0.00261454
-8.30511e-07
0.00261405
-8.32622e-07
0.00261355
-8.34732e-07
0.00261305
-8.36833e-07
0.00261256
-8.38922e-07
0.00261205
-8.41015e-07
0.00261155
-8.43097e-07
0.00261105
-8.45179e-07
0.00261054
-8.47244e-07
0.00261003
-8.4929e-07
0.00260953
-8.51334e-07
0.00260901
-8.5336e-07
0.0026085
-8.55358e-07
0.00260799
-8.57372e-07
0.00260747
-8.59384e-07
0.00260695
-8.61394e-07
0.00260643
-8.63393e-07
0.00260591
-8.65418e-07
0.00260539
-8.67423e-07
0.00260487
-8.69425e-07
0.00260434
-8.71406e-07
0.00260381
-8.73377e-07
0.00260328
-8.75349e-07
0.00260275
-8.77307e-07
0.00260222
-8.79267e-07
0.00260169
-8.81216e-07
0.00260115
-8.83161e-07
0.00260061
-8.85091e-07
0.00260008
-8.87046e-07
0.00259953
-8.88987e-07
0.00259899
-8.90917e-07
0.00259845
-8.9286e-07
0.0025979
-8.94803e-07
0.00259736
-8.9673e-07
0.00259681
-8.98652e-07
0.00259626
-9.00585e-07
0.00259571
-9.02494e-07
0.00259515
-9.04409e-07
0.0025946
-9.0633e-07
0.00259404
-9.08225e-07
0.00259348
-9.10115e-07
0.00259293
-9.12003e-07
0.00259236
-9.13891e-07
0.0025918
-9.15782e-07
0.00259124
-9.17672e-07
0.00259067
-9.1956e-07
0.0025901
-9.21439e-07
0.00258954
-9.23314e-07
0.00258897
-9.25198e-07
0.00258839
-9.27075e-07
0.00258782
-9.28947e-07
0.00258725
-9.30824e-07
0.00258667
-9.32713e-07
0.00258609
-9.34592e-07
0.00258551
-9.36473e-07
0.00258493
-9.38348e-07
0.00258435
-9.40218e-07
0.00258376
-9.4208e-07
0.00258318
-9.43934e-07
0.00258259
-9.45786e-07
0.002582
-9.47657e-07
0.00258141
-9.49553e-07
0.00258082
-9.5144e-07
0.00258023
-9.53324e-07
0.00257964
-9.55232e-07
0.00257904
-9.57137e-07
0.00257844
-9.59051e-07
0.00257784
-9.60979e-07
0.00257724
-9.62918e-07
0.00257664
-9.64871e-07
0.00257604
-9.66858e-07
0.00257544
-9.68841e-07
0.00257483
-9.70836e-07
0.00257422
-9.72862e-07
0.00257361
-9.74926e-07
0.002573
-9.7702e-07
0.00257239
-9.7915e-07
0.00257178
-9.81311e-07
0.00257117
-9.83504e-07
0.00257055
-9.85733e-07
0.00256993
-9.88026e-07
0.00256931
-9.90382e-07
0.00256869
-9.92766e-07
0.00256807
-9.95225e-07
0.00256745
-9.97767e-07
0.00256683
-1.00039e-06
0.0025662
-1.00308e-06
0.00256558
-1.00587e-06
0.00256495
-1.00878e-06
0.00256432
-1.01179e-06
0.00256369
-1.01494e-06
0.00256306
-1.01821e-06
0.00256242
-1.02162e-06
0.00256179
-1.0252e-06
0.00256115
-1.02894e-06
0.00256051
-1.03288e-06
0.00255988
-1.03701e-06
0.00255924
-1.04133e-06
0.0025586
-1.0459e-06
0.00255795
-1.05072e-06
0.00255731
-1.05578e-06
0.00255666
-1.06111e-06
0.00255602
-1.06668e-06
0.00255537
-1.07253e-06
0.00255472
-1.0786e-06
0.00255407
-1.08491e-06
0.00255342
-1.09143e-06
0.00255277
-1.09807e-06
0.00255212
-1.10491e-06
0.00255146
-1.11143e-06
0.00255081
-1.11863e-06
0.00255016
-1.12318e-06
0.00254951
-1.13307e-06
0.00254885
-1.12763e-06
0.00254821
-1.15425e-06
0.00254755
-1.11565e-06
0.00254697
-1.21373e-06
0.00254642
-1.16023e-06
-1.61208e-06
0.00262855
-6.94639e-07
0.00262811
-6.98504e-07
0.00262766
-7.09677e-07
0.00262722
-7.18761e-07
0.00262677
-7.23794e-07
0.00262633
-7.28577e-07
0.00262588
-7.33592e-07
0.00262542
-7.37823e-07
0.00262497
-7.41321e-07
0.00262452
-7.44425e-07
0.00262406
-7.47278e-07
0.0026236
-7.49944e-07
0.00262314
-7.52483e-07
0.00262268
-7.54908e-07
0.00262221
-7.57276e-07
0.00262174
-7.59586e-07
0.00262128
-7.61871e-07
0.00262081
-7.64118e-07
0.00262034
-7.66349e-07
0.00261986
-7.68556e-07
0.00261939
-7.70759e-07
0.00261891
-7.72949e-07
0.00261843
-7.75121e-07
0.00261795
-7.77287e-07
0.00261747
-7.7944e-07
0.00261699
-7.81572e-07
0.0026165
-7.83695e-07
0.00261601
-7.85801e-07
0.00261552
-7.87892e-07
0.00261503
-7.8999e-07
0.00261454
-7.92058e-07
0.00261405
-7.94131e-07
0.00261355
-7.96197e-07
0.00261305
-7.98264e-07
0.00261256
-8.00319e-07
0.00261205
-8.02371e-07
0.00261155
-8.04428e-07
0.00261105
-8.06469e-07
0.00261054
-8.08484e-07
0.00261003
-8.10494e-07
0.00260952
-8.12485e-07
0.00260901
-8.1447e-07
0.0026085
-8.16466e-07
0.00260799
-8.18446e-07
0.00260747
-8.20415e-07
0.00260695
-8.22374e-07
0.00260643
-8.24349e-07
0.00260591
-8.26311e-07
0.00260539
-8.283e-07
0.00260487
-8.30257e-07
0.00260434
-8.32208e-07
0.00260381
-8.34146e-07
0.00260328
-8.36068e-07
0.00260275
-8.37992e-07
0.00260222
-8.399e-07
0.00260169
-8.41827e-07
0.00260115
-8.43737e-07
0.00260061
-8.4564e-07
0.00260007
-8.47539e-07
0.00259953
-8.49438e-07
0.00259899
-8.5135e-07
0.00259845
-8.53253e-07
0.0025979
-8.55144e-07
0.00259736
-8.57057e-07
0.00259681
-8.58962e-07
0.00259626
-8.60827e-07
0.00259571
-8.62711e-07
0.00259515
-8.6459e-07
0.0025946
-8.6645e-07
0.00259404
-8.68317e-07
0.00259348
-8.70174e-07
0.00259292
-8.72023e-07
0.00259236
-8.73895e-07
0.0025918
-8.75757e-07
0.00259124
-8.77598e-07
0.00259067
-8.79442e-07
0.0025901
-8.81287e-07
0.00258954
-8.83126e-07
0.00258896
-8.84966e-07
0.00258839
-8.86815e-07
0.00258782
-8.88661e-07
0.00258724
-8.90503e-07
0.00258667
-8.92344e-07
0.00258609
-8.94217e-07
0.00258551
-8.96039e-07
0.00258493
-8.97878e-07
0.00258435
-8.9971e-07
0.00258376
-9.01542e-07
0.00258318
-9.03365e-07
0.00258259
-9.05195e-07
0.002582
-9.07027e-07
0.00258141
-9.08863e-07
0.00258082
-9.10707e-07
0.00258023
-9.12576e-07
0.00257964
-9.14461e-07
0.00257904
-9.1633e-07
0.00257844
-9.18198e-07
0.00257784
-9.20093e-07
0.00257724
-9.22008e-07
0.00257664
-9.23938e-07
0.00257604
-9.25865e-07
0.00257544
-9.27814e-07
0.00257483
-9.2978e-07
0.00257422
-9.31773e-07
0.00257361
-9.33784e-07
0.002573
-9.35845e-07
0.00257239
-9.37949e-07
0.00257178
-9.401e-07
0.00257117
-9.42248e-07
0.00257055
-9.44457e-07
0.00256993
-9.46697e-07
0.00256931
-9.48985e-07
0.00256869
-9.51349e-07
0.00256807
-9.5377e-07
0.00256745
-9.56277e-07
0.00256683
-9.58866e-07
0.0025662
-9.61524e-07
0.00256558
-9.64282e-07
0.00256495
-9.6715e-07
0.00256432
-9.70165e-07
0.00256369
-9.73243e-07
0.00256306
-9.76469e-07
0.00256242
-9.7985e-07
0.00256179
-9.83391e-07
0.00256115
-9.87097e-07
0.00256051
-9.90993e-07
0.00255988
-9.95099e-07
0.00255924
-9.99415e-07
0.00255859
-1.00395e-06
0.00255795
-1.00873e-06
0.00255731
-1.01382e-06
0.00255666
-1.01914e-06
0.00255602
-1.02473e-06
0.00255537
-1.0306e-06
0.00255472
-1.03676e-06
0.00255407
-1.04319e-06
0.00255342
-1.04989e-06
0.00255277
-1.05675e-06
0.00255212
-1.064e-06
0.00255146
-1.07091e-06
0.00255081
-1.0792e-06
0.00255016
-1.0842e-06
0.0025495
-1.09785e-06
0.00254885
-1.09157e-06
0.00254821
-1.13145e-06
0.00254756
-1.09015e-06
0.00254694
-1.21074e-06
0.00254635
-1.19343e-06
0.00254566
-1.48439e-06
-1.72806e-06
0.00262855
-6.50955e-07
0.00262811
-6.57832e-07
0.00262766
-6.73823e-07
0.00262722
-6.82678e-07
0.00262677
-6.86553e-07
0.00262633
-6.91513e-07
0.00262588
-6.96732e-07
0.00262542
-7.00834e-07
0.00262497
-7.04134e-07
0.00262452
-7.07117e-07
0.00262406
-7.09866e-07
0.0026236
-7.12433e-07
0.00262314
-7.14864e-07
0.00262268
-7.17223e-07
0.00262221
-7.1953e-07
0.00262174
-7.21804e-07
0.00262128
-7.24013e-07
0.00262081
-7.26201e-07
0.00262034
-7.28383e-07
0.00261986
-7.30545e-07
0.00261939
-7.32687e-07
0.00261891
-7.34841e-07
0.00261843
-7.36982e-07
0.00261795
-7.39108e-07
0.00261747
-7.41202e-07
0.00261699
-7.433e-07
0.0026165
-7.45378e-07
0.00261601
-7.47458e-07
0.00261552
-7.49517e-07
0.00261503
-7.5155e-07
0.00261454
-7.53595e-07
0.00261405
-7.55634e-07
0.00261355
-7.57671e-07
0.00261305
-7.59694e-07
0.00261255
-7.61693e-07
0.00261205
-7.63724e-07
0.00261155
-7.65739e-07
0.00261105
-7.67738e-07
0.00261054
-7.6973e-07
0.00261003
-7.71703e-07
0.00260952
-7.73666e-07
0.00260901
-7.75608e-07
0.0026085
-7.77535e-07
0.00260799
-7.79475e-07
0.00260747
-7.81418e-07
0.00260695
-7.83361e-07
0.00260643
-7.85297e-07
0.00260591
-7.87236e-07
0.00260539
-7.89157e-07
0.00260487
-7.91094e-07
0.00260434
-7.92999e-07
0.00260381
-7.94904e-07
0.00260328
-7.968e-07
0.00260275
-7.98685e-07
0.00260222
-8.00565e-07
0.00260169
-8.02435e-07
0.00260115
-8.04293e-07
0.00260061
-8.06158e-07
0.00260007
-8.08034e-07
0.00259953
-8.09915e-07
0.00259899
-8.11775e-07
0.00259845
-8.13652e-07
0.0025979
-8.15521e-07
0.00259736
-8.17374e-07
0.00259681
-8.19227e-07
0.00259626
-8.21089e-07
0.00259571
-8.22911e-07
0.00259515
-8.24752e-07
0.0025946
-8.26604e-07
0.00259404
-8.28424e-07
0.00259348
-8.30236e-07
0.00259292
-8.32058e-07
0.00259236
-8.33877e-07
0.0025918
-8.35695e-07
0.00259124
-8.37514e-07
0.00259067
-8.39328e-07
0.0025901
-8.41138e-07
0.00258953
-8.42925e-07
0.00258896
-8.44749e-07
0.00258839
-8.46559e-07
0.00258782
-8.48365e-07
0.00258724
-8.50176e-07
0.00258667
-8.51988e-07
0.00258609
-8.53792e-07
0.00258551
-8.55612e-07
0.00258493
-8.57414e-07
0.00258435
-8.59213e-07
0.00258376
-8.61002e-07
0.00258318
-8.6279e-07
0.00258259
-8.6456e-07
0.002582
-8.66356e-07
0.00258141
-8.68182e-07
0.00258082
-8.70007e-07
0.00258023
-8.71844e-07
0.00257963
-8.73672e-07
0.00257904
-8.75502e-07
0.00257844
-8.77346e-07
0.00257784
-8.79208e-07
0.00257724
-8.81084e-07
0.00257664
-8.82978e-07
0.00257604
-8.8488e-07
0.00257543
-8.86787e-07
0.00257483
-8.88715e-07
0.00257422
-8.90642e-07
0.00257361
-8.92664e-07
0.002573
-8.94692e-07
0.00257239
-8.96757e-07
0.00257178
-8.98847e-07
0.00257116
-9.00974e-07
0.00257055
-9.03133e-07
0.00256993
-9.05342e-07
0.00256931
-9.07616e-07
0.00256869
-9.09939e-07
0.00256807
-9.12315e-07
0.00256745
-9.14784e-07
0.00256683
-9.17331e-07
0.0025662
-9.19956e-07
0.00256557
-9.22671e-07
0.00256495
-9.25523e-07
0.00256432
-9.28452e-07
0.00256369
-9.31515e-07
0.00256305
-9.34708e-07
0.00256242
-9.3805e-07
0.00256179
-9.41563e-07
0.00256115
-9.45238e-07
0.00256051
-9.49096e-07
0.00255987
-9.53166e-07
0.00255924
-9.57471e-07
0.00255859
-9.61993e-07
0.00255795
-9.66735e-07
0.00255731
-9.71794e-07
0.00255666
-9.77118e-07
0.00255602
-9.82735e-07
0.00255537
-9.88663e-07
0.00255472
-9.94867e-07
0.00255407
-1.0014e-06
0.00255342
-1.00828e-06
0.00255277
-1.0154e-06
0.00255212
-1.02308e-06
0.00255146
-1.03048e-06
0.00255081
-1.03976e-06
0.00255016
-1.04546e-06
0.0025495
-1.06188e-06
0.00254885
-1.05687e-06
0.0025482
-1.10274e-06
0.00254756
-1.06966e-06
0.00254693
-1.19456e-06
0.0025463
-1.19114e-06
0.00254562
-1.43001e-06
0.00254488
-1.54645e-06
-1.64116e-06
0.00262855
-6.05666e-07
0.0026281
-6.17443e-07
0.00262766
-6.38697e-07
0.00262722
-6.46595e-07
0.00262677
-6.4923e-07
0.00262632
-6.54537e-07
0.00262587
-6.59977e-07
0.00262542
-6.63867e-07
0.00262497
-6.67001e-07
0.00262451
-6.69848e-07
0.00262406
-6.72465e-07
0.0026236
-6.74931e-07
0.00262314
-6.77308e-07
0.00262267
-6.79559e-07
0.00262221
-6.8179e-07
0.00262174
-6.83983e-07
0.00262128
-6.86171e-07
0.00262081
-6.883e-07
0.00262034
-6.90432e-07
0.00261986
-6.92532e-07
0.00261939
-6.94639e-07
0.00261891
-6.96754e-07
0.00261843
-6.98832e-07
0.00261795
-7.00911e-07
0.00261747
-7.02987e-07
0.00261699
-7.05027e-07
0.0026165
-7.07083e-07
0.00261601
-7.09137e-07
0.00261552
-7.11138e-07
0.00261503
-7.13146e-07
0.00261454
-7.15132e-07
0.00261405
-7.17127e-07
0.00261355
-7.19118e-07
0.00261305
-7.21117e-07
0.00261255
-7.23112e-07
0.00261205
-7.25093e-07
0.00261155
-7.27066e-07
0.00261105
-7.29022e-07
0.00261054
-7.3096e-07
0.00261003
-7.32884e-07
0.00260952
-7.34812e-07
0.00260901
-7.36747e-07
0.0026085
-7.38646e-07
0.00260799
-7.40554e-07
0.00260747
-7.42443e-07
0.00260695
-7.44326e-07
0.00260643
-7.46215e-07
0.00260591
-7.48124e-07
0.00260539
-7.50043e-07
0.00260487
-7.51928e-07
0.00260434
-7.53824e-07
0.00260381
-7.55677e-07
0.00260328
-7.57514e-07
0.00260275
-7.59362e-07
0.00260222
-7.61199e-07
0.00260169
-7.63042e-07
0.00260115
-7.64871e-07
0.00260061
-7.66702e-07
0.00260007
-7.68527e-07
0.00259953
-7.70358e-07
0.00259899
-7.72215e-07
0.00259845
-7.74058e-07
0.0025979
-7.75868e-07
0.00259736
-7.77696e-07
0.00259681
-7.79515e-07
0.00259626
-7.81321e-07
0.00259571
-7.83133e-07
0.00259515
-7.84938e-07
0.0025946
-7.86738e-07
0.00259404
-7.88521e-07
0.00259348
-7.90302e-07
0.00259292
-7.9207e-07
0.00259236
-7.93882e-07
0.0025918
-7.95649e-07
0.00259124
-7.97428e-07
0.00259067
-7.99204e-07
0.0025901
-8.00985e-07
0.00258953
-8.0276e-07
0.00258896
-8.04526e-07
0.00258839
-8.06301e-07
0.00258782
-8.08067e-07
0.00258724
-8.09843e-07
0.00258667
-8.11622e-07
0.00258609
-8.13404e-07
0.00258551
-8.15172e-07
0.00258493
-8.16966e-07
0.00258435
-8.18699e-07
0.00258376
-8.2046e-07
0.00258318
-8.22208e-07
0.00258259
-8.23961e-07
0.002582
-8.25725e-07
0.00258141
-8.275e-07
0.00258082
-8.29287e-07
0.00258023
-8.31085e-07
0.00257963
-8.32882e-07
0.00257904
-8.34683e-07
0.00257844
-8.36492e-07
0.00257784
-8.38321e-07
0.00257724
-8.40156e-07
0.00257664
-8.42025e-07
0.00257604
-8.43889e-07
0.00257543
-8.45762e-07
0.00257483
-8.47649e-07
0.00257422
-8.49572e-07
0.00257361
-8.5152e-07
0.002573
-8.53513e-07
0.00257239
-8.55542e-07
0.00257178
-8.57606e-07
0.00257116
-8.59696e-07
0.00257055
-8.61817e-07
0.00256993
-8.63989e-07
0.00256931
-8.66226e-07
0.00256869
-8.68495e-07
0.00256807
-8.70835e-07
0.00256745
-8.73279e-07
0.00256683
-8.75805e-07
0.0025662
-8.78386e-07
0.00256557
-8.81072e-07
0.00256495
-8.83862e-07
0.00256432
-8.86771e-07
0.00256369
-8.89775e-07
0.00256305
-8.92927e-07
0.00256242
-8.96233e-07
0.00256179
-8.99714e-07
0.00256115
-9.03352e-07
0.00256051
-9.07172e-07
0.00255987
-9.11189e-07
0.00255923
-9.15446e-07
0.00255859
-9.19993e-07
0.00255795
-9.24718e-07
0.00255731
-9.29759e-07
0.00255666
-9.35073e-07
0.00255602
-9.40698e-07
0.00255537
-9.46669e-07
0.00255472
-9.52968e-07
0.00255407
-9.59612e-07
0.00255342
-9.66675e-07
0.00255277
-9.7403e-07
0.00255212
-9.82021e-07
0.00255146
-9.89969e-07
0.00255081
-1.00016e-06
0.00255015
-1.00692e-06
0.0025495
-1.02506e-06
0.00254885
-1.02363e-06
0.0025482
-1.07068e-06
0.00254756
-1.05037e-06
0.00254691
-1.1648e-06
0.00254628
-1.18659e-06
0.00254559
-1.35994e-06
0.00254491
-1.49111e-06
-1.61497e-06
0.00262855
-5.58782e-07
0.0026281
-5.7684e-07
0.00262766
-6.04492e-07
0.00262722
-6.10755e-07
0.00262677
-6.11845e-07
0.00262632
-6.17697e-07
0.00262587
-6.23336e-07
0.00262542
-6.26996e-07
0.00262497
-6.29854e-07
0.00262451
-6.32581e-07
0.00262406
-6.35089e-07
0.0026236
-6.37444e-07
0.00262314
-6.39693e-07
0.00262267
-6.4187e-07
0.00262221
-6.44066e-07
0.00262174
-6.4621e-07
0.00262128
-6.48301e-07
0.00262081
-6.50396e-07
0.00262033
-6.52472e-07
0.00261986
-6.54519e-07
0.00261939
-6.56577e-07
0.00261891
-6.58636e-07
0.00261843
-6.60698e-07
0.00261795
-6.62744e-07
0.00261747
-6.64768e-07
0.00261699
-6.66787e-07
0.0026165
-6.68754e-07
0.00261601
-6.70765e-07
0.00261552
-6.72762e-07
0.00261503
-6.74731e-07
0.00261454
-6.76678e-07
0.00261405
-6.78645e-07
0.00261355
-6.80605e-07
0.00261305
-6.82555e-07
0.00261255
-6.84457e-07
0.00261205
-6.86441e-07
0.00261155
-6.88389e-07
0.00261105
-6.90301e-07
0.00261054
-6.9221e-07
0.00261003
-6.94121e-07
0.00260952
-6.96002e-07
0.00260901
-6.97858e-07
0.0026085
-6.99719e-07
0.00260799
-7.01581e-07
0.00260747
-7.03438e-07
0.00260695
-7.05319e-07
0.00260643
-7.0718e-07
0.00260591
-7.09043e-07
0.00260539
-7.10919e-07
0.00260487
-7.12775e-07
0.00260434
-7.14602e-07
0.00260381
-7.1643e-07
0.00260328
-7.18246e-07
0.00260275
-7.20063e-07
0.00260222
-7.21841e-07
0.00260169
-7.23648e-07
0.00260115
-7.25434e-07
0.00260061
-7.27237e-07
0.00260007
-7.2904e-07
0.00259953
-7.30832e-07
0.00259899
-7.32614e-07
0.00259845
-7.34445e-07
0.0025979
-7.36236e-07
0.00259736
-7.3801e-07
0.00259681
-7.39794e-07
0.00259626
-7.41592e-07
0.00259571
-7.43345e-07
0.00259515
-7.45105e-07
0.0025946
-7.46881e-07
0.00259404
-7.48625e-07
0.00259348
-7.50358e-07
0.00259292
-7.52107e-07
0.00259236
-7.53845e-07
0.0025918
-7.55602e-07
0.00259124
-7.5735e-07
0.00259067
-7.59089e-07
0.0025901
-7.60822e-07
0.00258953
-7.62565e-07
0.00258896
-7.64318e-07
0.00258839
-7.66043e-07
0.00258782
-7.67772e-07
0.00258724
-7.69511e-07
0.00258667
-7.7126e-07
0.00258609
-7.72996e-07
0.00258551
-7.74745e-07
0.00258493
-7.76472e-07
0.00258435
-7.782e-07
0.00258376
-7.7992e-07
0.00258318
-7.81637e-07
0.00258259
-7.8334e-07
0.002582
-7.85063e-07
0.00258141
-7.86805e-07
0.00258082
-7.88572e-07
0.00258023
-7.90353e-07
0.00257963
-7.92112e-07
0.00257904
-7.93863e-07
0.00257844
-7.95618e-07
0.00257784
-7.97419e-07
0.00257724
-7.99235e-07
0.00257664
-8.01062e-07
0.00257604
-8.0289e-07
0.00257543
-8.04721e-07
0.00257483
-8.06568e-07
0.00257422
-8.08459e-07
0.00257361
-8.10385e-07
0.002573
-8.12344e-07
0.00257239
-8.14331e-07
0.00257178
-8.16356e-07
0.00257116
-8.18424e-07
0.00257055
-8.205e-07
0.00256993
-8.22627e-07
0.00256931
-8.24832e-07
0.00256869
-8.27075e-07
0.00256807
-8.29343e-07
0.00256745
-8.31755e-07
0.00256683
-8.34231e-07
0.0025662
-8.36791e-07
0.00256557
-8.39438e-07
0.00256495
-8.42197e-07
0.00256432
-8.45046e-07
0.00256369
-8.48031e-07
0.00256305
-8.51138e-07
0.00256242
-8.54377e-07
0.00256179
-8.57842e-07
0.00256115
-8.61442e-07
0.00256051
-8.65219e-07
0.00255987
-8.69229e-07
0.00255923
-8.73481e-07
0.00255859
-8.779e-07
0.00255795
-8.82664e-07
0.00255731
-8.87665e-07
0.00255666
-8.92981e-07
0.00255602
-8.98632e-07
0.00255537
-9.0465e-07
0.00255472
-9.10967e-07
0.00255407
-9.1771e-07
0.00255342
-9.24975e-07
0.00255277
-9.32622e-07
0.00255211
-9.41024e-07
0.00255146
-9.49484e-07
0.00255081
-9.60336e-07
0.00255015
-9.68428e-07
0.0025495
-9.87605e-07
0.00254885
-9.90024e-07
0.0025482
-1.03624e-06
0.00254755
-1.02908e-06
0.0025469
-1.12873e-06
0.00254626
-1.17073e-06
0.00254557
-1.29595e-06
0.0025449
-1.44465e-06
0.00254425
-1.5312e-06
-1.70177e-06
0.00262854
-5.0997e-07
0.0026281
-5.37174e-07
0.00262766
-5.71398e-07
0.00262722
-5.74875e-07
0.00262677
-5.74405e-07
0.00262632
-5.80993e-07
0.00262587
-5.86802e-07
0.00262542
-5.9012e-07
0.00262497
-5.92787e-07
0.00262451
-5.95331e-07
0.00262406
-5.97685e-07
0.0026236
-5.99957e-07
0.00262314
-6.02124e-07
0.00262267
-6.04223e-07
0.00262221
-6.06323e-07
0.00262174
-6.08411e-07
0.00262128
-6.1044e-07
0.00262081
-6.12469e-07
0.00262033
-6.14545e-07
0.00261986
-6.16528e-07
0.00261939
-6.1852e-07
0.00261891
-6.2053e-07
0.00261843
-6.22555e-07
0.00261795
-6.2456e-07
0.00261747
-6.26538e-07
0.00261698
-6.28488e-07
0.0026165
-6.30482e-07
0.00261601
-6.32466e-07
0.00261552
-6.34383e-07
0.00261503
-6.36316e-07
0.00261454
-6.38208e-07
0.00261405
-6.40135e-07
0.00261355
-6.42054e-07
0.00261305
-6.43968e-07
0.00261255
-6.45888e-07
0.00261205
-6.4781e-07
0.00261155
-6.4971e-07
0.00261105
-6.516e-07
0.00261054
-6.5344e-07
0.00261003
-6.55299e-07
0.00260952
-6.57156e-07
0.00260901
-6.58989e-07
0.0026085
-6.60815e-07
0.00260799
-6.62671e-07
0.00260747
-6.64479e-07
0.00260695
-6.66273e-07
0.00260643
-6.6809e-07
0.00260591
-6.69936e-07
0.00260539
-6.7181e-07
0.00260487
-6.73615e-07
0.00260434
-6.7541e-07
0.00260381
-6.77196e-07
0.00260328
-6.78956e-07
0.00260275
-6.80736e-07
0.00260222
-6.82514e-07
0.00260169
-6.84277e-07
0.00260115
-6.86005e-07
0.00260061
-6.87757e-07
0.00260007
-6.8951e-07
0.00259953
-6.9128e-07
0.00259899
-6.93045e-07
0.00259845
-6.94861e-07
0.0025979
-6.96593e-07
0.00259736
-6.98337e-07
0.00259681
-7.00081e-07
0.00259626
-7.01816e-07
0.00259571
-7.03554e-07
0.00259515
-7.05294e-07
0.0025946
-7.07043e-07
0.00259404
-7.08722e-07
0.00259348
-7.10427e-07
0.00259292
-7.12117e-07
0.00259236
-7.13833e-07
0.0025918
-7.15544e-07
0.00259124
-7.17255e-07
0.00259067
-7.18964e-07
0.0025901
-7.20703e-07
0.00258953
-7.22379e-07
0.00258896
-7.24079e-07
0.00258839
-7.25783e-07
0.00258782
-7.27483e-07
0.00258724
-7.29185e-07
0.00258667
-7.30892e-07
0.00258609
-7.32608e-07
0.00258551
-7.34328e-07
0.00258493
-7.36005e-07
0.00258435
-7.37685e-07
0.00258376
-7.39374e-07
0.00258318
-7.41052e-07
0.00258259
-7.42721e-07
0.002582
-7.44414e-07
0.00258141
-7.46124e-07
0.00258082
-7.47849e-07
0.00258023
-7.49605e-07
0.00257963
-7.51305e-07
0.00257904
-7.53031e-07
0.00257844
-7.54781e-07
0.00257784
-7.56546e-07
0.00257724
-7.58317e-07
0.00257664
-7.60092e-07
0.00257604
-7.61886e-07
0.00257543
-7.637e-07
0.00257483
-7.65494e-07
0.00257422
-7.6735e-07
0.00257361
-7.6923e-07
0.002573
-7.71156e-07
0.00257239
-7.73123e-07
0.00257178
-7.75109e-07
0.00257116
-7.77121e-07
0.00257055
-7.79156e-07
0.00256993
-7.81245e-07
0.00256931
-7.83428e-07
0.00256869
-7.85634e-07
0.00256807
-7.87886e-07
0.00256745
-7.90223e-07
0.00256683
-7.92672e-07
0.0025662
-7.95199e-07
0.00256557
-7.97803e-07
0.00256495
-8.00529e-07
0.00256432
-8.03325e-07
0.00256369
-8.06237e-07
0.00256305
-8.09313e-07
0.00256242
-8.12556e-07
0.00256179
-8.15937e-07
0.00256115
-8.19499e-07
0.00256051
-8.2323e-07
0.00255987
-8.2718e-07
0.00255923
-8.3139e-07
0.00255859
-8.35892e-07
0.00255795
-8.4055e-07
0.00255731
-8.45559e-07
0.00255666
-8.50852e-07
0.00255601
-8.56513e-07
0.00255537
-8.62605e-07
0.00255472
-8.68989e-07
0.00255407
-8.75844e-07
0.00255342
-8.83224e-07
0.00255277
-8.91106e-07
0.00255211
-8.99836e-07
0.00255146
-9.08856e-07
0.00255081
-9.20289e-07
0.00255015
-9.29949e-07
0.0025495
-9.49392e-07
0.00254885
-9.56539e-07
0.00254819
-9.99693e-07
0.00254755
-1.00518e-06
0.00254689
-1.09102e-06
0.00254624
-1.14564e-06
0.00254557
-1.2458e-06
0.00254488
-1.37738e-06
0.00254421
-1.48685e-06
0.00254346
-1.51949e-06
-1.59132e-06
0.00262854
-4.58536e-07
0.0026281
-4.98735e-07
0.00262766
-5.39622e-07
0.00262722
-5.38835e-07
0.00262677
-5.36951e-07
0.00262632
-5.4454e-07
0.00262587
-5.50366e-07
0.00262542
-5.53306e-07
0.00262497
-5.55693e-07
0.00262451
-5.58108e-07
0.00262406
-5.60359e-07
0.0026236
-5.62417e-07
0.00262314
-5.64549e-07
0.00262267
-5.66532e-07
0.00262221
-5.68597e-07
0.00262174
-5.7062e-07
0.00262128
-5.72602e-07
0.00262081
-5.7459e-07
0.00262033
-5.76576e-07
0.00261986
-5.78514e-07
0.00261939
-5.80451e-07
0.00261891
-5.82437e-07
0.00261843
-5.84405e-07
0.00261795
-5.86377e-07
0.00261747
-5.88327e-07
0.00261698
-5.90265e-07
0.0026165
-5.92183e-07
0.00261601
-5.94093e-07
0.00261552
-5.96014e-07
0.00261503
-5.97911e-07
0.00261454
-5.99731e-07
0.00261405
-6.01649e-07
0.00261355
-6.03532e-07
0.00261305
-6.05394e-07
0.00261255
-6.07256e-07
0.00261205
-6.09196e-07
0.00261155
-6.11044e-07
0.00261105
-6.12856e-07
0.00261054
-6.14693e-07
0.00261003
-6.1653e-07
0.00260952
-6.18328e-07
0.00260901
-6.20115e-07
0.0026085
-6.21893e-07
0.00260799
-6.23699e-07
0.00260747
-6.25484e-07
0.00260695
-6.27277e-07
0.00260643
-6.29046e-07
0.00260591
-6.30868e-07
0.00260539
-6.32642e-07
0.00260487
-6.34459e-07
0.00260434
-6.36214e-07
0.00260381
-6.37965e-07
0.00260328
-6.39691e-07
0.00260275
-6.41428e-07
0.00260222
-6.43154e-07
0.00260169
-6.44864e-07
0.00260115
-6.46563e-07
0.00260061
-6.48316e-07
0.00260007
-6.50021e-07
0.00259953
-6.51754e-07
0.00259899
-6.53465e-07
0.00259845
-6.55218e-07
0.0025979
-6.56958e-07
0.00259736
-6.58658e-07
0.00259681
-6.60351e-07
0.00259626
-6.62072e-07
0.00259571
-6.63783e-07
0.00259515
-6.65475e-07
0.0025946
-6.67172e-07
0.00259404
-6.68825e-07
0.00259348
-6.70492e-07
0.00259292
-6.72138e-07
0.00259236
-6.73811e-07
0.0025918
-6.7551e-07
0.00259124
-6.77185e-07
0.00259067
-6.78856e-07
0.0025901
-6.80512e-07
0.00258953
-6.82187e-07
0.00258896
-6.83851e-07
0.00258839
-6.85508e-07
0.00258782
-6.872e-07
0.00258724
-6.88867e-07
0.00258667
-6.90539e-07
0.00258609
-6.92193e-07
0.00258551
-6.93866e-07
0.00258493
-6.95545e-07
0.00258435
-6.97186e-07
0.00258376
-6.98851e-07
0.00258318
-7.00487e-07
0.00258259
-7.02097e-07
0.002582
-7.03761e-07
0.00258141
-7.05445e-07
0.00258082
-7.07125e-07
0.00258023
-7.08829e-07
0.00257963
-7.10516e-07
0.00257904
-7.12189e-07
0.00257844
-7.13925e-07
0.00257784
-7.15652e-07
0.00257724
-7.17381e-07
0.00257664
-7.19131e-07
0.00257604
-7.20886e-07
0.00257543
-7.22639e-07
0.00257483
-7.24417e-07
0.00257422
-7.26239e-07
0.00257361
-7.28098e-07
0.002573
-7.29983e-07
0.00257239
-7.31916e-07
0.00257178
-7.33865e-07
0.00257116
-7.3584e-07
0.00257055
-7.3781e-07
0.00256993
-7.39871e-07
0.00256931
-7.41995e-07
0.00256869
-7.44162e-07
0.00256807
-7.46385e-07
0.00256745
-7.48672e-07
0.00256683
-7.511e-07
0.0025662
-7.53582e-07
0.00256557
-7.56145e-07
0.00256495
-7.58814e-07
0.00256432
-7.61585e-07
0.00256369
-7.64476e-07
0.00256305
-7.67502e-07
0.00256242
-7.7067e-07
0.00256178
-7.74028e-07
0.00256115
-7.77536e-07
0.00256051
-7.81222e-07
0.00255987
-7.8515e-07
0.00255923
-7.89373e-07
0.00255859
-7.93715e-07
0.00255795
-7.98446e-07
0.00255731
-8.03403e-07
0.00255666
-8.08662e-07
0.00255601
-8.14331e-07
0.00255537
-8.20454e-07
0.00255472
-8.26922e-07
0.00255407
-8.33884e-07
0.00255342
-8.41429e-07
0.00255276
-8.49551e-07
0.00255211
-8.58599e-07
0.00255146
-8.68132e-07
0.0025508
-8.80116e-07
0.00255015
-8.9104e-07
0.0025495
-9.10942e-07
0.00254884
-9.21729e-07
0.00254819
-9.62457e-07
0.00254754
-9.77737e-07
0.00254688
-1.05153e-06
0.00254623
-1.11408e-06
0.00254555
-1.1955e-06
0.00254487
-1.31904e-06
0.00254418
-1.42262e-06
0.0025435
-1.46811e-06
-1.56456e-06
0.00262854
-4.04838e-07
0.0026281
-4.6309e-07
0.00262766
-5.09198e-07
0.00262722
-5.02273e-07
0.00262677
-4.99497e-07
0.00262632
-5.08349e-07
0.00262587
-5.14053e-07
0.00262542
-5.16447e-07
0.00262497
-5.18608e-07
0.00262451
-5.20871e-07
0.00262406
-5.22958e-07
0.0026236
-5.24944e-07
0.00262314
-5.26996e-07
0.00262267
-5.28887e-07
0.00262221
-5.30856e-07
0.00262174
-5.32815e-07
0.00262128
-5.34744e-07
0.00262081
-5.36675e-07
0.00262033
-5.3861e-07