/*--------------------------------*- C++ -*----------------------------------*\
| =========                 |                                                 |
| \\      /  F ield         | OpenFOAM: The Open Source CFD Toolbox           |
|  \\    /   O peration     | Version:  2512                                  |
|   \\  /    A nd           | Website:  www.openfoam.com                      |
|    \\/     M anipulation  |                                                 |
\*---------------------------------------------------------------------------*/
FoamFile
{
    version     2.0;
    format      ascii;
    arch        "LSB;label=32;scalar=64";
    class       surfaceScalarField;
    location    "0.1";
    object      phiB;
}
// * * * * * * * * * * * * * * * * * * * * * * * * * * * * * * * * * * * * * //

dimensions      [1 2 -2 0 0 -1 0];

oriented        oriented;

internalField   nonuniform List<scalar> 
16431
(
-1.84586e-10
0.00192
-1.84614e-10
0.00192
-1.84569e-10
0.00192
-1.84462e-10
0.00192
-1.84339e-10
0.00192
-1.84218e-10
0.00192
-1.84099e-10
0.00192
-1.83981e-10
0.00192
-1.83869e-10
0.00192
-1.83764e-10
0.00192
-1.83663e-10
0.00192
-1.83568e-10
0.00192
-1.83477e-10
0.00192
-1.83391e-10
0.00192
-1.83307e-10
0.00192
-1.83226e-10
0.00192
-1.83148e-10
0.00192
-1.83072e-10
0.00192
-1.82997e-10
0.00192
-1.82924e-10
0.00192
-1.82852e-10
0.00192
-1.82781e-10
0.00192
-1.82711e-10
0.00192
-1.82642e-10
0.00192
-1.82573e-10
0.00192
-1.82505e-10
0.00192
-1.82437e-10
0.00192
-1.82369e-10
0.00192
-1.82302e-10
0.00192
-1.82235e-10
0.00192
-1.82168e-10
0.00192
-1.82101e-10
0.00192
-1.82034e-10
0.00192
-1.81967e-10
0.00192
-1.81901e-10
0.00192
-1.81834e-10
0.00192
-1.81767e-10
0.00192
-1.81701e-10
0.00192
-1.81634e-10
0.00192
-1.81567e-10
0.00192
-1.815e-10
0.00192
-1.81434e-10
0.00192
-1.81367e-10
0.00192
-1.813e-10
0.00192
-1.81233e-10
0.00192
-1.81166e-10
0.00192
-1.81099e-10
0.00192
-1.81032e-10
0.00192
-1.80964e-10
0.00192
-1.80897e-10
0.00192
-1.8083e-10
0.00192
-1.80762e-10
0.00192
-1.80694e-10
0.00192
-1.80627e-10
0.00192
-1.80559e-10
0.00192
-1.80491e-10
0.00192
-1.80424e-10
0.00192
-1.80355e-10
0.00192
-1.80287e-10
0.00192
-1.80219e-10
0.00192
-1.80151e-10
0.00192
-1.80083e-10
0.00192
-1.80014e-10
0.00192
-1.79946e-10
0.00192
-1.79878e-10
0.00192
-1.7981e-10
0.00192
-1.79742e-10
0.00192
-1.79674e-10
0.00192
-1.79606e-10
0.00192
-1.79538e-10
0.00192
-1.7947e-10
0.00192
-1.79402e-10
0.00192
-1.79334e-10
0.00192
-1.79266e-10
0.00192
-1.79198e-10
0.00192
-1.7913e-10
0.00192
-1.79063e-10
0.00192
-1.78995e-10
0.00192
-1.78928e-10
0.00192
-1.78861e-10
0.00192
-1.78794e-10
0.00192
-1.78727e-10
0.00192
-1.78661e-10
0.00192
-1.78594e-10
0.00192
-1.78529e-10
0.00192
-1.78463e-10
0.00192
-1.78397e-10
0.00192
-1.78332e-10
0.00192
-1.78267e-10
0.00192
-1.78203e-10
0.00192
-1.78139e-10
0.00192
-1.78075e-10
0.00192
-1.78012e-10
0.00192
-1.77949e-10
0.00192
-1.77887e-10
0.00192
-1.77825e-10
0.00192
-1.77764e-10
0.00192
-1.77703e-10
0.00192
-1.77643e-10
0.00192
-1.77583e-10
0.00192
-1.77525e-10
0.00192
-1.77467e-10
0.00192
-1.7741e-10
0.00192
-1.77354e-10
0.00192
-1.77299e-10
0.00192
-1.77246e-10
0.00192
-1.77194e-10
0.00192
-1.77142e-10
0.00192
-1.77092e-10
0.00192
-1.77041e-10
0.00192
-1.76991e-10
0.00192
-1.76943e-10
0.00192
-1.76895e-10
0.00192
-1.7685e-10
0.00192
-1.76805e-10
0.00192
-1.76761e-10
0.00192
-1.7672e-10
0.00192
-1.7668e-10
0.00192
-1.76641e-10
0.00192
-1.76604e-10
0.00192
-1.76566e-10
0.00192
-1.7653e-10
0.00192
-1.76494e-10
0.00192
-1.76459e-10
0.00192
-1.76424e-10
0.00192
-1.76388e-10
0.00192
-1.76354e-10
0.00192
-1.76318e-10
0.00192
-1.76279e-10
0.00192
-1.76237e-10
0.00192
-1.7619e-10
0.00192
-1.76137e-10
0.00192
-1.76076e-10
0.00192
-1.76006e-10
0.00192
-1.75923e-10
0.00192
-1.75822e-10
0.00192
-1.75701e-10
0.00192
-1.75556e-10
0.00192
-1.75376e-10
0.00192
-1.75158e-10
0.00192
-1.74892e-10
0.00192
-1.74565e-10
0.00192
-1.74167e-10
0.00192
-1.73673e-10
0.00192
-1.73064e-10
0.00192
-1.7229e-10
0.00192
-1.71304e-10
0.00192
0.00192
-5.17296e-10
0.00192
-5.17183e-10
0.00192
-5.16985e-10
0.00192
-5.16723e-10
0.00192
-5.16449e-10
0.00192
-5.16183e-10
0.00192
-5.15921e-10
0.00192
-5.15664e-10
0.00192
-5.15415e-10
0.00192
-5.15174e-10
0.00192
-5.1494e-10
0.00192
-5.14713e-10
0.00192
-5.14491e-10
0.00192
-5.14274e-10
0.00192
-5.14061e-10
0.00192
-5.13852e-10
0.00192
-5.13646e-10
0.00192
-5.13442e-10
0.00192
-5.1324e-10
0.00192
-5.13039e-10
0.00192
-5.1284e-10
0.00192
-5.12642e-10
0.00192
-5.12444e-10
0.00192
-5.12247e-10
0.00192
-5.12051e-10
0.00192
-5.11855e-10
0.00192
-5.11659e-10
0.00192
-5.11463e-10
0.00192
-5.11268e-10
0.00192
-5.11072e-10
0.00192
-5.10876e-10
0.00192
-5.1068e-10
0.00192
-5.10484e-10
0.00192
-5.10287e-10
0.00192
-5.10091e-10
0.00192
-5.09894e-10
0.00192
-5.09696e-10
0.00192
-5.09499e-10
0.00192
-5.09301e-10
0.00192
-5.09103e-10
0.00192
-5.08904e-10
0.00192
-5.08706e-10
0.00192
-5.08507e-10
0.00192
-5.08307e-10
0.00192
-5.08108e-10
0.00192
-5.07908e-10
0.00192
-5.07707e-10
0.00192
-5.07507e-10
0.00192
-5.07306e-10
0.00192
-5.07105e-10
0.00192
-5.06903e-10
0.00192
-5.06702e-10
0.00192
-5.065e-10
0.00192
-5.06297e-10
0.00192
-5.06095e-10
0.00192
-5.05892e-10
0.00192
-5.05689e-10
0.00192
-5.05486e-10
0.00192
-5.05282e-10
0.00192
-5.05078e-10
0.00192
-5.04874e-10
0.00192
-5.0467e-10
0.00192
-5.04466e-10
0.00192
-5.04262e-10
0.00192
-5.04057e-10
0.00192
-5.03853e-10
0.00192
-5.03648e-10
0.00192
-5.03443e-10
0.00192
-5.03239e-10
0.00192
-5.03034e-10
0.00192
-5.02829e-10
0.00192
-5.02624e-10
0.00192
-5.02419e-10
0.00192
-5.02213e-10
0.00192
-5.02008e-10
0.00192
-5.01803e-10
0.00192
-5.01598e-10
0.00192
-5.01393e-10
0.00192
-5.01188e-10
0.00192
-5.00984e-10
0.00192
-5.00779e-10
0.00192
-5.00575e-10
0.00192
-5.00372e-10
0.00192
-5.00168e-10
0.00192
-4.99965e-10
0.00192
-4.99762e-10
0.00192
-4.99559e-10
0.00192
-4.99357e-10
0.00192
-4.99155e-10
0.00192
-4.98954e-10
0.00192
-4.98753e-10
0.00192
-4.98553e-10
0.00192
-4.98354e-10
0.00192
-4.98155e-10
0.00192
-4.97956e-10
0.00192
-4.97759e-10
0.00192
-4.97562e-10
0.00192
-4.97366e-10
0.00192
-4.97171e-10
0.00192
-4.96978e-10
0.00192
-4.96785e-10
0.00192
-4.96593e-10
0.00192
-4.96403e-10
0.00192
-4.96215e-10
0.00192
-4.96028e-10
0.00192
-4.95843e-10
0.00192
-4.9566e-10
0.00192
-4.95478e-10
0.00192
-4.95297e-10
0.00192
-4.95118e-10
0.00192
-4.9494e-10
0.00192
-4.94764e-10
0.00192
-4.94591e-10
0.00192
-4.94419e-10
0.00192
-4.9425e-10
0.00192
-4.94083e-10
0.00192
-4.93919e-10
0.00192
-4.93757e-10
0.00192
-4.93598e-10
0.00192
-4.93441e-10
0.00192
-4.93285e-10
0.00192
-4.93132e-10
0.00192
-4.9298e-10
0.00192
-4.9283e-10
0.00192
-4.92682e-10
0.00192
-4.92535e-10
0.00192
-4.9239e-10
0.00192
-4.92244e-10
0.00192
-4.92097e-10
0.00192
-4.91949e-10
0.00192
-4.91796e-10
0.00192
-4.9164e-10
0.00192
-4.91476e-10
0.00192
-4.91305e-10
0.00192
-4.91122e-10
0.00192
-4.90922e-10
0.00192
-4.90704e-10
0.00192
-4.90463e-10
0.00192
-4.90192e-10
0.00192
-4.89884e-10
0.00192
-4.89533e-10
0.00192
-4.89126e-10
0.00192
-4.88658e-10
0.00192
-4.88111e-10
0.00192
-4.87468e-10
0.00192
-4.86741e-10
0.00192
-4.85807e-10
0.00192
-4.84615e-10
0.00192
0.00192
-8.50011e-10
0.00192
-8.49753e-10
0.00192
-8.49394e-10
0.00192
-8.48971e-10
0.00192
-8.48548e-10
0.00192
-8.48138e-10
0.00192
-8.47734e-10
0.00192
-8.47338e-10
0.00192
-8.46952e-10
0.00192
-8.46576e-10
0.00192
-8.46209e-10
0.00192
-8.4585e-10
0.00192
-8.45497e-10
0.00192
-8.4515e-10
0.00192
-8.44808e-10
0.00192
-8.44471e-10
0.00192
-8.44136e-10
0.00192
-8.43804e-10
0.00192
-8.43475e-10
0.00192
-8.43147e-10
0.00192
-8.42821e-10
0.00192
-8.42495e-10
0.00192
-8.4217e-10
0.00192
-8.41846e-10
0.00192
-8.41523e-10
0.00192
-8.41199e-10
0.00192
-8.40875e-10
0.00192
-8.40551e-10
0.00192
-8.40227e-10
0.00192
-8.39902e-10
0.00192
-8.39578e-10
0.00192
-8.39253e-10
0.00192
-8.38927e-10
0.00192
-8.38601e-10
0.00192
-8.38274e-10
0.00192
-8.37947e-10
0.00192
-8.37619e-10
0.00192
-8.37291e-10
0.00192
-8.36962e-10
0.00192
-8.36632e-10
0.00192
-8.36302e-10
0.00192
-8.35971e-10
0.00192
-8.3564e-10
0.00192
-8.35308e-10
0.00192
-8.34976e-10
0.00192
-8.34643e-10
0.00192
-8.3431e-10
0.00192
-8.33976e-10
0.00192
-8.33641e-10
0.00192
-8.33307e-10
0.00192
-8.32971e-10
0.00192
-8.32635e-10
0.00192
-8.32299e-10
0.00192
-8.31962e-10
0.00192
-8.31624e-10
0.00192
-8.31287e-10
0.00192
-8.30948e-10
0.00192
-8.3061e-10
0.00192
-8.30271e-10
0.00192
-8.29931e-10
0.00192
-8.29591e-10
0.00192
-8.29252e-10
0.00192
-8.28911e-10
0.00192
-8.28571e-10
0.00192
-8.2823e-10
0.00192
-8.27889e-10
0.00192
-8.27548e-10
0.00192
-8.27207e-10
0.00192
-8.26865e-10
0.00192
-8.26523e-10
0.00192
-8.26181e-10
0.00192
-8.25839e-10
0.00192
-8.25497e-10
0.00192
-8.25155e-10
0.00192
-8.24812e-10
0.00192
-8.2447e-10
0.00192
-8.24127e-10
0.00192
-8.23785e-10
0.00192
-8.23443e-10
0.00192
-8.23101e-10
0.00192
-8.22759e-10
0.00192
-8.22418e-10
0.00192
-8.22076e-10
0.00192
-8.21736e-10
0.00192
-8.21395e-10
0.00192
-8.21055e-10
0.00192
-8.20715e-10
0.00192
-8.20376e-10
0.00192
-8.20037e-10
0.00192
-8.19699e-10
0.00192
-8.19361e-10
0.00192
-8.19025e-10
0.00192
-8.18689e-10
0.00192
-8.18354e-10
0.00192
-8.18019e-10
0.00192
-8.17686e-10
0.00192
-8.17354e-10
0.00192
-8.17023e-10
0.00192
-8.16694e-10
0.00192
-8.16365e-10
0.00192
-8.16039e-10
0.00192
-8.15714e-10
0.00192
-8.1539e-10
0.00192
-8.15069e-10
0.00192
-8.1475e-10
0.00192
-8.14434e-10
0.00192
-8.14119e-10
0.00192
-8.13807e-10
0.00192
-8.13496e-10
0.00192
-8.13188e-10
0.00192
-8.12882e-10
0.00192
-8.12579e-10
0.00192
-8.12279e-10
0.00192
-8.11982e-10
0.00192
-8.11688e-10
0.00192
-8.11398e-10
0.00192
-8.11111e-10
0.00192
-8.10827e-10
0.00192
-8.10548e-10
0.00192
-8.10271e-10
0.00192
-8.09997e-10
0.00192
-8.09726e-10
0.00192
-8.09458e-10
0.00192
-8.09194e-10
0.00192
-8.08933e-10
0.00192
-8.08674e-10
0.00192
-8.08418e-10
0.00192
-8.08163e-10
0.00192
-8.07908e-10
0.00192
-8.07653e-10
0.00192
-8.07395e-10
0.00192
-8.07135e-10
0.00192
-8.06869e-10
0.00192
-8.06596e-10
0.00192
-8.06313e-10
0.00192
-8.06016e-10
0.00192
-8.05702e-10
0.00192
-8.05367e-10
0.00192
-8.05005e-10
0.00192
-8.04609e-10
0.00192
-8.04175e-10
0.00192
-8.03692e-10
0.00192
-8.03158e-10
0.00192
-8.0256e-10
0.00192
-8.01885e-10
0.00192
-8.01183e-10
0.00192
-8.0027e-10
0.00192
-7.99132e-10
0.00192
-7.96854e-10
0.00192
0.00192
-1.18273e-09
0.00192
-1.18232e-09
0.00192
-1.18179e-09
0.00192
-1.18121e-09
0.00192
-1.18064e-09
0.00192
-1.18008e-09
0.00192
-1.17954e-09
0.00192
-1.179e-09
0.00192
-1.17848e-09
0.00192
-1.17797e-09
0.00192
-1.17747e-09
0.00192
-1.17698e-09
0.00192
-1.1765e-09
0.00192
-1.17602e-09
0.00192
-1.17555e-09
0.00192
-1.17508e-09
0.00192
-1.17462e-09
0.00192
-1.17416e-09
0.00192
-1.1737e-09
0.00192
-1.17325e-09
0.00192
-1.17279e-09
0.00192
-1.17234e-09
0.00192
-1.17189e-09
0.00192
-1.17144e-09
0.00192
-1.17099e-09
0.00192
-1.17054e-09
0.00192
-1.17008e-09
0.00192
-1.16963e-09
0.00192
-1.16918e-09
0.00192
-1.16873e-09
0.00192
-1.16827e-09
0.00192
-1.16782e-09
0.00192
-1.16736e-09
0.00192
-1.16691e-09
0.00192
-1.16645e-09
0.00192
-1.16599e-09
0.00192
-1.16553e-09
0.00192
-1.16508e-09
0.00192
-1.16462e-09
0.00192
-1.16415e-09
0.00192
-1.16369e-09
0.00192
-1.16323e-09
0.00192
-1.16277e-09
0.00192
-1.1623e-09
0.00192
-1.16184e-09
0.00192
-1.16137e-09
0.00192
-1.16091e-09
0.00192
-1.16044e-09
0.00192
-1.15997e-09
0.00192
-1.1595e-09
0.00192
-1.15903e-09
0.00192
-1.15856e-09
0.00192
-1.15809e-09
0.00192
-1.15762e-09
0.00192
-1.15715e-09
0.00192
-1.15667e-09
0.00192
-1.1562e-09
0.00192
-1.15573e-09
0.00192
-1.15525e-09
0.00192
-1.15478e-09
0.00192
-1.1543e-09
0.00192
-1.15383e-09
0.00192
-1.15335e-09
0.00192
-1.15287e-09
0.00192
-1.1524e-09
0.00192
-1.15192e-09
0.00192
-1.15144e-09
0.00192
-1.15096e-09
0.00192
-1.15048e-09
0.00192
-1.15001e-09
0.00192
-1.14953e-09
0.00192
-1.14905e-09
0.00192
-1.14857e-09
0.00192
-1.14809e-09
0.00192
-1.14761e-09
0.00192
-1.14713e-09
0.00192
-1.14665e-09
0.00192
-1.14617e-09
0.00192
-1.14569e-09
0.00192
-1.14521e-09
0.00192
-1.14473e-09
0.00192
-1.14425e-09
0.00192
-1.14378e-09
0.00192
-1.1433e-09
0.00192
-1.14282e-09
0.00192
-1.14234e-09
0.00192
-1.14186e-09
0.00192
-1.14139e-09
0.00192
-1.14091e-09
0.00192
-1.14044e-09
0.00192
-1.13996e-09
0.00192
-1.13949e-09
0.00192
-1.13902e-09
0.00192
-1.13855e-09
0.00192
-1.13808e-09
0.00192
-1.13761e-09
0.00192
-1.13714e-09
0.00192
-1.13667e-09
0.00192
-1.13621e-09
0.00192
-1.13575e-09
0.00192
-1.13529e-09
0.00192
-1.13483e-09
0.00192
-1.13437e-09
0.00192
-1.13392e-09
0.00192
-1.13347e-09
0.00192
-1.13302e-09
0.00192
-1.13257e-09
0.00192
-1.13213e-09
0.00192
-1.13169e-09
0.00192
-1.13125e-09
0.00192
-1.13082e-09
0.00192
-1.13039e-09
0.00192
-1.12996e-09
0.00192
-1.12954e-09
0.00192
-1.12912e-09
0.00192
-1.12871e-09
0.00192
-1.1283e-09
0.00192
-1.12789e-09
0.00192
-1.12749e-09
0.00192
-1.12709e-09
0.00192
-1.1267e-09
0.00192
-1.12631e-09
0.00192
-1.12593e-09
0.00192
-1.12555e-09
0.00192
-1.12518e-09
0.00192
-1.1248e-09
0.00192
-1.12444e-09
0.00192
-1.12407e-09
0.00192
-1.12371e-09
0.00192
-1.12335e-09
0.00192
-1.12299e-09
0.00192
-1.12262e-09
0.00192
-1.12225e-09
0.00192
-1.12188e-09
0.00192
-1.1215e-09
0.00192
-1.1211e-09
0.00192
-1.12069e-09
0.00192
-1.12027e-09
0.00192
-1.11981e-09
0.00192
-1.11933e-09
0.00192
-1.11881e-09
0.00192
-1.11826e-09
0.00192
-1.11766e-09
0.00192
-1.11701e-09
0.00192
-1.1163e-09
0.00192
-1.11558e-09
0.00192
-1.11464e-09
0.00192
-1.11344e-09
0.00192
-1.11115e-09
0.00192
-1.10809e-09
0.00192
0.00192
-1.51544e-09
0.00192
-1.51489e-09
0.00192
-1.51418e-09
0.00192
-1.51343e-09
0.00192
-1.51271e-09
0.00192
-1.51202e-09
0.00192
-1.51133e-09
0.00192
-1.51066e-09
0.00192
-1.51e-09
0.00192
-1.50935e-09
0.00192
-1.50872e-09
0.00192
-1.5081e-09
0.00192
-1.50748e-09
0.00192
-1.50688e-09
0.00192
-1.50628e-09
0.00192
-1.50568e-09
0.00192
-1.50509e-09
0.00192
-1.50451e-09
0.00192
-1.50392e-09
0.00192
-1.50334e-09
0.00192
-1.50276e-09
0.00192
-1.50218e-09
0.00192
-1.5016e-09
0.00192
-1.50102e-09
0.00192
-1.50044e-09
0.00192
-1.49986e-09
0.00192
-1.49928e-09
0.00192
-1.4987e-09
0.00192
-1.49812e-09
0.00192
-1.49754e-09
0.00192
-1.49696e-09
0.00192
-1.49638e-09
0.00192
-1.49579e-09
0.00192
-1.49521e-09
0.00192
-1.49462e-09
0.00192
-1.49403e-09
0.00192
-1.49344e-09
0.00192
-1.49285e-09
0.00192
-1.49226e-09
0.00192
-1.49167e-09
0.00192
-1.49108e-09
0.00192
-1.49048e-09
0.00192
-1.48989e-09
0.00192
-1.48929e-09
0.00192
-1.48869e-09
0.00192
-1.48809e-09
0.00192
-1.48749e-09
0.00192
-1.48689e-09
0.00192
-1.48629e-09
0.00192
-1.48569e-09
0.00192
-1.48509e-09
0.00192
-1.48448e-09
0.00192
-1.48388e-09
0.00192
-1.48327e-09
0.00192
-1.48266e-09
0.00192
-1.48206e-09
0.00192
-1.48145e-09
0.00192
-1.48084e-09
0.00192
-1.48023e-09
0.00192
-1.47962e-09
0.00192
-1.47901e-09
0.00192
-1.47839e-09
0.00192
-1.47778e-09
0.00192
-1.47717e-09
0.00192
-1.47656e-09
0.00192
-1.47594e-09
0.00192
-1.47533e-09
0.00192
-1.47471e-09
0.00192
-1.4741e-09
0.00192
-1.47348e-09
0.00192
-1.47287e-09
0.00192
-1.47225e-09
0.00192
-1.47163e-09
0.00192
-1.47102e-09
0.00192
-1.4704e-09
0.00192
-1.46978e-09
0.00192
-1.46917e-09
0.00192
-1.46855e-09
0.00192
-1.46793e-09
0.00192
-1.46732e-09
0.00192
-1.4667e-09
0.00192
-1.46608e-09
0.00192
-1.46547e-09
0.00192
-1.46485e-09
0.00192
-1.46424e-09
0.00192
-1.46362e-09
0.00192
-1.46301e-09
0.00192
-1.46239e-09
0.00192
-1.46178e-09
0.00192
-1.46117e-09
0.00192
-1.46056e-09
0.00192
-1.45995e-09
0.00192
-1.45934e-09
0.00192
-1.45873e-09
0.00192
-1.45813e-09
0.00192
-1.45752e-09
0.00192
-1.45692e-09
0.00192
-1.45632e-09
0.00192
-1.45572e-09
0.00192
-1.45512e-09
0.00192
-1.45453e-09
0.00192
-1.45393e-09
0.00192
-1.45334e-09
0.00192
-1.45276e-09
0.00192
-1.45217e-09
0.00192
-1.45159e-09
0.00192
-1.45102e-09
0.00192
-1.45044e-09
0.00192
-1.44987e-09
0.00192
-1.44931e-09
0.00192
-1.44875e-09
0.00192
-1.44819e-09
0.00192
-1.44763e-09
0.00192
-1.44709e-09
0.00192
-1.44654e-09
0.00192
-1.446e-09
0.00192
-1.44547e-09
0.00192
-1.44495e-09
0.00192
-1.44442e-09
0.00192
-1.44391e-09
0.00192
-1.4434e-09
0.00192
-1.44289e-09
0.00192
-1.44239e-09
0.00192
-1.4419e-09
0.00192
-1.44141e-09
0.00192
-1.44093e-09
0.00192
-1.44045e-09
0.00192
-1.43997e-09
0.00192
-1.4395e-09
0.00192
-1.43904e-09
0.00192
-1.43857e-09
0.00192
-1.4381e-09
0.00192
-1.43763e-09
0.00192
-1.43716e-09
0.00192
-1.43667e-09
0.00192
-1.43618e-09
0.00192
-1.43568e-09
0.00192
-1.43516e-09
0.00192
-1.43461e-09
0.00192
-1.43404e-09
0.00192
-1.43345e-09
0.00192
-1.43281e-09
0.00192
-1.43215e-09
0.00192
-1.43144e-09
0.00192
-1.43069e-09
0.00192
-1.42992e-09
0.00192
-1.42891e-09
0.00192
-1.42758e-09
0.00192
-1.4253e-09
0.00192
-1.42207e-09
0.00192
0.00192
-1.84815e-09
0.00192
-1.84744e-09
0.00192
-1.84656e-09
0.00192
-1.84564e-09
0.00192
-1.84477e-09
0.00192
-1.84393e-09
0.00192
-1.84311e-09
0.00192
-1.8423e-09
0.00192
-1.8415e-09
0.00192
-1.84072e-09
0.00192
-1.83996e-09
0.00192
-1.83921e-09
0.00192
-1.83846e-09
0.00192
-1.83773e-09
0.00192
-1.837e-09
0.00192
-1.83628e-09
0.00192
-1.83556e-09
0.00192
-1.83484e-09
0.00192
-1.83413e-09
0.00192
-1.83342e-09
0.00192
-1.83272e-09
0.00192
-1.83201e-09
0.00192
-1.8313e-09
0.00192
-1.8306e-09
0.00192
-1.82989e-09
0.00192
-1.82918e-09
0.00192
-1.82848e-09
0.00192
-1.82777e-09
0.00192
-1.82706e-09
0.00192
-1.82635e-09
0.00192
-1.82564e-09
0.00192
-1.82493e-09
0.00192
-1.82421e-09
0.00192
-1.8235e-09
0.00192
-1.82278e-09
0.00192
-1.82206e-09
0.00192
-1.82134e-09
0.00192
-1.82062e-09
0.00192
-1.8199e-09
0.00192
-1.81918e-09
0.00192
-1.81845e-09
0.00192
-1.81772e-09
0.00192
-1.817e-09
0.00192
-1.81627e-09
0.00192
-1.81554e-09
0.00192
-1.81481e-09
0.00192
-1.81407e-09
0.00192
-1.81334e-09
0.00192
-1.8126e-09
0.00192
-1.81187e-09
0.00192
-1.81113e-09
0.00192
-1.81039e-09
0.00192
-1.80965e-09
0.00192
-1.80891e-09
0.00192
-1.80817e-09
0.00192
-1.80743e-09
0.00192
-1.80668e-09
0.00192
-1.80594e-09
0.00192
-1.80519e-09
0.00192
-1.80445e-09
0.00192
-1.8037e-09
0.00192
-1.80295e-09
0.00192
-1.80221e-09
0.00192
-1.80146e-09
0.00192
-1.80071e-09
0.00192
-1.79996e-09
0.00192
-1.79921e-09
0.00192
-1.79845e-09
0.00192
-1.7977e-09
0.00192
-1.79695e-09
0.00192
-1.7962e-09
0.00192
-1.79544e-09
0.00192
-1.79469e-09
0.00192
-1.79394e-09
0.00192
-1.79318e-09
0.00192
-1.79243e-09
0.00192
-1.79167e-09
0.00192
-1.79092e-09
0.00192
-1.79017e-09
0.00192
-1.78941e-09
0.00192
-1.78866e-09
0.00192
-1.7879e-09
0.00192
-1.78715e-09
0.00192
-1.7864e-09
0.00192
-1.78565e-09
0.00192
-1.78489e-09
0.00192
-1.78414e-09
0.00192
-1.78339e-09
0.00192
-1.78264e-09
0.00192
-1.78189e-09
0.00192
-1.78115e-09
0.00192
-1.7804e-09
0.00192
-1.77965e-09
0.00192
-1.77891e-09
0.00192
-1.77817e-09
0.00192
-1.77743e-09
0.00192
-1.77669e-09
0.00192
-1.77595e-09
0.00192
-1.77522e-09
0.00192
-1.77449e-09
0.00192
-1.77376e-09
0.00192
-1.77303e-09
0.00192
-1.77231e-09
0.00192
-1.77159e-09
0.00192
-1.77088e-09
0.00192
-1.77016e-09
0.00192
-1.76946e-09
0.00192
-1.76875e-09
0.00192
-1.76805e-09
0.00192
-1.76736e-09
0.00192
-1.76667e-09
0.00192
-1.76598e-09
0.00192
-1.7653e-09
0.00192
-1.76463e-09
0.00192
-1.76396e-09
0.00192
-1.7633e-09
0.00192
-1.76264e-09
0.00192
-1.76199e-09
0.00192
-1.76135e-09
0.00192
-1.76071e-09
0.00192
-1.76008e-09
0.00192
-1.75946e-09
0.00192
-1.75884e-09
0.00192
-1.75824e-09
0.00192
-1.75763e-09
0.00192
-1.75704e-09
0.00192
-1.75645e-09
0.00192
-1.75587e-09
0.00192
-1.75529e-09
0.00192
-1.75471e-09
0.00192
-1.75414e-09
0.00192
-1.75357e-09
0.00192
-1.753e-09
0.00192
-1.75242e-09
0.00192
-1.75184e-09
0.00192
-1.75125e-09
0.00192
-1.75065e-09
0.00192
-1.75004e-09
0.00192
-1.7494e-09
0.00192
-1.74875e-09
0.00192
-1.74807e-09
0.00192
-1.74736e-09
0.00192
-1.74663e-09
0.00192
-1.74586e-09
0.00192
-1.74504e-09
0.00192
-1.7442e-09
0.00192
-1.7431e-09
0.00192
-1.74163e-09
0.00192
-1.73933e-09
0.00192
-1.73613e-09
0.00192
-1.73258e-09
0.00192
0.00192
-2.18085e-09
0.00192
-2.17999e-09
0.00192
-2.17891e-09
0.00192
-2.17782e-09
0.00192
-2.17682e-09
0.00192
-2.17584e-09
0.00192
-2.17487e-09
0.00192
-2.17392e-09
0.00192
-2.173e-09
0.00192
-2.17208e-09
0.00192
-2.17119e-09
0.00192
-2.1703e-09
0.00192
-2.16943e-09
0.00192
-2.16857e-09
0.00192
-2.16771e-09
0.00192
-2.16686e-09
0.00192
-2.16601e-09
0.00192
-2.16517e-09
0.00192
-2.16433e-09
0.00192
-2.1635e-09
0.00192
-2.16266e-09
0.00192
-2.16183e-09
0.00192
-2.16099e-09
0.00192
-2.16016e-09
0.00192
-2.15933e-09
0.00192
-2.15849e-09
0.00192
-2.15766e-09
0.00192
-2.15682e-09
0.00192
-2.15598e-09
0.00192
-2.15515e-09
0.00192
-2.15431e-09
0.00192
-2.15346e-09
0.00192
-2.15262e-09
0.00192
-2.15178e-09
0.00192
-2.15093e-09
0.00192
-2.15008e-09
0.00192
-2.14923e-09
0.00192
-2.14838e-09
0.00192
-2.14753e-09
0.00192
-2.14667e-09
0.00192
-2.14582e-09
0.00192
-2.14496e-09
0.00192
-2.1441e-09
0.00192
-2.14324e-09
0.00192
-2.14237e-09
0.00192
-2.14151e-09
0.00192
-2.14064e-09
0.00192
-2.13978e-09
0.00192
-2.13891e-09
0.00192
-2.13804e-09
0.00192
-2.13717e-09
0.00192
-2.13629e-09
0.00192
-2.13542e-09
0.00192
-2.13454e-09
0.00192
-2.13367e-09
0.00192
-2.13279e-09
0.00192
-2.13191e-09
0.00192
-2.13103e-09
0.00192
-2.13015e-09
0.00192
-2.12927e-09
0.00192
-2.12839e-09
0.00192
-2.1275e-09
0.00192
-2.12662e-09
0.00192
-2.12573e-09
0.00192
-2.12485e-09
0.00192
-2.12396e-09
0.00192
-2.12308e-09
0.00192
-2.12219e-09
0.00192
-2.1213e-09
0.00192
-2.12041e-09
0.00192
-2.11952e-09
0.00192
-2.11863e-09
0.00192
-2.11774e-09
0.00192
-2.11685e-09
0.00192
-2.11596e-09
0.00192
-2.11506e-09
0.00192
-2.11417e-09
0.00192
-2.11328e-09
0.00192
-2.11239e-09
0.00192
-2.1115e-09
0.00192
-2.11061e-09
0.00192
-2.10972e-09
0.00192
-2.10883e-09
0.00192
-2.10794e-09
0.00192
-2.10705e-09
0.00192
-2.10616e-09
0.00192
-2.10527e-09
0.00192
-2.10438e-09
0.00192
-2.10349e-09
0.00192
-2.10261e-09
0.00192
-2.10172e-09
0.00192
-2.10084e-09
0.00192
-2.09996e-09
0.00192
-2.09908e-09
0.00192
-2.0982e-09
0.00192
-2.09733e-09
0.00192
-2.09645e-09
0.00192
-2.09558e-09
0.00192
-2.09471e-09
0.00192
-2.09385e-09
0.00192
-2.09298e-09
0.00192
-2.09212e-09
0.00192
-2.09127e-09
0.00192
-2.09042e-09
0.00192
-2.08957e-09
0.00192
-2.08872e-09
0.00192
-2.08788e-09
0.00192
-2.08705e-09
0.00192
-2.08622e-09
0.00192
-2.0854e-09
0.00192
-2.08458e-09
0.00192
-2.08376e-09
0.00192
-2.08296e-09
0.00192
-2.08216e-09
0.00192
-2.08136e-09
0.00192
-2.08058e-09
0.00192
-2.0798e-09
0.00192
-2.07903e-09
0.00192
-2.07826e-09
0.00192
-2.07751e-09
0.00192
-2.07676e-09
0.00192
-2.07602e-09
0.00192
-2.07529e-09
0.00192
-2.07456e-09
0.00192
-2.07385e-09
0.00192
-2.07314e-09
0.00192
-2.07244e-09
0.00192
-2.07175e-09
0.00192
-2.07106e-09
0.00192
-2.07038e-09
0.00192
-2.0697e-09
0.00192
-2.06902e-09
0.00192
-2.06835e-09
0.00192
-2.06767e-09
0.00192
-2.06699e-09
0.00192
-2.06631e-09
0.00192
-2.06561e-09
0.00192
-2.0649e-09
0.00192
-2.06418e-09
0.00192
-2.06344e-09
0.00192
-2.06268e-09
0.00192
-2.06189e-09
0.00192
-2.06108e-09
0.00192
-2.06024e-09
0.00192
-2.05935e-09
0.00192
-2.05841e-09
0.00192
-2.05721e-09
0.00192
-2.0556e-09
0.00192
-2.05328e-09
0.00192
-2.05011e-09
0.00192
-2.04655e-09
0.00192
-2.04297e-09
0.00192
0.00192
-2.51355e-09
0.00192
-2.51252e-09
0.00192
-2.51124e-09
0.00192
-2.50999e-09
0.00192
-2.50884e-09
0.00192
-2.50773e-09
0.00192
-2.50662e-09
0.00192
-2.50554e-09
0.00192
-2.50447e-09
0.00192
-2.50343e-09
0.00192
-2.5024e-09
0.00192
-2.50139e-09
0.00192
-2.50039e-09
0.00192
-2.49939e-09
0.00192
-2.49841e-09
0.00192
-2.49743e-09
0.00192
-2.49646e-09
0.00192
-2.49549e-09
0.00192
-2.49452e-09
0.00192
-2.49356e-09
0.00192
-2.4926e-09
0.00192
-2.49163e-09
0.00192
-2.49067e-09
0.00192
-2.48971e-09
0.00192
-2.48875e-09
0.00192
-2.48779e-09
0.00192
-2.48683e-09
0.00192
-2.48586e-09
0.00192
-2.4849e-09
0.00192
-2.48393e-09
0.00192
-2.48296e-09
0.00192
-2.48199e-09
0.00192
-2.48102e-09
0.00192
-2.48004e-09
0.00192
-2.47907e-09
0.00192
-2.47809e-09
0.00192
-2.47711e-09
0.00192
-2.47613e-09
0.00192
-2.47514e-09
0.00192
-2.47416e-09
0.00192
-2.47317e-09
0.00192
-2.47218e-09
0.00192
-2.47119e-09
0.00192
-2.47019e-09
0.00192
-2.4692e-09
0.00192
-2.4682e-09
0.00192
-2.4672e-09
0.00192
-2.4662e-09
0.00192
-2.4652e-09
0.00192
-2.4642e-09
0.00192
-2.46319e-09
0.00192
-2.46218e-09
0.00192
-2.46118e-09
0.00192
-2.46017e-09
0.00192
-2.45916e-09
0.00192
-2.45814e-09
0.00192
-2.45713e-09
0.00192
-2.45611e-09
0.00192
-2.4551e-09
0.00192
-2.45408e-09
0.00192
-2.45306e-09
0.00192
-2.45204e-09
0.00192
-2.45102e-09
0.00192
-2.45e-09
0.00192
-2.44898e-09
0.00192
-2.44796e-09
0.00192
-2.44693e-09
0.00192
-2.44591e-09
0.00192
-2.44488e-09
0.00192
-2.44386e-09
0.00192
-2.44283e-09
0.00192
-2.44181e-09
0.00192
-2.44078e-09
0.00192
-2.43975e-09
0.00192
-2.43872e-09
0.00192
-2.43769e-09
0.00192
-2.43666e-09
0.00192
-2.43563e-09
0.00192
-2.43461e-09
0.00192
-2.43358e-09
0.00192
-2.43255e-09
0.00192
-2.43152e-09
0.00192
-2.43049e-09
0.00192
-2.42946e-09
0.00192
-2.42844e-09
0.00192
-2.42741e-09
0.00192
-2.42639e-09
0.00192
-2.42536e-09
0.00192
-2.42434e-09
0.00192
-2.42331e-09
0.00192
-2.42229e-09
0.00192
-2.42127e-09
0.00192
-2.42026e-09
0.00192
-2.41924e-09
0.00192
-2.41823e-09
0.00192
-2.41722e-09
0.00192
-2.41621e-09
0.00192
-2.4152e-09
0.00192
-2.4142e-09
0.00192
-2.4132e-09
0.00192
-2.4122e-09
0.00192
-2.4112e-09
0.00192
-2.41022e-09
0.00192
-2.40923e-09
0.00192
-2.40825e-09
0.00192
-2.40727e-09
0.00192
-2.4063e-09
0.00192
-2.40534e-09
0.00192
-2.40438e-09
0.00192
-2.40342e-09
0.00192
-2.40248e-09
0.00192
-2.40154e-09
0.00192
-2.4006e-09
0.00192
-2.39968e-09
0.00192
-2.39876e-09
0.00192
-2.39785e-09
0.00192
-2.39695e-09
0.00192
-2.39605e-09
0.00192
-2.39517e-09
0.00192
-2.39429e-09
0.00192
-2.39343e-09
0.00192
-2.39257e-09
0.00192
-2.39172e-09
0.00192
-2.39088e-09
0.00192
-2.39005e-09
0.00192
-2.38923e-09
0.00192
-2.38842e-09
0.00192
-2.38762e-09
0.00192
-2.38682e-09
0.00192
-2.38603e-09
0.00192
-2.38524e-09
0.00192
-2.38447e-09
0.00192
-2.38369e-09
0.00192
-2.38291e-09
0.00192
-2.38213e-09
0.00192
-2.38135e-09
0.00192
-2.38056e-09
0.00192
-2.37976e-09
0.00192
-2.37894e-09
0.00192
-2.37811e-09
0.00192
-2.37727e-09
0.00192
-2.3764e-09
0.00192
-2.37551e-09
0.00192
-2.37459e-09
0.00192
-2.37362e-09
0.00192
-2.37256e-09
0.00192
-2.37125e-09
0.00192
-2.3695e-09
0.00192
-2.36713e-09
0.00192
-2.36398e-09
0.00192
-2.36039e-09
0.00192
-2.35658e-09
0.00192
0.00192
-2.84623e-09
0.00192
-2.84503e-09
0.00192
-2.84354e-09
0.00192
-2.84213e-09
0.00192
-2.84085e-09
0.00192
-2.8396e-09
0.00192
-2.83835e-09
0.00192
-2.83713e-09
0.00192
-2.83594e-09
0.00192
-2.83476e-09
0.00192
-2.8336e-09
0.00192
-2.83246e-09
0.00192
-2.83133e-09
0.00192
-2.83021e-09
0.00192
-2.82909e-09
0.00192
-2.82799e-09
0.00192
-2.82689e-09
0.00192
-2.82579e-09
0.00192
-2.8247e-09
0.00192
-2.82361e-09
0.00192
-2.82252e-09
0.00192
-2.82143e-09
0.00192
-2.82034e-09
0.00192
-2.81925e-09
0.00192
-2.81817e-09
0.00192
-2.81708e-09
0.00192
-2.81599e-09
0.00192
-2.81489e-09
0.00192
-2.8138e-09
0.00192
-2.8127e-09
0.00192
-2.81161e-09
0.00192
-2.81051e-09
0.00192
-2.8094e-09
0.00192
-2.8083e-09
0.00192
-2.80719e-09
0.00192
-2.80609e-09
0.00192
-2.80498e-09
0.00192
-2.80386e-09
0.00192
-2.80275e-09
0.00192
-2.80163e-09
0.00192
-2.80051e-09
0.00192
-2.79939e-09
0.00192
-2.79826e-09
0.00192
-2.79714e-09
0.00192
-2.79601e-09
0.00192
-2.79488e-09
0.00192
-2.79375e-09
0.00192
-2.79261e-09
0.00192
-2.79148e-09
0.00192
-2.79034e-09
0.00192
-2.7892e-09
0.00192
-2.78806e-09
0.00192
-2.78692e-09
0.00192
-2.78578e-09
0.00192
-2.78463e-09
0.00192
-2.78348e-09
0.00192
-2.78233e-09
0.00192
-2.78118e-09
0.00192
-2.78003e-09
0.00192
-2.77888e-09
0.00192
-2.77773e-09
0.00192
-2.77657e-09
0.00192
-2.77542e-09
0.00192
-2.77426e-09
0.00192
-2.7731e-09
0.00192
-2.77194e-09
0.00192
-2.77078e-09
0.00192
-2.76962e-09
0.00192
-2.76846e-09
0.00192
-2.7673e-09
0.00192
-2.76613e-09
0.00192
-2.76497e-09
0.00192
-2.7638e-09
0.00192
-2.76264e-09
0.00192
-2.76147e-09
0.00192
-2.76031e-09
0.00192
-2.75914e-09
0.00192
-2.75797e-09
0.00192
-2.75681e-09
0.00192
-2.75564e-09
0.00192
-2.75448e-09
0.00192
-2.75331e-09
0.00192
-2.75215e-09
0.00192
-2.75098e-09
0.00192
-2.74982e-09
0.00192
-2.74865e-09
0.00192
-2.74749e-09
0.00192
-2.74633e-09
0.00192
-2.74517e-09
0.00192
-2.74401e-09
0.00192
-2.74285e-09
0.00192
-2.7417e-09
0.00192
-2.74054e-09
0.00192
-2.73939e-09
0.00192
-2.73824e-09
0.00192
-2.73709e-09
0.00192
-2.73595e-09
0.00192
-2.73481e-09
0.00192
-2.73367e-09
0.00192
-2.73253e-09
0.00192
-2.7314e-09
0.00192
-2.73027e-09
0.00192
-2.72915e-09
0.00192
-2.72803e-09
0.00192
-2.72692e-09
0.00192
-2.72581e-09
0.00192
-2.72471e-09
0.00192
-2.72362e-09
0.00192
-2.72253e-09
0.00192
-2.72144e-09
0.00192
-2.72037e-09
0.00192
-2.7193e-09
0.00192
-2.71824e-09
0.00192
-2.71719e-09
0.00192
-2.71614e-09
0.00192
-2.71511e-09
0.00192
-2.71408e-09
0.00192
-2.71307e-09
0.00192
-2.71206e-09
0.00192
-2.71106e-09
0.00192
-2.71008e-09
0.00192
-2.7091e-09
0.00192
-2.70814e-09
0.00192
-2.70718e-09
0.00192
-2.70624e-09
0.00192
-2.70531e-09
0.00192
-2.70438e-09
0.00192
-2.70347e-09
0.00192
-2.70256e-09
0.00192
-2.70167e-09
0.00192
-2.70078e-09
0.00192
-2.69989e-09
0.00192
-2.69901e-09
0.00192
-2.69813e-09
0.00192
-2.69725e-09
0.00192
-2.69637e-09
0.00192
-2.69549e-09
0.00192
-2.69459e-09
0.00192
-2.69369e-09
0.00192
-2.69277e-09
0.00192
-2.69183e-09
0.00192
-2.69088e-09
0.00192
-2.6899e-09
0.00192
-2.68889e-09
0.00192
-2.68783e-09
0.00192
-2.68665e-09
0.00192
-2.68521e-09
0.00192
-2.68334e-09
0.00192
-2.68091e-09
0.00192
-2.67775e-09
0.00192
-2.67414e-09
0.00192
-2.67028e-09
0.00192
-2.66633e-09
0.00192
0.00192
-3.17891e-09
0.00192
-3.17751e-09
0.00192
-3.17581e-09
0.00192
-3.17425e-09
0.00192
-3.17284e-09
0.00192
-3.17145e-09
0.00192
-3.17006e-09
0.00192
-3.16871e-09
0.00192
-3.16738e-09
0.00192
-3.16608e-09
0.00192
-3.16479e-09
0.00192
-3.16351e-09
0.00192
-3.16225e-09
0.00192
-3.161e-09
0.00192
-3.15976e-09
0.00192
-3.15853e-09
0.00192
-3.1573e-09
0.00192
-3.15608e-09
0.00192
-3.15486e-09
0.00192
-3.15364e-09
0.00192
-3.15242e-09
0.00192
-3.15121e-09
0.00192
-3.14999e-09
0.00192
-3.14878e-09
0.00192
-3.14756e-09
0.00192
-3.14635e-09
0.00192
-3.14513e-09
0.00192
-3.14391e-09
0.00192
-3.14269e-09
0.00192
-3.14146e-09
0.00192
-3.14024e-09
0.00192
-3.13901e-09
0.00192
-3.13778e-09
0.00192
-3.13654e-09
0.00192
-3.13531e-09
0.00192
-3.13407e-09