/*--------------------------------*- C++ -*----------------------------------*\
| =========                 |                                                 |
| \\      /  F ield         | OpenFOAM: The Open Source CFD Toolbox           |
|  \\    /   O peration     | Version:  2512                                  |
|   \\  /    A nd           | Website:  www.openfoam.com                      |
|    \\/     M anipulation  |                                                 |
\*---------------------------------------------------------------------------*/
FoamFile
{
    version     2.0;
    format      ascii;
    arch        "LSB;label=32;scalar=64";
    class       volVectorField;
    location    "0.1";
    object      U;
}
// * * * * * * * * * * * * * * * * * * * * * * * * * * * * * * * * * * * * * //

dimensions      [0 1 -1 0 0 0 0];

internalField   nonuniform List<vector> 
8333
(
(0.0633882 -6.98919e-06 1.22436e-17)
(0.0633758 -6.94749e-06 5.03902e-18)
(0.0633646 -6.96077e-06 3.00654e-18)
(0.0633545 -7.03057e-06 -1.81576e-18)
(0.0633441 -7.08472e-06 1.93636e-18)
(0.0633332 -7.12297e-06 -5.99462e-18)
(0.0633223 -7.16134e-06 4.66823e-18)
(0.0633114 -7.1961e-06 -3.27807e-18)
(0.0633005 -7.2251e-06 1.20884e-17)
(0.0632895 -7.25038e-06 5.21491e-18)
(0.0632785 -7.27313e-06 3.17663e-18)
(0.0632675 -7.29392e-06 -1.56132e-18)
(0.0632564 -7.31324e-06 2.09632e-18)
(0.0632453 -7.33158e-06 -6.08698e-18)
(0.0632341 -7.34921e-06 5.15551e-18)
(0.0632229 -7.36625e-06 -4.28325e-18)
(0.0632116 -7.38268e-06 1.29611e-17)
(0.0632003 -7.39865e-06 7.12767e-18)
(0.063189 -7.41447e-06 -6.14313e-18)
(0.0631776 -7.4303e-06 1.47183e-17)
(0.0631661 -7.44595e-06 -1.3615e-17)
(0.0631547 -7.46146e-06 4.54821e-18)
(0.0631431 -7.47676e-06 -7.45301e-18)
(0.0631316 -7.49169e-06 9.30818e-19)
(0.06312 -7.50638e-06 -7.97371e-18)
(0.0631083 -7.52099e-06 1.04732e-17)
(0.0630966 -7.53567e-06 -9.78757e-18)
(0.0630849 -7.55045e-06 -3.53512e-18)
(0.0630732 -7.56519e-06 -1.68287e-17)
(0.0630613 -7.57976e-06 6.3235e-18)
(0.0630495 -7.59443e-06 -3.84934e-18)
(0.0630376 -7.60925e-06 4.25217e-18)
(0.0630257 -7.62419e-06 -5.85313e-18)
(0.0630137 -7.63913e-06 1.15218e-17)
(0.0630017 -7.65404e-06 -9.42654e-18)
(0.0629896 -7.66907e-06 -3.51679e-18)
(0.0629775 -7.68411e-06 -1.66234e-17)
(0.0629654 -7.69929e-06 6.06895e-18)
(0.0629532 -7.71451e-06 -2.4602e-18)
(0.062941 -7.72948e-06 1.46907e-18)
(0.0629287 -7.74431e-06 -2.11554e-18)
(0.0629164 -7.75891e-06 7.83506e-18)
(0.0629041 -7.77319e-06 -6.58064e-18)
(0.0628917 -7.78763e-06 6.54433e-18)
(0.0628793 -7.80231e-06 1.32412e-17)
(0.0628668 -7.81718e-06 1.17672e-17)
(0.0628543 -7.83211e-06 1.25743e-18)
(0.0628418 -7.84739e-06 1.28167e-18)
(0.0628292 -7.86252e-06 -1.03896e-18)
(0.0628166 -7.87759e-06 1.01891e-17)
(0.0628039 -7.89245e-06 -5.0374e-18)
(0.0627912 -7.90715e-06 7.81144e-18)
(0.0627785 -7.92191e-06 1.38673e-17)
(0.0627657 -7.93658e-06 1.20423e-17)
(0.0627529 -7.95121e-06 1.3879e-18)
(0.06274 -7.96571e-06 1.43912e-18)
(0.0627271 -7.98014e-06 -8.65796e-19)
(0.0627142 -7.99451e-06 1.02886e-17)
(0.0627012 -8.00918e-06 -5.15871e-18)
(0.0626882 -8.02378e-06 8.17541e-18)
(0.0626752 -8.03824e-06 1.1946e-17)
(0.0626621 -8.05276e-06 1.68737e-17)
(0.0626489 -8.06728e-06 -8.01867e-18)
(0.0626358 -8.08151e-06 1.50383e-17)
(0.0626226 -8.09568e-06 -1.62685e-17)
(0.0626093 -8.11014e-06 9.50238e-18)
(0.062596 -8.12457e-06 -2.35476e-17)
(0.0625827 -8.13916e-06 -7.4326e-18)
(0.0625694 -8.15387e-06 -4.18945e-19)
(0.062556 -8.16831e-06 7.20192e-18)
(0.0625425 -8.18261e-06 -8.47259e-18)
(0.0625291 -8.19689e-06 1.94079e-17)
(0.0625156 -8.2111e-06 -1.11199e-17)
(0.062502 -8.22549e-06 1.27192e-17)
(0.0624884 -8.24002e-06 -2.17638e-17)
(0.0624748 -8.25456e-06 -6.56739e-18)
(0.0624611 -8.26903e-06 1.26455e-19)
(0.0624474 -8.28345e-06 7.25716e-18)
(0.0624337 -8.2978e-06 -8.3536e-18)
(0.0624199 -8.31205e-06 1.94457e-17)
(0.0624061 -8.32624e-06 -1.11353e-17)
(0.0623923 -8.3405e-06 1.27455e-17)
(0.0623784 -8.35499e-06 -2.17211e-17)
(0.0623645 -8.3694e-06 -7.24927e-18)
(0.0623505 -8.38393e-06 1.28179e-18)
(0.0623366 -8.39844e-06 3.51507e-18)
(0.0623225 -8.41291e-06 -2.31098e-18)
(0.0623085 -8.4272e-06 1.12606e-17)
(0.0622944 -8.44142e-06 -2.34988e-18)
(0.0622802 -8.45572e-06 1.90429e-17)
(0.0622661 -8.47034e-06 7.58138e-18)
(0.0622519 -8.48535e-06 -2.95125e-19)
(0.0622376 -8.50026e-06 -1.96015e-18)
(0.0622234 -8.51491e-06 -3.83028e-18)
(0.062209 -8.52969e-06 -8.26356e-18)
(0.0621947 -8.54452e-06 8.10881e-18)
(0.0621803 -8.55954e-06 -3.47003e-18)
(0.0621659 -8.57465e-06 1.84348e-17)
(0.0621514 -8.58977e-06 7.79478e-18)
(0.062137 -8.60505e-06 -3.22019e-19)
(0.0621224 -8.62087e-06 -2.16151e-18)
(0.0621079 -8.63671e-06 -2.41402e-18)
(0.0620933 -8.65253e-06 -1.31763e-17)
(0.0620787 -8.66869e-06 1.7734e-17)
(0.062064 -8.6851e-06 -1.47688e-17)
(0.0620493 -8.70166e-06 4.88235e-18)
(0.0620346 -8.71858e-06 -4.1621e-18)
(0.0620198 -8.73575e-06 -8.64591e-18)
(0.062005 -8.75334e-06 -4.9127e-18)
(0.0619902 -8.7714e-06 1.9299e-17)
(0.0619754 -8.7903e-06 -1.3174e-17)
(0.0619605 -8.80985e-06 8.53018e-18)
(0.0619455 -8.82961e-06 -2.45093e-17)
(0.0619306 -8.84992e-06 -3.19937e-18)
(0.0619156 -8.87082e-06 -7.62981e-18)
(0.0619006 -8.89238e-06 -1.1066e-17)
(0.0618855 -8.91443e-06 -1.45362e-18)
(0.0618704 -8.93744e-06 -1.41142e-17)
(0.0618553 -8.96165e-06 4.90505e-18)
(0.0618401 -8.98692e-06 8.93745e-18)
(0.0618249 -9.01352e-06 -2.0943e-19)
(0.0618097 -9.0414e-06 1.37746e-17)
(0.0617945 -9.07043e-06 1.81373e-17)
(0.0617792 -9.10106e-06 6.27833e-18)
(0.0617639 -9.13331e-06 -2.81965e-18)
(0.0617485 -9.16697e-06 2.16184e-17)
(0.0617331 -9.20209e-06 -3.37199e-19)
(0.0617177 -9.23866e-06 2.03717e-17)
(0.0617023 -9.27749e-06 1.38815e-17)
(0.0616868 -9.31871e-06 3.70696e-19)
(0.0616713 -9.36206e-06 2.95309e-18)
(0.0616558 -9.40775e-06 -4.03958e-18)
(0.0616402 -9.45556e-06 -7.50631e-18)
(0.0616246 -9.506e-06 2.06006e-17)
(0.061609 -9.55835e-06 -2.99234e-19)
(0.0615933 -9.61252e-06 2.06092e-17)
(0.0615777 -9.66771e-06 1.43448e-17)
(0.061562 -9.7228e-06 6.13289e-19)
(0.0615462 -9.77686e-06 2.98821e-18)
(0.0615305 -9.82891e-06 -4.13718e-18)
(0.0615147 -9.87374e-06 -7.69503e-18)
(0.061499 -9.91463e-06 1.98022e-17)
(0.0614831 -9.9281e-06 1.57077e-18)
(0.0614676 -9.94679e-06 1.62243e-17)
(0.0614516 -9.85895e-06 2.35856e-17)
(0.0614366 -9.80489e-06 -1.1023e-19)
(0.0614212 -9.37805e-06 2.02148e-17)
(0.0614066 -8.60825e-06 -5.43349e-18)
(0.0633882 -6.46497e-06 2.33658e-18)
(0.0633758 -6.42212e-06 5.91988e-18)
(0.0633646 -6.4827e-06 3.14378e-18)
(0.0633545 -6.57513e-06 4.33121e-18)
(0.0633441 -6.62918e-06 5.07246e-18)
(0.0633332 -6.67188e-06 1.2501e-18)
(0.0633223 -6.7176e-06 4.25536e-18)
(0.0633114 -6.75926e-06 2.3581e-18)
(0.0633005 -6.79518e-06 2.36295e-18)
(0.0632895 -6.82742e-06 5.92235e-18)
(0.0632785 -6.85733e-06 3.13909e-18)
(0.0632675 -6.88553e-06 4.45002e-18)
(0.0632564 -6.91244e-06 5.24976e-18)
(0.0632453 -6.93813e-06 1.30734e-18)
(0.0632341 -6.96301e-06 4.43441e-18)
(0.0632229 -6.98726e-06 2.1649e-18)
(0.0632116 -7.01132e-06 2.25057e-18)
(0.0632003 -7.03511e-06 8.03291e-18)
(0.0631889 -7.05866e-06 -1.66467e-18)
(0.0631776 -7.08188e-06 9.77182e-18)
(0.0631661 -7.10488e-06 3.61686e-18)
(0.0631546 -7.12762e-06 1.24543e-18)
(0.0631431 -7.15006e-06 6.06269e-19)
(0.0631316 -7.17245e-06 1.40949e-18)
(0.06312 -7.19474e-06 5.18445e-19)
(0.0631083 -7.21674e-06 7.40816e-18)
(0.0630966 -7.23841e-06 2.45697e-18)
(0.0630849 -7.25967e-06 2.16211e-18)
(0.0630731 -7.28071e-06 -3.10036e-18)
(0.0630613 -7.30181e-06 -4.52046e-19)
(0.0630495 -7.32252e-06 2.12474e-18)
(0.0630376 -7.34308e-06 3.4044e-18)
(0.0630257 -7.36354e-06 1.90248e-18)
(0.0630137 -7.38401e-06 8.11701e-18)
(0.0630017 -7.40437e-06 2.56858e-18)
(0.0629896 -7.42454e-06 2.23936e-18)
(0.0629775 -7.44463e-06 -2.96209e-18)
(0.0629654 -7.46447e-06 -5.58723e-19)
(0.0629532 -7.48398e-06 2.89085e-18)
(0.062941 -7.50343e-06 2.08459e-18)
(0.0629287 -7.52273e-06 3.39435e-18)
(0.0629164 -7.5421e-06 7.38083e-18)
(0.0629041 -7.56172e-06 1.89166e-18)
(0.0628917 -7.58102e-06 1.16227e-18)
(0.0628793 -7.59991e-06 8.54791e-18)
(0.0628668 -7.61859e-06 6.00905e-18)
(0.0628543 -7.63748e-06 4.17508e-18)
(0.0628418 -7.65633e-06 1.69761e-18)
(0.0628292 -7.67549e-06 3.89818e-18)
(0.0628166 -7.69445e-06 8.68827e-18)
(0.0628039 -7.71329e-06 2.68076e-18)
(0.0627912 -7.73197e-06 1.54031e-18)
(0.0627785 -7.75043e-06 8.8313e-18)
(0.0627657 -7.76894e-06 6.08158e-18)
(0.0627529 -7.78746e-06 4.19018e-18)
(0.06274 -7.80627e-06 1.85411e-18)
(0.0627271 -7.82501e-06 4.13084e-18)
(0.0627142 -7.84352e-06 8.70849e-18)
(0.0627012 -7.86173e-06 2.53922e-18)
(0.0626882 -7.87993e-06 2.01648e-18)
(0.0626752 -7.89829e-06 7.91805e-18)
(0.0626621 -7.91657e-06 8.57686e-18)
(0.0626489 -7.93489e-06 -3.5843e-20)
(0.0626358 -7.95358e-06 7.06032e-18)
(0.0626226 -7.97225e-06 8.68692e-19)
(0.0626093 -7.99038e-06 8.44484e-18)
(0.062596 -8.0085e-06 -1.93184e-18)
(0.0625827 -8.02643e-06 -4.17106e-18)
(0.0625694 -8.04415e-06 2.20939e-18)
(0.062556 -8.06208e-06 3.84685e-18)
(0.0625425 -8.08006e-06 -1.62409e-18)
(0.0625291 -8.09808e-06 7.81683e-18)
(0.0625155 -8.11627e-06 2.52555e-18)
(0.062502 -8.13419e-06 9.62416e-18)
(0.0624884 -8.15177e-06 -1.34467e-18)
(0.0624748 -8.16932e-06 -3.92254e-18)
(0.0624611 -8.18698e-06 2.52129e-18)
(0.0624474 -8.20469e-06 3.83915e-18)
(0.0624337 -8.22242e-06 -1.64237e-18)
(0.0624199 -8.2402e-06 7.93934e-18)
(0.0624061 -8.25801e-06 2.76263e-18)
(0.0623923 -8.27587e-06 9.59569e-18)
(0.0623784 -8.29366e-06 -1.18502e-18)
(0.0623645 -8.31166e-06 -4.14909e-18)
(0.0623505 -8.32921e-06 3.06972e-18)
(0.0623365 -8.34677e-06 2.14159e-18)
(0.0623225 -8.36434e-06 6.90596e-19)
(0.0623085 -8.38198e-06 5.58627e-18)
(0.0622944 -8.3996e-06 3.20829e-18)
(0.0622802 -8.41725e-06 8.58798e-18)
(0.0622661 -8.43478e-06 9.11638e-18)
(0.0622519 -8.45209e-06 3.25459e-18)
(0.0622376 -8.46955e-06 3.96292e-18)
(0.0622233 -8.48752e-06 -5.60868e-19)
(0.062209 -8.50577e-06 -2.02323e-18)
(0.0621947 -8.52386e-06 4.12447e-18)
(0.0621803 -8.54175e-06 2.75753e-18)
(0.0621659 -8.55977e-06 8.27955e-18)
(0.0621514 -8.57798e-06 9.04532e-18)
(0.0621369 -8.59629e-06 3.33598e-18)
(0.0621224 -8.61441e-06 3.68364e-18)
(0.0621079 -8.63278e-06 5.03572e-19)
(0.0620933 -8.65151e-06 -4.72596e-18)
(0.0620787 -8.67045e-06 7.69413e-18)
(0.062064 -8.68948e-06 2.23005e-18)
(0.0620493 -8.70897e-06 3.45011e-18)
(0.0620346 -8.72886e-06 4.6737e-18)
(0.0620198 -8.74917e-06 -3.93999e-19)
(0.062005 -8.76936e-06 -1.33827e-18)
(0.0619902 -8.78981e-06 7.3292e-18)
(0.0619753 -8.8104e-06 -3.70703e-19)
(0.0619605 -8.83137e-06 5.97873e-18)
(0.0619455 -8.85317e-06 -1.72706e-18)
(0.0619306 -8.87571e-06 1.55943e-19)
(0.0619156 -8.89914e-06 2.40928e-18)
(0.0619005 -8.92323e-06 -2.21187e-18)
(0.0618855 -8.94803e-06 4.49097e-18)
(0.0618704 -8.97364e-06 -4.92888e-18)
(0.0618553 -9.00003e-06 4.88541e-19)
(0.0618401 -9.02755e-06 4.80008e-18)
(0.0618249 -9.05551e-06 5.81555e-18)
(0.0618097 -9.08432e-06 6.72797e-18)
(0.0617944 -9.11456e-06 1.10497e-17)
(0.0617792 -9.14629e-06 7.25084e-18)
(0.0617638 -9.17954e-06 1.72074e-18)
(0.0617485 -9.21452e-06 7.29261e-18)
(0.0617331 -9.25142e-06 2.85327e-18)
(0.0617177 -9.29021e-06 7.13444e-18)
(0.0617023 -9.33085e-06 1.3783e-17)
(0.0616868 -9.37358e-06 6.2219e-18)
(0.0616713 -9.41867e-06 5.06195e-18)
(0.0616557 -9.46556e-06 1.75224e-18)
(0.0616402 -9.51443e-06 -1.39971e-18)
(0.0616246 -9.56524e-06 6.34085e-18)
(0.061609 -9.61811e-06 2.59376e-18)
(0.0615933 -9.67264e-06 7.07867e-18)
(0.0615776 -9.72843e-06 1.39748e-17)
(0.0615619 -9.78473e-06 6.27053e-18)
(0.0615462 -9.84171e-06 5.21046e-18)
(0.0615305 -9.8963e-06 1.62529e-18)
(0.0615147 -9.95365e-06 -1.17877e-18)
(0.061499 -9.99303e-06 5.42447e-18)
(0.0614831 -1.00612e-05 4.07152e-18)
(0.0614676 -1.00233e-05 5.25243e-18)
(0.0614516 -1.02026e-05 1.47376e-17)
(0.0614364 -9.88978e-06 8.03675e-18)
(0.0614211 -1.06431e-05 7.9434e-18)
(0.0614062 -1.02686e-05 8.31958e-19)
(0.0613912 -1.33212e-05 6.78236e-18)
(0.0633882 -6.56516e-06 1.68229e-18)
(0.0633758 -6.58929e-06 9.90543e-18)
(0.0633645 -6.68148e-06 6.76004e-18)
(0.0633545 -6.75803e-06 1.70697e-17)
(0.0633441 -6.80238e-06 1.23762e-17)
(0.0633331 -6.84349e-06 1.18044e-17)
(0.0633222 -6.88643e-06 5.97162e-18)
(0.0633114 -6.92322e-06 7.42374e-18)
(0.0633005 -6.95339e-06 1.68502e-18)
(0.0632895 -6.98031e-06 9.90383e-18)
(0.0632785 -7.00516e-06 6.57098e-18)
(0.0632675 -7.02835e-06 1.68933e-17)
(0.0632564 -7.05028e-06 1.26002e-17)
(0.0632452 -7.07181e-06 1.21255e-17)
(0.0632341 -7.09296e-06 5.94369e-18)
(0.0632228 -7.11381e-06 7.56961e-18)
(0.0632116 -7.13394e-06 1.07422e-18)
(0.0632003 -7.15385e-06 1.22706e-17)
(0.0631889 -7.17385e-06 3.84322e-18)
(0.0631775 -7.19383e-06 1.95137e-17)
(0.0631661 -7.2136e-06 1.52464e-17)
(0.0631546 -7.2335e-06 2.70756e-18)
(0.0631431 -7.25344e-06 7.04268e-18)
(0.0631316 -7.27321e-06 4.65181e-18)
(0.06312 -7.29257e-06 1.48553e-17)
(0.0631083 -7.31203e-06 1.24529e-17)
(0.0630966 -7.33148e-06 1.24831e-17)
(0.0630849 -7.35106e-06 5.40653e-18)
(0.0630731 -7.37055e-06 5.78355e-18)
(0.0630613 -7.38984e-06 7.96944e-19)
(0.0630495 -7.40945e-06 8.70042e-18)
(0.0630376 -7.42893e-06 6.73238e-18)
(0.0630256 -7.44813e-06 1.62063e-17)
(0.0630137 -7.4669e-06 1.33196e-17)
(0.0630017 -7.48549e-06 1.21676e-17)
(0.0629896 -7.50438e-06 5.41592e-18)
(0.0629775 -7.52332e-06 5.8725e-18)
(0.0629654 -7.54203e-06 7.56834e-19)
(0.0629532 -7.56077e-06 9.07258e-18)
(0.062941 -7.57926e-06 6.39897e-18)
(0.0629287 -7.5973e-06 1.66599e-17)
(0.0629164 -7.61488e-06 1.31042e-17)
(0.0629041 -7.63229e-06 1.19776e-17)
(0.0628917 -7.65005e-06 4.25355e-18)
(0.0628793 -7.66826e-06 9.03453e-18)
(0.0628668 -7.68641e-06 3.35967e-18)
(0.0628543 -7.70412e-06 9.67206e-18)
(0.0628418 -7.72107e-06 6.22022e-18)
(0.0628292 -7.73737e-06 1.66502e-17)
(0.0628166 -7.75409e-06 1.385e-17)
(0.0628039 -7.77109e-06 1.22591e-17)
(0.0627912 -7.78832e-06 4.08654e-18)
(0.0627785 -7.80538e-06 9.09596e-18)
(0.0627657 -7.82209e-06 3.3094e-18)
(0.0627529 -7.83847e-06 9.55292e-18)
(0.06274 -7.85456e-06 6.41518e-18)
(0.0627271 -7.87058e-06 1.72503e-17)
(0.0627142 -7.88722e-06 1.3754e-17)
(0.0627012 -7.90393e-06 1.21457e-17)
(0.0626882 -7.92078e-06 4.54196e-18)
(0.0626751 -7.93742e-06 9.09412e-18)
(0.062662 -7.9539e-06 4.21041e-18)
(0.0626489 -7.97022e-06 8.57662e-18)
(0.0626358 -7.98635e-06 8.05924e-18)
(0.0626225 -8.00268e-06 1.64486e-17)
(0.0626093 -8.01922e-06 1.36585e-17)
(0.062596 -8.03546e-06 1.08307e-17)
(0.0625827 -8.0517e-06 2.63206e-18)
(0.0625693 -8.06799e-06 6.97088e-18)
(0.0625559 -8.08427e-06 2.77379e-18)
(0.0625425 -8.10053e-06 7.41649e-18)
(0.062529 -8.11683e-06 7.90864e-18)
(0.0625155 -8.13306e-06 1.66683e-17)
(0.062502 -8.14919e-06 1.39756e-17)
(0.0624884 -8.16537e-06 1.07198e-17)
(0.0624748 -8.18141e-06 2.60105e-18)
(0.0624611 -8.19736e-06 7.21108e-18)
(0.0624474 -8.21309e-06 2.55629e-18)
(0.0624337 -8.22929e-06 7.51009e-18)
(0.0624199 -8.24562e-06 8.2369e-18)
(0.0624061 -8.26185e-06 1.70318e-17)
(0.0623923 -8.27793e-06 1.38739e-17)
(0.0623784 -8.29377e-06 1.10791e-17)
(0.0623645 -8.30934e-06 2.59959e-18)
(0.0623505 -8.32561e-06 7.31896e-18)
(0.0623365 -8.3419e-06 2.24998e-18)
(0.0623225 -8.35819e-06 7.78705e-18)
(0.0623084 -8.37425e-06 7.26328e-18)
(0.0622943 -8.39009e-06 1.64897e-17)
(0.0622802 -8.40575e-06 1.31257e-17)
(0.062266 -8.42139e-06 1.36083e-17)
(0.0622518 -8.43727e-06 5.44344e-18)
(0.0622376 -8.45357e-06 8.24477e-18)
(0.0622233 -8.46996e-06 1.56647e-18)
(0.062209 -8.48574e-06 7.03647e-18)
(0.0621947 -8.50177e-06 7.01929e-18)
(0.0621803 -8.51825e-06 1.67022e-17)
(0.0621659 -8.53484e-06 1.27727e-17)
(0.0621514 -8.55144e-06 1.39689e-17)
(0.0621369 -8.56796e-06 5.54395e-18)
(0.0621224 -8.58433e-06 8.19257e-18)
(0.0621079 -8.60081e-06 1.74005e-18)
(0.0620933 -8.61756e-06 6.34749e-18)
(0.0620787 -8.63447e-06 7.98976e-18)
(0.062064 -8.65269e-06 1.72332e-17)
(0.0620493 -8.67113e-06 1.16541e-17)
(0.0620346 -8.68927e-06 1.25042e-17)
(0.0620198 -8.70736e-06 4.528e-18)
(0.062005 -8.72638e-06 6.08843e-18)
(0.0619902 -8.74559e-06 3.10241e-18)
(0.0619753 -8.76492e-06 8.21965e-18)
(0.0619604 -8.78462e-06 7.95858e-18)
(0.0619455 -8.80499e-06 1.57329e-17)
(0.0619306 -8.82577e-06 1.02685e-17)
(0.0619156 -8.84714e-06 1.15505e-17)
(0.0619005 -8.8693e-06 3.87675e-18)
(0.0618855 -8.8928e-06 8.66988e-18)
(0.0618704 -8.91707e-06 1.04372e-19)
(0.0618553 -8.94207e-06 7.6174e-18)
(0.0618401 -8.96721e-06 7.09264e-18)
(0.0618249 -8.99394e-06 1.7961e-17)
(0.0618097 -9.0222e-06 1.24849e-17)
(0.0617944 -9.05193e-06 1.40574e-17)
(0.0617791 -9.08305e-06 7.14357e-18)
(0.0617638 -9.11547e-06 7.87599e-18)
(0.0617485 -9.14947e-06 3.26581e-18)
(0.0617331 -9.18521e-06 8.8337e-18)
(0.0617177 -9.22359e-06 8.10248e-18)
(0.0617022 -9.26327e-06 2.09121e-17)
(0.0616868 -9.30382e-06 1.32016e-17)
(0.0616713 -9.34647e-06 1.18185e-17)
(0.0616557 -9.39195e-06 4.9596e-18)
(0.0616402 -9.44071e-06 6.34575e-18)
(0.0616246 -9.49198e-06 2.92518e-18)
(0.0616089 -9.54542e-06 8.66659e-18)
(0.0615933 -9.60123e-06 7.80399e-18)
(0.0615776 -9.6599e-06 2.08216e-17)
(0.0615619 -9.72061e-06 1.3137e-17)
(0.0615462 -9.78338e-06 1.23851e-17)
(0.0615304 -9.84217e-06 5.00772e-18)
(0.0615147 -9.90959e-06 6.46598e-18)
(0.061499 -9.9492e-06 2.2051e-18)
(0.0614831 -1.00559e-05 9.71564e-18)
(0.0614676 -9.99778e-06 6.18053e-18)
(0.0614516 -1.02963e-05 2.12953e-17)
(0.0614364 -9.9152e-06 1.60024e-17)
(0.0614211 -1.08826e-05 3.54842e-18)
(0.0614056 -1.05884e-05 6.23969e-18)
(0.061391 -1.39264e-05 6.2593e-18)
(0.0613733 -1.4323e-05 1.78408e-17)
(0.0633882 -5.60405e-06 1.51182e-17)
(0.0633758 -5.6449e-06 -1.32927e-17)
(0.0633645 -5.75213e-06 2.54468e-17)
(0.0633544 -5.83172e-06 -2.9149e-18)
(0.063344 -5.87171e-06 2.10497e-17)
(0.0633331 -5.91149e-06 -1.60583e-17)
(0.0633222 -5.95367e-06 -5.63231e-19)
(0.0633114 -5.98794e-06 -2.53185e-18)
(0.0633005 -6.01577e-06 1.51486e-17)
(0.0632895 -6.04017e-06 -1.32761e-17)
(0.0632785 -6.06222e-06 2.53118e-17)
(0.0632675 -6.08279e-06 -3.20014e-18)
(0.0632564 -6.10243e-06 2.11608e-17)
(0.0632452 -6.12064e-06 -1.59205e-17)
(0.0632341 -6.13821e-06 -1.1657e-18)
(0.0632228 -6.15544e-06 -2.28041e-18)
(0.0632116 -6.17275e-06 1.37243e-17)
(0.0632003 -6.18927e-06 -8.91956e-18)
(0.0631889 -6.20545e-06 1.66455e-17)
(0.0631775 -6.22153e-06 1.20547e-17)
(0.0631661 -6.2378e-06 7.29622e-19)
(0.0631546 -6.25403e-06 8.78494e-18)
(0.0631431 -6.26975e-06 -2.22516e-17)
(0.0631316 -6.28535e-06 1.98924e-17)
(0.06312 -6.30125e-06 -6.051e-18)
(0.0631083 -6.31697e-06 1.98397e-17)
(0.0630966 -6.333e-06 -1.68647e-17)
(0.0630849 -6.34906e-06 -1.23923e-18)
(0.0630731 -6.36449e-06 -2.86047e-18)
(0.0630613 -6.37958e-06 1.49412e-17)
(0.0630495 -6.39453e-06 -1.3839e-17)
(0.0630376 -6.4098e-06 2.55987e-17)
(0.0630256 -6.42554e-06 -3.23202e-18)
(0.0630137 -6.44184e-06 2.13132e-17)
(0.0630017 -6.45836e-06 -1.6896e-17)
(0.0629896 -6.47425e-06 -9.32009e-19)
(0.0629775 -6.48963e-06 -2.669e-18)
(0.0629654 -6.50505e-06 1.51331e-17)
(0.0629532 -6.52067e-06 -1.35019e-17)
(0.062941 -6.53657e-06 2.52621e-17)
(0.0629287 -6.55314e-06 -3.13917e-18)
(0.0629164 -6.56994e-06 2.09703e-17)
(0.0629041 -6.58575e-06 -1.62953e-17)
(0.0628917 -6.60135e-06 -1.28153e-18)
(0.0628793 -6.61673e-06 -1.90385e-18)
(0.0628668 -6.63234e-06 1.57925e-17)
(0.0628543 -6.64825e-06 -1.37038e-17)
(0.0628418 -6.66527e-06 2.61157e-17)
(0.0628292 -6.68273e-06 -3.15556e-18)
(0.0628166 -6.69967e-06 2.12493e-17)
(0.0628039 -6.71644e-06 -1.62444e-17)
(0.0627912 -6.73256e-06 -1.61332e-18)
(0.0627785 -6.74848e-06 -1.83808e-18)
(0.0627657 -6.76451e-06 1.58378e-17)
(0.0627529 -6.78073e-06 -1.35198e-17)
(0.06274 -6.79684e-06 2.57058e-17)
(0.0627271 -6.81319e-06 -3.06029e-18)
(0.0627142 -6.8293e-06 2.1328e-17)
(0.0627012 -6.84557e-06 -1.66625e-17)
(0.0626882 -6.86167e-06 -1.42145e-18)
(0.0626751 -6.87788e-06 -1.40551e-18)
(0.062662 -6.89404e-06 1.62554e-17)
(0.0626489 -6.9097e-06 -1.35463e-17)
(0.0626357 -6.92505e-06 2.59222e-17)
(0.0626225 -6.94048e-06 -2.8534e-18)
(0.0626093 -6.95658e-06 2.14485e-17)
(0.062596 -6.97298e-06 -1.70564e-17)
(0.0625827 -6.98915e-06 -2.01164e-18)
(0.0625693 -7.0051e-06 -2.21366e-18)
(0.0625559 -7.02057e-06 1.57949e-17)
(0.0625425 -7.03574e-06 -1.40633e-17)
(0.062529 -7.05068e-06 2.62014e-17)
(0.0625155 -7.06568e-06 -2.44906e-18)
(0.062502 -7.0807e-06 2.14807e-17)
(0.0624884 -7.0964e-06 -1.71288e-17)
(0.0624748 -7.1124e-06 -2.19384e-18)
(0.0624611 -7.12844e-06 -1.97612e-18)
(0.0624474 -7.14456e-06 1.56325e-17)
(0.0624337 -7.15993e-06 -1.42364e-17)
(0.0624199 -7.17489e-06 2.63311e-17)
(0.0624061 -7.18973e-06 -2.67772e-18)
(0.0623923 -7.20471e-06 2.15147e-17)
(0.0623784 -7.22005e-06 -1.73632e-17)
(0.0623645 -7.23553e-06 -2.33952e-18)
(0.0623505 -7.25127e-06 -1.91624e-18)
(0.0623365 -7.26719e-06 1.54816e-17)
(0.0623225 -7.28232e-06 -1.40641e-17)
(0.0623084 -7.29747e-06 2.61468e-17)
(0.0622943 -7.31286e-06 -3.20364e-18)
(0.0622802 -7.3285e-06 2.1207e-17)
(0.062266 -7.34439e-06 -1.70619e-17)
(0.0622518 -7.36027e-06 -1.65706e-18)
(0.0622376 -7.37586e-06 -1.37404e-18)
(0.0622233 -7.39103e-06 1.55793e-17)
(0.062209 -7.40631e-06 -1.41881e-17)
(0.0621947 -7.42217e-06 2.58742e-17)
(0.0621803 -7.43844e-06 -2.40093e-18)
(0.0621659 -7.45483e-06 2.0966e-17)
(0.0621514 -7.47114e-06 -1.68028e-17)
(0.0621369 -7.48802e-06 -1.34747e-18)
(0.0621224 -7.50538e-06 -1.35896e-18)
(0.0621079 -7.52254e-06 1.54646e-17)
(0.0620933 -7.53966e-06 -1.46413e-17)
(0.0620786 -7.5573e-06 2.61525e-17)
(0.062064 -7.57396e-06 -2.197e-18)
(0.0620493 -7.59049e-06 2.06652e-17)
(0.0620346 -7.60755e-06 -1.70292e-17)
(0.0620198 -7.62492e-06 -1.34971e-18)
(0.062005 -7.64312e-06 -1.70874e-18)
(0.0619902 -7.66205e-06 1.54541e-17)
(0.0619753 -7.6821e-06 -1.38721e-17)
(0.0619604 -7.70309e-06 2.626e-17)
(0.0619455 -7.72395e-06 -3.21675e-18)
(0.0619305 -7.74546e-06 2.01852e-17)
(0.0619155 -7.7678e-06 -1.75294e-17)
(0.0619005 -7.79066e-06 -1.99336e-18)
(0.0618855 -7.81358e-06 -9.43858e-19)
(0.0618704 -7.83696e-06 1.51205e-17)
(0.0618552 -7.86066e-06 -1.41365e-17)
(0.0618401 -7.88532e-06 2.58302e-17)
(0.0618249 -7.9118e-06 -2.19544e-18)
(0.0618097 -7.93987e-06 2.11058e-17)
(0.0617944 -7.96919e-06 -1.75736e-17)
(0.0617791 -8.00005e-06 -7.93962e-19)
(0.0617638 -8.03258e-06 -7.43692e-19)
(0.0617485 -8.06652e-06 1.59826e-17)
(0.0617331 -8.10187e-06 -1.38389e-17)
(0.0617177 -8.13898e-06 2.68451e-17)
(0.0617022 -8.17933e-06 -1.21694e-18)
(0.0616867 -8.22196e-06 2.10555e-17)
(0.0616712 -8.26588e-06 -1.81857e-17)
(0.0616557 -8.31203e-06 -1.74958e-18)
(0.0616401 -8.36058e-06 -1.42433e-18)
(0.0616245 -8.41197e-06 1.57771e-17)
(0.0616089 -8.46588e-06 -1.38983e-17)
(0.0615933 -8.52207e-06 2.66298e-17)
(0.0615776 -8.58028e-06 -1.56254e-18)
(0.0615619 -8.63993e-06 2.10109e-17)
(0.0615462 -8.70346e-06 -1.76329e-17)
(0.0615304 -8.7665e-06 -1.47178e-18)
(0.0615146 -8.84515e-06 -1.16796e-18)
(0.0614989 -8.88876e-06 1.42265e-17)
(0.0614831 -9.02236e-06 -1.06109e-17)
(0.0614675 -8.96952e-06 1.83485e-17)
(0.0614516 -9.3515e-06 1.32718e-17)
(0.0614362 -9.02621e-06 6.16069e-19)
(0.0614209 -1.01343e-05 7.01486e-18)
(0.0614051 -9.98786e-06 -2.32177e-17)
(0.0613899 -1.23602e-05 2.08026e-17)
(0.0613735 -1.43853e-05 -4.6265e-18)
(0.0613538 -1.36074e-05 2.0809e-17)
(0.0633882 -5.59456e-06 2.10537e-17)
(0.0633757 -5.67617e-06 -2.16248e-17)
(0.0633644 -5.84139e-06 3.08079e-17)
(0.0633544 -5.91619e-06 -8.78808e-18)
(0.063344 -5.94678e-06 2.46533e-17)
(0.0633331 -5.99489e-06 -2.32748e-17)
(0.0633222 -6.04452e-06 -6.15267e-18)
(0.0633114 -6.08279e-06 -1.1467e-17)
(0.0633005 -6.11398e-06 2.10745e-17)
(0.0632895 -6.14298e-06 -2.1773e-17)
(0.0632785 -6.17004e-06 3.10006e-17)
(0.0632675 -6.19521e-06 -9.20037e-18)
(0.0632564 -6.219e-06 2.50026e-17)
(0.0632452 -6.24222e-06 -2.32424e-17)
(0.0632341 -6.26536e-06 -6.71549e-18)
(0.0632228 -6.28772e-06 -1.08174e-17)
(0.0632116 -6.30952e-06 1.8842e-17)
(0.0632003 -6.33153e-06 -1.49668e-17)
(0.0631889 -6.35321e-06 1.59579e-17)
(0.0631775 -6.37454e-06 1.89303e-17)
(0.0631661 -6.39597e-06 -1.37535e-17)
(0.0631546 -6.41704e-06 7.4819e-18)
(0.0631431 -6.4383e-06 -3.63407e-17)
(0.0631315 -6.45955e-06 2.22897e-17)
(0.0631199 -6.48037e-06 -1.26671e-17)
(0.0631083 -6.50047e-06 2.31681e-17)
(0.0630966 -6.51969e-06 -2.41395e-17)
(0.0630849 -6.53918e-06 -6.19197e-18)
(0.0630731 -6.55936e-06 -1.10758e-17)
(0.0630613 -6.57978e-06 2.10927e-17)
(0.0630495 -6.5996e-06 -2.19121e-17)
(0.0630376 -6.61895e-06 3.10583e-17)
(0.0630256 -6.63783e-06 -9.26142e-18)
(0.0630137 -6.65621e-06 2.47802e-17)
(0.0630016 -6.67433e-06 -2.40231e-17)
(0.0629896 -6.6933e-06 -6.2493e-18)
(0.0629775 -6.71248e-06 -1.0982e-17)
(0.0629654 -6.73137e-06 2.1399e-17)
(0.0629532 -6.74975e-06 -2.16798e-17)
(0.062941 -6.76776e-06 3.09247e-17)
(0.0629287 -6.78523e-06 -8.93317e-18)
(0.0629164 -6.80215e-06 2.49455e-17)
(0.0629041 -6.81967e-06 -2.39468e-17)
(0.0628917 -6.83733e-06 -6.15565e-18)
(0.0628793 -6.855e-06 -1.0682e-17)
(0.0628668 -6.87269e-06 2.16765e-17)
(0.0628543 -6.89033e-06 -2.2111e-17)
(0.0628418 -6.90741e-06 3.13072e-17)
(0.0628292 -6.92448e-06 -8.72959e-18)
(0.0628165 -6.9411e-06 2.52162e-17)
(0.0628039 -6.95735e-06 -2.41515e-17)
(0.0627912 -6.97381e-06 -6.28574e-18)
(0.0627785 -6.99046e-06 -1.03885e-17)
(0.0627657 -7.0072e-06 2.17092e-17)
(0.0627529 -7.02351e-06 -2.18598e-17)
(0.06274 -7.04056e-06 3.13711e-17)
(0.0627271 -7.05776e-06 -8.51637e-18)
(0.0627142 -7.07457e-06 2.52513e-17)
(0.0627012 -7.09074e-06 -2.44069e-17)
(0.0626882 -7.10663e-06 -6.50444e-18)
(0.0626751 -7.12237e-06 -1.00184e-17)
(0.062662 -7.13849e-06 2.19761e-17)
(0.0626489 -7.15535e-06 -2.16814e-17)
(0.0626357 -7.17258e-06 3.11458e-17)
(0.0626225 -7.18979e-06 -8.68436e-18)
(0.0626093 -7.20648e-06 2.52249e-17)
(0.062596 -7.22276e-06 -2.45028e-17)
(0.0625827 -7.2387e-06 -6.86998e-18)
(0.0625693 -7.25444e-06 -1.03054e-17)
(0.0625559 -7.27028e-06 2.16631e-17)
(0.0625425 -7.28633e-06 -2.18828e-17)
(0.062529 -7.30258e-06 3.15435e-17)
(0.0625155 -7.3188e-06 -8.80595e-18)
(0.062502 -7.33547e-06 2.49282e-17)
(0.0624884 -7.35172e-06 -2.47113e-17)
(0.0624748 -7.36771e-06 -7.10754e-18)
(0.0624611 -7.38374e-06 -1.01103e-17)
(0.0624474 -7.40002e-06 2.16128e-17)
(0.0624337 -7.41612e-06 -2.21344e-17)
(0.0624199 -7.4319e-06 3.16729e-17)
(0.0624061 -7.44763e-06 -8.39499e-18)
(0.0623923 -7.46356e-06 2.53559e-17)
(0.0623784 -7.47947e-06 -2.5286e-17)
(0.0623645 -7.49542e-06 -6.97409e-18)
(0.0623505 -7.51082e-06 -9.94554e-18)
(0.0623365 -7.52598e-06 2.15465e-17)
(0.0623225 -7.5422e-06 -2.21863e-17)
(0.0623084 -7.55857e-06 3.16965e-17)
(0.0622943 -7.57477e-06 -8.25916e-18)
(0.0622802 -7.59093e-06 2.5108e-17)
(0.062266 -7.60661e-06 -2.50249e-17)
(0.0622518 -7.6218e-06 -7.04393e-18)
(0.0622376 -7.63729e-06 -9.6987e-18)
(0.0622233 -7.65319e-06 2.17792e-17)
(0.062209 -7.66927e-06 -2.21567e-17)
(0.0621947 -7.68482e-06 3.152e-17)
(0.0621803 -7.69988e-06 -8.30269e-18)
(0.0621659 -7.71556e-06 2.50499e-17)
(0.0621514 -7.73183e-06 -2.49118e-17)
(0.0621369 -7.74789e-06 -7.03533e-18)
(0.0621224 -7.7641e-06 -9.76046e-18)
(0.0621078 -7.78098e-06 2.16143e-17)
(0.0620933 -7.79812e-06 -2.24886e-17)
(0.0620786 -7.81558e-06 3.17006e-17)
(0.062064 -7.83278e-06 -8.37363e-18)
(0.0620493 -7.85036e-06 2.48477e-17)
(0.0620346 -7.86831e-06 -2.48383e-17)
(0.0620198 -7.88681e-06 -6.61475e-18)
(0.062005 -7.90526e-06 -9.3117e-18)
(0.0619902 -7.9237e-06 2.16313e-17)
(0.0619753 -7.94202e-06 -2.20586e-17)
(0.0619604 -7.96045e-06 3.18068e-17)
(0.0619455 -7.97958e-06 -8.25761e-18)
(0.0619305 -7.99905e-06 2.46611e-17)
(0.0619155 -8.01975e-06 -2.56195e-17)
(0.0619005 -8.04157e-06 -6.85537e-18)
(0.0618855 -8.06473e-06 -9.01812e-18)
(0.0618704 -8.08895e-06 2.16698e-17)
(0.0618552 -8.11379e-06 -2.21769e-17)
(0.0618401 -8.13972e-06 3.16684e-17)
(0.0618249 -8.16615e-06 -7.72082e-18)
(0.0618097 -8.19343e-06 2.51369e-17)
(0.0617944 -8.22178e-06 -2.55564e-17)
(0.0617791 -8.25188e-06 -7.33983e-18)
(0.0617638 -8.28316e-06 -8.99963e-18)
(0.0617484 -8.3163e-06 2.20198e-17)
(0.0617331 -8.35169e-06 -2.22445e-17)
(0.0617177 -8.38807e-06 3.2459e-17)
(0.0617022 -8.42527e-06 -7.61575e-18)
(0.0616867 -8.4667e-06 2.45431e-17)
(0.0616712 -8.51029e-06 -2.59139e-17)
(0.0616557 -8.55617e-06 -7.47483e-18)
(0.0616401 -8.60457e-06 -9.1028e-18)
(0.0616245 -8.6556e-06 2.20306e-17)
(0.0616089 -8.70929e-06 -2.22535e-17)
(0.0615932 -8.76651e-06 3.22462e-17)
(0.0615776 -8.82786e-06 -7.83564e-18)
(0.0615619 -8.89194e-06 2.49812e-17)
(0.0615461 -8.96011e-06 -2.57478e-17)
(0.0615304 -9.02553e-06 -7.81347e-18)
(0.0615146 -9.10906e-06 -8.59016e-18)
(0.0614989 -9.16236e-06 1.96079e-17)
(0.0614831 -9.31399e-06 -1.64793e-17)
(0.0614675 -9.28019e-06 1.7829e-17)
(0.0614516 -9.69241e-06 1.93002e-17)
(0.0614361 -9.43791e-06 -1.49509e-17)
(0.0614207 -1.04821e-05 4.71675e-18)
(0.0614048 -1.05508e-05 -3.76633e-17)
(0.0613894 -1.23382e-05 2.33737e-17)
(0.0613729 -1.31795e-05 -1.16237e-17)
(0.0613556 -1.48224e-05 2.37289e-17)
(0.0633882 -4.98618e-06 2.25314e-17)
(0.0633757 -5.10919e-06 -2.41142e-17)
(0.0633644 -5.31741e-06 3.26152e-17)
(0.0633544 -5.37849e-06 -1.04527e-17)
(0.063344 -5.39182e-06 2.52948e-17)
(0.0633331 -5.43592e-06 -2.48714e-17)
(0.0633222 -5.48035e-06 -7.60262e-18)
(0.0633114 -5.50991e-06 -1.52629e-17)
(0.0633005 -5.53284e-06 2.24944e-17)
(0.0632895 -5.55306e-06 -2.41012e-17)
(0.0632785 -5.57181e-06 3.23861e-17)
(0.0632675 -5.58997e-06 -1.10938e-17)
(0.0632564 -5.60713e-06 2.57758e-17)
(0.0632452 -5.62429e-06 -2.52059e-17)
(0.0632341 -5.64072e-06 -7.99433e-18)
(0.0632228 -5.65702e-06 -1.43916e-17)
(0.0632116 -5.67271e-06 2.05542e-17)
(0.0632003 -5.68864e-06 -1.77605e-17)
(0.0631889 -5.70546e-06 1.79873e-17)
(0.0631775 -5.7218e-06 1.50615e-17)
(0.0631661 -5.7371e-06 -9.36004e-18)
(0.0631546 -5.75276e-06 1.33706e-17)
(0.0631431 -5.76882e-06 -3.63847e-17)
(0.0631315 -5.78487e-06 2.4222e-17)
(0.0631199 -5.80064e-06 -1.41968e-17)
(0.0631083 -5.81663e-06 2.41334e-17)
(0.0630966 -5.83344e-06 -2.57236e-17)
(0.0630849 -5.84979e-06 -8.28855e-18)
(0.0630731 -5.86537e-06 -1.50847e-17)
(0.0630613 -5.88072e-06 2.25438e-17)
(0.0630495 -5.89642e-06 -2.43088e-17)
(0.0630376 -5.91246e-06 3.22828e-17)
(0.0630256 -5.9286e-06 -1.02779e-17)
(0.0630137 -5.94473e-06 2.58195e-17)
(0.0630016 -5.96098e-06 -2.54948e-17)