/*--------------------------------*- C++ -*----------------------------------*\
| =========                 |                                                 |
| \\      /  F ield         | OpenFOAM: The Open Source CFD Toolbox           |
|  \\    /   O peration     | Version:  2512                                  |
|   \\  /    A nd           | Website:  www.openfoam.com                      |
|    \\/     M anipulation  |                                                 |
\*---------------------------------------------------------------------------*/
FoamFile
{
    version     2.0;
    format      ascii;
    arch        "LSB;label=32;scalar=64";
    class       volScalarField;
    location    "0.1";
    object      Ux;
}
// * * * * * * * * * * * * * * * * * * * * * * * * * * * * * * * * * * * * * //

dimensions      [0 1 -1 0 0 0 0];

internalField   nonuniform List<scalar> 
8333
(
0.0633882
0.0633758
0.0633646
0.0633545
0.0633441
0.0633332
0.0633223
0.0633114
0.0633005
0.0632895
0.0632785
0.0632675
0.0632564
0.0632453
0.0632341
0.0632229
0.0632116
0.0632003
0.063189
0.0631776
0.0631661
0.0631547
0.0631431
0.0631316
0.06312
0.0631083
0.0630966
0.0630849
0.0630732
0.0630613
0.0630495
0.0630376
0.0630257
0.0630137
0.0630017
0.0629896
0.0629775
0.0629654
0.0629532
0.062941
0.0629287
0.0629164
0.0629041
0.0628917
0.0628793
0.0628668
0.0628543
0.0628418
0.0628292
0.0628166
0.0628039
0.0627912
0.0627785
0.0627657
0.0627529
0.06274
0.0627271
0.0627142
0.0627012
0.0626882
0.0626752
0.0626621
0.0626489
0.0626358
0.0626226
0.0626093
0.062596
0.0625827
0.0625694
0.062556
0.0625425
0.0625291
0.0625156
0.062502
0.0624884
0.0624748
0.0624611
0.0624474
0.0624337
0.0624199
0.0624061
0.0623923
0.0623784
0.0623645
0.0623505
0.0623366
0.0623225
0.0623085
0.0622944
0.0622802
0.0622661
0.0622519
0.0622376
0.0622234
0.062209
0.0621947
0.0621803
0.0621659
0.0621514
0.062137
0.0621224
0.0621079
0.0620933
0.0620787
0.062064
0.0620493
0.0620346
0.0620198
0.062005
0.0619902
0.0619754
0.0619605
0.0619455
0.0619306
0.0619156
0.0619006
0.0618855
0.0618704
0.0618553
0.0618401
0.0618249
0.0618097
0.0617945
0.0617792
0.0617639
0.0617485
0.0617331
0.0617177
0.0617023
0.0616868
0.0616713
0.0616558
0.0616402
0.0616246
0.061609
0.0615933
0.0615777
0.061562
0.0615462
0.0615305
0.0615147
0.061499
0.0614831
0.0614676
0.0614516
0.0614366
0.0614212
0.0614066
0.0633882
0.0633758
0.0633646
0.0633545
0.0633441
0.0633332
0.0633223
0.0633114
0.0633005
0.0632895
0.0632785
0.0632675
0.0632564
0.0632453
0.0632341
0.0632229
0.0632116
0.0632003
0.0631889
0.0631776
0.0631661
0.0631546
0.0631431
0.0631316
0.06312
0.0631083
0.0630966
0.0630849
0.0630731
0.0630613
0.0630495
0.0630376
0.0630257
0.0630137
0.0630017
0.0629896
0.0629775
0.0629654
0.0629532
0.062941
0.0629287
0.0629164
0.0629041
0.0628917
0.0628793
0.0628668
0.0628543
0.0628418
0.0628292
0.0628166
0.0628039
0.0627912
0.0627785
0.0627657
0.0627529
0.06274
0.0627271
0.0627142
0.0627012
0.0626882
0.0626752
0.0626621
0.0626489
0.0626358
0.0626226
0.0626093
0.062596
0.0625827
0.0625694
0.062556
0.0625425
0.0625291
0.0625155
0.062502
0.0624884
0.0624748
0.0624611
0.0624474
0.0624337
0.0624199
0.0624061
0.0623923
0.0623784
0.0623645
0.0623505
0.0623365
0.0623225
0.0623085
0.0622944
0.0622802
0.0622661
0.0622519
0.0622376
0.0622233
0.062209
0.0621947
0.0621803
0.0621659
0.0621514
0.0621369
0.0621224
0.0621079
0.0620933
0.0620787
0.062064
0.0620493
0.0620346
0.0620198
0.062005
0.0619902
0.0619753
0.0619605
0.0619455
0.0619306
0.0619156
0.0619005
0.0618855
0.0618704
0.0618553
0.0618401
0.0618249
0.0618097
0.0617944
0.0617792
0.0617638
0.0617485
0.0617331
0.0617177
0.0617023
0.0616868
0.0616713
0.0616557
0.0616402
0.0616246
0.061609
0.0615933
0.0615776
0.0615619
0.0615462
0.0615305
0.0615147
0.061499
0.0614831
0.0614676
0.0614516
0.0614364
0.0614211
0.0614062
0.0613912
0.0633882
0.0633758
0.0633645
0.0633545
0.0633441
0.0633331
0.0633222
0.0633114
0.0633005
0.0632895
0.0632785
0.0632675
0.0632564
0.0632452
0.0632341
0.0632228
0.0632116
0.0632003
0.0631889
0.0631775
0.0631661
0.0631546
0.0631431
0.0631316
0.06312
0.0631083
0.0630966
0.0630849
0.0630731
0.0630613
0.0630495
0.0630376
0.0630256
0.0630137
0.0630017
0.0629896
0.0629775
0.0629654
0.0629532
0.062941
0.0629287
0.0629164
0.0629041
0.0628917
0.0628793
0.0628668
0.0628543
0.0628418
0.0628292
0.0628166
0.0628039
0.0627912
0.0627785
0.0627657
0.0627529
0.06274
0.0627271
0.0627142
0.0627012
0.0626882
0.0626751
0.062662
0.0626489
0.0626358
0.0626225
0.0626093
0.062596
0.0625827
0.0625693
0.0625559
0.0625425
0.062529
0.0625155
0.062502
0.0624884
0.0624748
0.0624611
0.0624474
0.0624337
0.0624199
0.0624061
0.0623923
0.0623784
0.0623645
0.0623505
0.0623365
0.0623225
0.0623084
0.0622943
0.0622802
0.062266
0.0622518
0.0622376
0.0622233
0.062209
0.0621947
0.0621803
0.0621659
0.0621514
0.0621369
0.0621224
0.0621079
0.0620933
0.0620787
0.062064
0.0620493
0.0620346
0.0620198
0.062005
0.0619902
0.0619753
0.0619604
0.0619455
0.0619306
0.0619156
0.0619005
0.0618855
0.0618704
0.0618553
0.0618401
0.0618249
0.0618097
0.0617944
0.0617791
0.0617638
0.0617485
0.0617331
0.0617177
0.0617022
0.0616868
0.0616713
0.0616557
0.0616402
0.0616246
0.0616089
0.0615933
0.0615776
0.0615619
0.0615462
0.0615304
0.0615147
0.061499
0.0614831
0.0614676
0.0614516
0.0614364
0.0614211
0.0614056
0.061391
0.0613733
0.0633882
0.0633758
0.0633645
0.0633544
0.063344
0.0633331
0.0633222
0.0633114
0.0633005
0.0632895
0.0632785
0.0632675
0.0632564
0.0632452
0.0632341
0.0632228
0.0632116
0.0632003
0.0631889
0.0631775
0.0631661
0.0631546
0.0631431
0.0631316
0.06312
0.0631083
0.0630966
0.0630849
0.0630731
0.0630613
0.0630495
0.0630376
0.0630256
0.0630137
0.0630017
0.0629896
0.0629775
0.0629654
0.0629532
0.062941
0.0629287
0.0629164
0.0629041
0.0628917
0.0628793
0.0628668
0.0628543
0.0628418
0.0628292
0.0628166
0.0628039
0.0627912
0.0627785
0.0627657
0.0627529
0.06274
0.0627271
0.0627142
0.0627012
0.0626882
0.0626751
0.062662
0.0626489
0.0626357
0.0626225
0.0626093
0.062596
0.0625827
0.0625693
0.0625559
0.0625425
0.062529
0.0625155
0.062502
0.0624884
0.0624748
0.0624611
0.0624474
0.0624337
0.0624199
0.0624061
0.0623923
0.0623784
0.0623645
0.0623505
0.0623365
0.0623225
0.0623084
0.0622943
0.0622802
0.062266
0.0622518
0.0622376
0.0622233
0.062209
0.0621947
0.0621803
0.0621659
0.0621514
0.0621369
0.0621224
0.0621079
0.0620933
0.0620786
0.062064
0.0620493
0.0620346
0.0620198
0.062005
0.0619902
0.0619753
0.0619604
0.0619455
0.0619305
0.0619155
0.0619005
0.0618855
0.0618704
0.0618552
0.0618401
0.0618249
0.0618097
0.0617944
0.0617791
0.0617638
0.0617485
0.0617331
0.0617177
0.0617022
0.0616867
0.0616712
0.0616557
0.0616401
0.0616245
0.0616089
0.0615933
0.0615776
0.0615619
0.0615462
0.0615304
0.0615146
0.0614989
0.0614831
0.0614675
0.0614516
0.0614362
0.0614209
0.0614051
0.0613899
0.0613735
0.0613538
0.0633882
0.0633757
0.0633644
0.0633544
0.063344
0.0633331
0.0633222
0.0633114
0.0633005
0.0632895
0.0632785
0.0632675
0.0632564
0.0632452
0.0632341
0.0632228
0.0632116
0.0632003
0.0631889
0.0631775
0.0631661
0.0631546
0.0631431
0.0631315
0.0631199
0.0631083
0.0630966
0.0630849
0.0630731
0.0630613
0.0630495
0.0630376
0.0630256
0.0630137
0.0630016
0.0629896
0.0629775
0.0629654
0.0629532
0.062941
0.0629287
0.0629164
0.0629041
0.0628917
0.0628793
0.0628668
0.0628543
0.0628418
0.0628292
0.0628165
0.0628039
0.0627912
0.0627785
0.0627657
0.0627529
0.06274
0.0627271
0.0627142
0.0627012
0.0626882
0.0626751
0.062662
0.0626489
0.0626357
0.0626225
0.0626093
0.062596
0.0625827
0.0625693
0.0625559
0.0625425
0.062529
0.0625155
0.062502
0.0624884
0.0624748
0.0624611
0.0624474
0.0624337
0.0624199
0.0624061
0.0623923
0.0623784
0.0623645
0.0623505
0.0623365
0.0623225
0.0623084
0.0622943
0.0622802
0.062266
0.0622518
0.0622376
0.0622233
0.062209
0.0621947
0.0621803
0.0621659
0.0621514
0.0621369
0.0621224
0.0621078
0.0620933
0.0620786
0.062064
0.0620493
0.0620346
0.0620198
0.062005
0.0619902
0.0619753
0.0619604
0.0619455
0.0619305
0.0619155
0.0619005
0.0618855
0.0618704
0.0618552
0.0618401
0.0618249
0.0618097
0.0617944
0.0617791
0.0617638
0.0617484
0.0617331
0.0617177
0.0617022
0.0616867
0.0616712
0.0616557
0.0616401
0.0616245
0.0616089
0.0615932
0.0615776
0.0615619
0.0615461
0.0615304
0.0615146
0.0614989
0.0614831
0.0614675
0.0614516
0.0614361
0.0614207
0.0614048
0.0613894
0.0613729
0.0613556
0.0633882
0.0633757
0.0633644
0.0633544
0.063344
0.0633331
0.0633222
0.0633114
0.0633005
0.0632895
0.0632785
0.0632675
0.0632564
0.0632452
0.0632341
0.0632228
0.0632116
0.0632003
0.0631889
0.0631775
0.0631661
0.0631546
0.0631431
0.0631315
0.0631199
0.0631083
0.0630966
0.0630849
0.0630731
0.0630613
0.0630495
0.0630376
0.0630256
0.0630137
0.0630016
0.0629896
0.0629775
0.0629653
0.0629532
0.062941
0.0629287
0.0629164
0.0629041
0.0628917
0.0628792
0.0628668
0.0628543
0.0628417
0.0628292
0.0628165
0.0628039
0.0627912
0.0627784
0.0627657
0.0627529
0.06274
0.0627271
0.0627142
0.0627012
0.0626882
0.0626751
0.062662
0.0626489
0.0626357
0.0626225
0.0626093
0.062596
0.0625827
0.0625693
0.0625559
0.0625425
0.062529
0.0625155
0.062502
0.0624884
0.0624748
0.0624611
0.0624474
0.0624337
0.0624199
0.0624061
0.0623923
0.0623784
0.0623645
0.0623505
0.0623365
0.0623225
0.0623084
0.0622943
0.0622802
0.062266
0.0622518
0.0622376
0.0622233
0.062209
0.0621947
0.0621803
0.0621659
0.0621514
0.0621369
0.0621224
0.0621078
0.0620933
0.0620786
0.062064
0.0620493
0.0620346
0.0620198
0.062005
0.0619902
0.0619753
0.0619604
0.0619455
0.0619305
0.0619155
0.0619005
0.0618854
0.0618703
0.0618552
0.0618401
0.0618249
0.0618097
0.0617944
0.0617791
0.0617638
0.0617484
0.0617331
0.0617176
0.0617022
0.0616867
0.0616712
0.0616557
0.0616401
0.0616245
0.0616089
0.0615932
0.0615775
0.0615618
0.0615461
0.0615304
0.0615146
0.0614989
0.061483
0.0614674
0.0614516
0.061436
0.0614205
0.0614045
0.0613889
0.0613727
0.061356
0.0613384
0.0633882
0.0633756
0.0633644
0.0633544
0.063344
0.0633331
0.0633222
0.0633113
0.0633004
0.0632895
0.0632785
0.0632674
0.0632564
0.0632452
0.063234
0.0632228
0.0632116
0.0632003
0.0631889
0.0631775
0.0631661
0.0631546
0.0631431
0.0631315
0.0631199
0.0631083
0.0630966
0.0630849
0.0630731
0.0630613
0.0630494
0.0630376
0.0630256
0.0630136
0.0630016
0.0629896
0.0629775
0.0629653
0.0629532
0.0629409
0.0629287
0.0629164
0.062904
0.0628917
0.0628792
0.0628668
0.0628543
0.0628417
0.0628292
0.0628165
0.0628039
0.0627912
0.0627784
0.0627657
0.0627528
0.06274
0.0627271
0.0627142
0.0627012
0.0626882
0.0626751
0.062662
0.0626489
0.0626357
0.0626225
0.0626093
0.062596
0.0625827
0.0625693
0.0625559
0.0625425
0.062529
0.0625155
0.062502
0.0624884
0.0624748
0.0624611
0.0624474
0.0624337
0.0624199
0.0624061
0.0623922
0.0623784
0.0623644
0.0623505
0.0623365
0.0623225
0.0623084
0.0622943
0.0622802
0.062266
0.0622518
0.0622376
0.0622233
0.062209
0.0621946
0.0621803
0.0621658
0.0621514
0.0621369
0.0621224
0.0621078
0.0620932
0.0620786
0.062064
0.0620493
0.0620345
0.0620198
0.062005
0.0619902
0.0619753
0.0619604
0.0619455
0.0619305
0.0619155
0.0619005
0.0618854
0.0618703
0.0618552
0.0618401
0.0618249
0.0618096
0.0617944
0.0617791
0.0617638
0.0617484
0.061733
0.0617176
0.0617022
0.0616867
0.0616712
0.0616557
0.0616401
0.0616245
0.0616089
0.0615932
0.0615775
0.0615618
0.0615461
0.0615303
0.0615146
0.0614988
0.061483
0.0614673
0.0614515
0.0614358
0.0614203
0.0614042
0.0613885
0.0613723
0.0613554
0.0613386
0.0613195
0.0633882
0.0633755
0.0633643
0.0633544
0.063344
0.0633331
0.0633222
0.0633113
0.0633004
0.0632895
0.0632785
0.0632674
0.0632563
0.0632452
0.063234
0.0632228
0.0632116
0.0632002
0.0631889
0.0631775
0.0631661
0.0631546
0.0631431
0.0631315
0.0631199
0.0631083
0.0630966
0.0630849
0.0630731
0.0630613
0.0630494
0.0630375
0.0630256
0.0630136
0.0630016
0.0629896
0.0629775
0.0629653
0.0629532
0.0629409
0.0629287
0.0629164
0.062904
0.0628917
0.0628792
0.0628668
0.0628543
0.0628417
0.0628292
0.0628165
0.0628039
0.0627912
0.0627784
0.0627657
0.0627528
0.06274
0.0627271
0.0627141
0.0627012
0.0626882
0.0626751
0.062662
0.0626489
0.0626357
0.0626225
0.0626093
0.062596
0.0625827
0.0625693
0.0625559
0.0625425
0.062529
0.0625155
0.062502
0.0624884
0.0624747
0.0624611
0.0624474
0.0624337
0.0624199
0.0624061
0.0623922
0.0623784
0.0623644
0.0623505
0.0623365
0.0623225
0.0623084
0.0622943
0.0622802
0.062266
0.0622518
0.0622376
0.0622233
0.062209
0.0621946
0.0621803
0.0621658
0.0621514
0.0621369
0.0621224
0.0621078
0.0620932
0.0620786
0.062064
0.0620493
0.0620345
0.0620198
0.062005
0.0619902
0.0619753
0.0619604
0.0619455
0.0619305
0.0619155
0.0619005
0.0618854
0.0618703
0.0618552
0.06184
0.0618249
0.0618096
0.0617944
0.0617791
0.0617638
0.0617484
0.061733
0.0617176
0.0617022
0.0616867
0.0616712
0.0616556
0.0616401
0.0616245
0.0616088
0.0615932
0.0615775
0.0615618
0.0615461
0.0615303
0.0615145
0.0614988
0.061483
0.0614672
0.0614514
0.0614357
0.0614201
0.061404
0.0613882
0.0613719
0.0613553
0.0613384
0.0613217
0.0633881
0.0633754
0.0633642
0.0633544
0.063344
0.0633331
0.0633222
0.0633113
0.0633004
0.0632895
0.0632785
0.0632674
0.0632563
0.0632452
0.063234
0.0632228
0.0632115
0.0632002
0.0631889
0.0631775
0.0631661
0.0631546
0.0631431
0.0631315
0.0631199
0.0631083
0.0630966
0.0630849
0.0630731
0.0630613
0.0630494
0.0630375
0.0630256
0.0630136
0.0630016
0.0629896
0.0629775
0.0629653
0.0629531
0.0629409
0.0629287
0.0629164
0.062904
0.0628916
0.0628792
0.0628668
0.0628543
0.0628417
0.0628291
0.0628165
0.0628039
0.0627912
0.0627784
0.0627656
0.0627528
0.06274
0.0627271
0.0627141
0.0627012
0.0626882
0.0626751
0.062662
0.0626489
0.0626357
0.0626225
0.0626093
0.062596
0.0625827
0.0625693
0.0625559
0.0625425
0.062529
0.0625155
0.0625019
0.0624884
0.0624747
0.0624611
0.0624474
0.0624337
0.0624199
0.0624061
0.0623922
0.0623784
0.0623644
0.0623505
0.0623365
0.0623225
0.0623084
0.0622943
0.0622802
0.062266
0.0622518
0.0622376
0.0622233
0.062209
0.0621946
0.0621803
0.0621658
0.0621514
0.0621369
0.0621224
0.0621078
0.0620932
0.0620786
0.062064
0.0620493
0.0620345
0.0620198
0.062005
0.0619902
0.0619753
0.0619604
0.0619455
0.0619305
0.0619155
0.0619005
0.0618854
0.0618703
0.0618552
0.06184
0.0618248
0.0618096
0.0617944
0.0617791
0.0617638
0.0617484
0.061733
0.0617176
0.0617021
0.0616867
0.0616712
0.0616556
0.06164
0.0616244
0.0616088
0.0615932
0.0615775
0.0615618
0.061546
0.0615303
0.0615145
0.0614987
0.0614829
0.0614672
0.0614514
0.0614356
0.0614199
0.0614038
0.0613879
0.0613716
0.0613551
0.0613382
0.0613219
0.0613043
0.0633881
0.0633752
0.0633642
0.0633544
0.063344
0.063333
0.0633222
0.0633113
0.0633004
0.0632895
0.0632785
0.0632674
0.0632563
0.0632452
0.063234
0.0632228
0.0632115
0.0632002
0.0631889
0.0631775
0.0631661
0.0631546
0.0631431
0.0631315
0.0631199
0.0631083
0.0630966
0.0630849
0.0630731
0.0630613
0.0630494
0.0630375
0.0630256
0.0630136
0.0630016
0.0629896
0.0629775
0.0629653
0.0629531
0.0629409
0.0629287
0.0629164
0.062904
0.0628916
0.0628792
0.0628668
0.0628543
0.0628417
0.0628291
0.0628165
0.0628039
0.0627912
0.0627784
0.0627656
0.0627528
0.06274
0.0627271
0.0627141
0.0627012
0.0626881
0.0626751
0.062662
0.0626489
0.0626357
0.0626225
0.0626093
0.062596
0.0625827
0.0625693
0.0625559
0.0625425
0.062529
0.0625155
0.0625019
0.0624884
0.0624747
0.0624611
0.0624474
0.0624336
0.0624199
0.0624061
0.0623922
0.0623783
0.0623644
0.0623505
0.0623365
0.0623225
0.0623084
0.0622943
0.0622802
0.062266
0.0622518
0.0622376
0.0622233
0.062209
0.0621946
0.0621802
0.0621658
0.0621514
0.0621369
0.0621224
0.0621078
0.0620932
0.0620786
0.0620639
0.0620493
0.0620345
0.0620198
0.062005
0.0619901
0.0619753
0.0619604
0.0619455
0.0619305
0.0619155
0.0619005
0.0618854
0.0618703
0.0618552
0.06184
0.0618248
0.0618096
0.0617944
0.0617791
0.0617637
0.0617484
0.061733
0.0617176
0.0617021
0.0616867
0.0616711
0.0616556
0.06164
0.0616244
0.0616088
0.0615931
0.0615774
0.0615617
0.061546
0.0615302
0.0615145
0.0614987
0.0614829
0.0614671
0.0614513
0.0614354
0.0614197
0.0614036
0.0613876
0.0613714
0.0613548
0.0613381
0.0613215
0.0613048
0.0612867
0.063388
0.063375
0.0633641
0.0633545
0.063344
0.063333
0.0633221
0.0633113
0.0633004
0.0632895
0.0632785
0.0632674
0.0632563
0.0632452
0.063234
0.0632228
0.0632115
0.0632002
0.0631889
0.0631775
0.0631661
0.0631546
0.0631431
0.0631315
0.0631199
0.0631083
0.0630966
0.0630848
0.0630731
0.0630613
0.0630494
0.0630375
0.0630256
0.0630136
0.0630016
0.0629895
0.0629775
0.0629653
0.0629531
0.0629409
0.0629287
0.0629164
0.062904
0.0628916
0.0628792
0.0628668
0.0628543
0.0628417
0.0628291
0.0628165
0.0628039
0.0627912
0.0627784
0.0627656
0.0627528
0.06274
0.0627271
0.0627141
0.0627012
0.0626881
0.0626751
0.062662
0.0626489
0.0626357
0.0626225
0.0626093
0.062596
0.0625827
0.0625693
0.0625559
0.0625425
0.062529
0.0625155
0.0625019
0.0624884
0.0624747
0.0624611
0.0624474
0.0624336
0.0624199
0.0624061
0.0623922
0.0623783
0.0623644
0.0623505
0.0623365
0.0623225
0.0623084
0.0622943
0.0622802
0.062266
0.0622518
0.0622376
0.0622233
0.062209
0.0621946
0.0621802
0.0621658
0.0621514
0.0621369
0.0621224
0.0621078
0.0620932
0.0620786
0.0620639
0.0620492
0.0620345
0.0620198
0.062005
0.0619901
0.0619753
0.0619604
0.0619455
0.0619305
0.0619155
0.0619005
0.0618854
0.0618703
0.0618552
0.06184
0.0618248
0.0618096
0.0617943
0.0617791
0.0617637
0.0617484
0.061733
0.0617176
0.0617021
0.0616866
0.0616711
0.0616556
0.06164
0.0616244
0.0616088
0.0615931
0.0615774
0.0615617
0.061546
0.0615302
0.0615144
0.0614986
0.0614828
0.061467
0.0614512
0.0614353
0.0614195
0.0614034
0.0613874
0.0613711
0.0613546
0.0613379
0.0613212
0.0613043
0.0612871
0.061268
0.0633879
0.0633748
0.0633641
0.0633545
0.063344
0.063333
0.0633221
0.0633113
0.0633004
0.0632895
0.0632785
0.0632674
0.0632563
0.0632452
0.063234
0.0632228
0.0632115
0.0632002
0.0631889
0.0631775
0.063166
0.0631546
0.0631431
0.0631315
0.0631199
0.0631082
0.0630966
0.0630848
0.0630731
0.0630613
0.0630494
0.0630375
0.0630256
0.0630136
0.0630016
0.0629895
0.0629774
0.0629653
0.0629531
0.0629409
0.0629287
0.0629164
0.062904
0.0628916
0.0628792
0.0628668
0.0628542
0.0628417
0.0628291
0.0628165
0.0628038
0.0627911
0.0627784
0.0627656
0.0627528
0.06274
0.0627271
0.0627141
0.0627012
0.0626881
0.0626751
0.062662
0.0626489
0.0626357
0.0626225
0.0626092
0.062596
0.0625826
0.0625693
0.0625559
0.0625425
0.062529
0.0625155
0.0625019
0.0624883
0.0624747
0.0624611
0.0624474
0.0624336
0.0624199
0.0624061
0.0623922
0.0623783
0.0623644
0.0623505
0.0623365
0.0623225
0.0623084
0.0622943
0.0622802
0.062266
0.0622518
0.0622375
0.0622233
0.062209
0.0621946
0.0621802
0.0621658
0.0621514
0.0621369
0.0621224
0.0621078
0.0620932
0.0620786
0.0620639
0.0620492
0.0620345
0.0620198
0.062005
0.0619901
0.0619753
0.0619604
0.0619454
0.0619305
0.0619155
0.0619005
0.0618854
0.0618703
0.0618552
0.06184
0.0618248
0.0618096
0.0617943
0.061779
0.0617637
0.0617484
0.061733
0.0617176
0.0617021
0.0616866
0.0616711
0.0616556
0.06164
0.0616244
0.0616088
0.0615931
0.0615774
0.0615617
0.0615459
0.0615302
0.0615144
0.0614986
0.0614828
0.0614669
0.0614511
0.0614352
0.0614193
0.0614032
0.0613871
0.0613709
0.0613544
0.0613378
0.061321
0.0613043
0.0612871
0.0612701
0.0633876
0.0633745
0.0633641
0.0633546
0.063344
0.063333
0.0633221
0.0633113
0.0633004
0.0632894
0.0632784
0.0632674
0.0632563
0.0632452
0.063234
0.0632228
0.0632115
0.0632002
0.0631889
0.0631775
0.063166
0.0631546
0.063143
0.0631315
0.0631199
0.0631082
0.0630966
0.0630848
0.0630731
0.0630613
0.0630494
0.0630375
0.0630256
0.0630136
0.0630016
0.0629895
0.0629774
0.0629653
0.0629531
0.0629409
0.0629286
0.0629163
0.062904
0.0628916
0.0628792
0.0628667
0.0628542
0.0628417
0.0628291
0.0628165
0.0628038
0.0627911
0.0627784
0.0627656
0.0627528
0.0627399
0.0627271
0.0627141
0.0627011
0.0626881
0.0626751
0.062662
0.0626489
0.0626357
0.0626225
0.0626092
0.062596
0.0625826
0.0625693
0.0625559
0.0625425
0.062529
0.0625155
0.0625019
0.0624883
0.0624747
0.0624611
0.0624474
0.0624336
0.0624199
0.0624061
0.0623922
0.0623783
0.0623644
0.0623505
0.0623365
0.0623224
0.0623084
0.0622943
0.0622802
0.062266
0.0622518
0.0622375
0.0622233
0.062209
0.0621946
0.0621802
0.0621658
0.0621514
0.0621369
0.0621224
0.0621078
0.0620932
0.0620786
0.0620639
0.0620492
0.0620345
0.0620197
0.062005
0.0619901
0.0619753
0.0619604
0.0619454
0.0619305
0.0619155
0.0619005
0.0618854
0.0618703
0.0618552
0.06184
0.0618248
0.0618096
0.0617943
0.061779
0.0617637
0.0617484
0.061733
0.0617175
0.0617021
0.0616866
0.0616711
0.0616556
0.06164
0.0616244
0.0616087
0.0615931
0.0615774
0.0615617
0.0615459
0.0615301
0.0615143
0.0614985
0.0614827
0.0614669
0.061451
0.0614351
0.0614191
0.061403
0.0613869
0.0613706
0.0613542
0.0613376
0.0613208
0.0613041
0.0612871
0.0612706
0.0612533
0.0633874
0.0633741
0.0633641
0.0633546
0.063344
0.063333
0.0633221
0.0633113
0.0633004
0.0632894
0.0632784
0.0632674
0.0632563
0.0632452
0.063234
0.0632228
0.0632115
0.0632002
0.0631889
0.0631775
0.063166
0.0631546
0.063143
0.0631315
0.0631199
0.0631082
0.0630966
0.0630848
0.0630731
0.0630612
0.0630494
0.0630375
0.0630256
0.0630136
0.0630016
0.0629895
0.0629774
0.0629653
0.0629531
0.0629409
0.0629286
0.0629163
0.062904
0.0628916
0.0628792
0.0628667
0.0628542
0.0628417
0.0628291
0.0628165
0.0628038
0.0627911
0.0627784
0.0627656
0.0627528
0.0627399
0.062727
0.0627141
0.0627011
0.0626881
0.0626751
0.062662
0.0626489
0.0626357
0.0626225
0.0626092
0.062596
0.0625826
0.0625693
0.0625559
0.0625424
0.062529
0.0625155
0.0625019
0.0624883
0.0624747
0.0624611
0.0624474
0.0624336
0.0624199
0.062406
0.0623922
0.0623783
0.0623644
0.0623505
0.0623365
0.0623224
0.0623084
0.0622943
0.0622802
0.062266
0.0622518
0.0622375
0.0622233
0.062209
0.0621946
0.0621802
0.0621658
0.0621514
0.0621369
0.0621223
0.0621078
0.0620932
0.0620786
0.0620639
0.0620492
0.0620345
0.0620197
0.0620049
0.0619901
0.0619753
0.0619604
0.0619454
0.0619305
0.0619155
0.0619004
0.0618854
0.0618703
0.0618552
0.06184
0.0618248
0.0618096
0.0617943
0.061779
0.0617637
0.0617483
0.061733
0.0617175
0.0617021
0.0616866
0.0616711
0.0616555
0.06164
0.0616244
0.0616087
0.061593
0.0615774
0.0615616
0.0615459
0.0615301
0.0615143
0.0614985
0.0614826
0.0614668
0.0614509
0.0614349
0.061419
0.0614029
0.0613867
0.0613704
0.061354
0.0613374
0.0613207
0.061304
0.0612871
0.0612701
0.0612535
0.0612341
0.0633869
0.063374
0.0633643
0.0633547
0.063344
0.063333
0.0633221
0.0633113
0.0633004
0.0632894
0.0632784
0.0632674
0.0632563
0.0632452
0.063234
0.0632228
0.0632115
0.0632002
0.0631888
0.0631775
0.063166
0.0631545
0.063143
0.0631315
0.0631199
0.0631082
0.0630965
0.0630848
0.0630731
0.0630612
0.0630494
0.0630375
0.0630256
0.0630136
0.0630016
0.0629895
0.0629774
0.0629653
0.0629531
0.0629409
0.0629286
0.0629163
0.062904
0.0628916
0.0628792
0.0628667
0.0628542
0.0628417
0.0628291
0.0628165
0.0628038
0.0627911
0.0627784
0.0627656
0.0627528
0.0627399
0.062727
0.0627141
0.0627011
0.0626881
0.0626751
0.062662
0.0626488
0.0626357
0.0626225
0.0626092
0.0625959
0.0625826
0.0625693
0.0625559
0.0625424
0.062529
0.0625155
0.0625019
0.0624883
0.0624747
0.062461
0.0624474
0.0624336
0.0624199
0.062406
0.0623922
0.0623783
0.0623644
0.0623505
0.0623365
0.0623224
0.0623084
0.0622943
0.0622801
0.062266
0.0622518
0.0622375
0.0622233
0.0622089
0.0621946
0.0621802
0.0621658
0.0621514
0.0621369
0.0621223
0.0621078
0.0620932
0.0620786
0.0620639
0.0620492
0.0620345
0.0620197
0.0620049
0.0619901
0.0619752
0.0619604
0.0619454
0.0619305
0.0619155
0.0619004
0.0618854
0.0618703
0.0618551
0.06184
0.0618248
0.0618096
0.0617943
0.061779
0.0617637
0.0617483
0.0617329
0.0617175
0.0617021
0.0616866
0.0616711
0.0616555
0.0616399
0.0616243
0.0616087
0.061593
0.0615773
0.0615616
0.0615458
0.0615301
0.0615143
0.0614984
0.0614826
0.0614667
0.0614508
0.0614348
0.0614188
0.0614027
0.0613866
0.0613703
0.0613538
0.0613373
0.0613205
0.0613039
0.061287
0.0612702
0.0612533
0.0612365
0.0633859
0.0633734
0.0633643
0.0633548
0.0633439
0.0633329
0.0633221
0.0633113
0.0633004
0.0632894
0.0632784
0.0632674
0.0632563
0.0632452
0.063234
0.0632228
0.0632115
0.0632002
0.0631888
0.0631774
0.063166
0.0631545
0.063143
0.0631315
0.0631199
0.0631082
0.0630965
0.0630848
0.063073
0.0630612
0.0630494
0.0630375
0.0630256
0.0630136
0.0630016
0.0629895
0.0629774
0.0629653
0.0629531
0.0629409
0.0629286
0.0629163
0.062904
0.0628916
0.0628792
0.0628667
0.0628542
0.0628417
0.0628291
0.0628165
0.0628038
0.0627911
0.0627784
0.0627656
0.0627528
0.0627399
0.062727
0.0627141
0.0627011
0.0626881
0.0626751
0.062662
0.0626488
0.0626357
0.0626225
0.0626092
0.0625959
0.0625826
0.0625693
0.0625559
0.0625424
0.062529
0.0625155
0.0625019
0.0624883
0.0624747
0.062461
0.0624473
0.0624336
0.0624198
0.062406
0.0623922
0.0623783
0.0623644
0.0623504
0.0623365
0.0623224
0.0623084
0.0622943
0.0622801
0.062266
0.0622518
0.0622375
0.0622233
0.0622089
0.0621946
0.0621802
0.0621658
0.0621513
0.0621369
0.0621223
0.0621078
0.0620932
0.0620786
0.0620639
0.0620492
0.0620345
0.0620197
0.0620049
0.0619901
0.0619752
0.0619603
0.0619454
0.0619305
0.0619155
0.0619004
0.0618854
0.0618703
0.0618551
0.06184
0.0618248
0.0618096
0.0617943
0.061779
0.0617637
0.0617483
0.0617329
0.0617175
0.0617021
0.0616866
0.0616711
0.0616555
0.0616399
0.0616243
0.0616087
0.061593
0.0615773
0.0615616
0.0615458
0.06153
0.0615142
0.0614984
0.0614825
0.0614666
0.0614507
0.0614347
0.0614187
0.0614026
0.0613864
0.0613701
0.0613536
0.0613371
0.0613204
0.0613038
0.0612869
0.0612701
0.0612532
0.0612368
0.0612192
0.0634002
0.063386
0.0633737
0.0633645
0.0633548
0.0633439
0.0633329
0.0633221
0.0633113
0.0633004
0.0632894
0.0632784
0.0632674
0.0632563
0.0632451
0.063234
0.0632227
0.0632115
0.0632002
0.0631888
0.0631774
0.063166
0.0631545
0.063143
0.0631315
0.0631199
0.0631082
0.0630965
0.0630848
0.063073
0.0630612
0.0630494
0.0630375
0.0630256
0.0630136
0.0630016
0.0629895
0.0629774
0.0629653
0.0629531
0.0629409
0.0629286
0.0629163
0.062904
0.0628916
0.0628792
0.0628667
0.0628542
0.0628417
0.0628291
0.0628165
0.0628038
0.0627911
0.0627784
0.0627656
0.0627528
0.0627399
0.062727
0.0627141
0.0627011
0.0626881
0.0626751
0.062662
0.0626488
0.0626357
0.0626225
0.0626092
0.0625959
0.0625826
0.0625693
0.0625559
0.0625424
0.062529
0.0625154
0.0625019
0.0624883
0.0624747
0.062461
0.0624473
0.0624336
0.0624198
0.062406
0.0623922
0.0623783
0.0623644
0.0623504
0.0623365
0.0623224
0.0623084
0.0622943
0.0622801
0.062266
0.0622518
0.0622375
0.0622232
0.0622089
0.0621946
0.0621802
0.0621658
0.0621513
0.0621369
0.0621223
0.0621078
0.0620932
0.0620786
0.0620639
0.0620492
0.0620345
0.0620197
0.0620049
0.0619901
0.0619752
0.0619603
0.0619454
0.0619304
0.0619155
0.0619004
0.0618854
0.0618703
0.0618551
0.06184
0.0618248
0.0618095
0.0617943
0.061779
0.0617637
0.0617483
0.0617329
0.0617175
0.061702
0.0616866
0.061671
0.0616555
0.0616399
0.0616243
0.0616087
0.061593
0.0615773
0.0615615
0.0615458
0.06153
0.0615142
0.0614983
0.0614825
0.0614666
0.0614506
0.0614346
0.0614186
0.0614024
0.0613862
0.0613699
0.0613535
0.061337
0.0613203
0.0613036
0.0612868
0.06127
0.0612532
0.0612364
0.0612196
0.0612013
0.0634
0.0633866
0.063374
0.0633644
0.0633547
0.0633439
0.0633329
0.0633221
0.0633113
0.0633004
0.0632894
0.0632784
0.0632674
0.0632563
0.0632451
0.063234
0.0632227
0.0632115
0.0632002
0.0631888
0.0631774
0.063166
0.0631545
0.063143
0.0631315
0.0631199
0.0631082
0.0630965
0.0630848
0.063073
0.0630612
0.0630494
0.0630375
0.0630255
0.0630136
0.0630016
0.0629895
0.0629774
0.0629653
0.0629531
0.0629409
0.0629286
0.0629163
0.062904
0.0628916
0.0628792
0.0628667
0.0628542
0.0628417
0.0628291
0.0628165
0.0628038
0.0627911
0.0627784
0.0627656
0.0627528
0.0627399
0.062727
0.0627141
0.0627011
0.0626881
0.0626751
0.062662
0.0626488
0.0626357
0.0626225
0.0626092
0.0625959
0.0625826
0.0625693
0.0625559
0.0625424
0.062529
0.0625154
0.0625019
0.0624883
0.0624747
0.062461
0.0624473
0.0624336
0.0624198
0.062406
0.0623922
0.0623783
0.0623644
0.0623504
0.0623364
0.0623224
0.0623084
0.0622943
0.0622801
0.062266
0.0622518
0.0622375
0.0622232
0.0622089
0.0621946
0.0621802
0.0621658
0.0621513
0.0621368
0.0621223
0.0621078
0.0620932
0.0620786
0.0620639
0.0620492
0.0620345
0.0620197
0.0620049
0.0619901
0.0619752
0.0619603
0.0619454
0.0619304
0.0619154
0.0619004
0.0618854
0.0618703
0.0618551
0.06184
0.0618248
0.0618095
0.0617943
0.061779
0.0617637
0.0617483
0.0617329
0.0617175
0.061702
0.0616865
0.061671
0.0616555
0.0616399
0.0616243
0.0616086
0.061593
0.0615773
0.0615615
0.0615458
0.06153
0.0615141
0.0614983
0.0614824
0.0614665
0.0614505
0.0614345
0.0614185
0.0614023
0.0613861
0.0613698
0.0613533
0.0613368
0.0613201
0.0613035
0.0612867
0.0612699
0.0612531
0.0612362
0.0612191
0.0612018
0.0611824
0.0633997
0.0633867
0.0633743
0.0633645
0.0633547
0.0633439
0.0633329
0.0633221
0.0633113
0.0633004
0.0632894
0.0632784
0.0632674
0.0632563
0.0632451
0.063234
0.0632227
0.0632115
0.0632002
0.0631888
0.0631774
0.063166
0.0631545
0.063143
0.0631314
0.0631198
0.0631082
0.0630965
0.0630848
0.063073
0.0630612
0.0630494
0.0630375
0.0630255
0.0630136
0.0630016
0.0629895
0.0629774
0.0629653
0.0629531
0.0629409
0.0629286
0.0629163
0.062904
0.0628916
0.0628792
0.0628667
0.0628542
0.0628417
0.0628291
0.0628165
0.0628038
0.0627911
0.0627784
0.0627656
0.0627528
0.0627399
0.062727
0.0627141
0.0627011
0.0626881
0.062675
0.062662
0.0626488
0.0626357
0.0626225
0.0626092
0.0625959
0.0625826
0.0625692
0.0625559
0.0625424
0.0625289
0.0625154
0.0625019
0.0624883
0.0624747
0.062461
0.0624473
0.0624336
0.0624198
0.062406
0.0623922
0.0623783
0.0623644
0.0623504
0.0623364
0.0623224
0.0623084
0.0622943
0.0622801
0.062266
0.0622518
0.0622375
0.0622232
0.0622089
0.0621946
0.0621802
0.0621658
0.0621513
0.0621368
0.0621223
0.0621078
0.0620932
0.0620786
0.0620639
0.0620492
0.0620345
0.0620197
0.0620049
0.0619901
0.0619752
0.0619603
0.0619454
0.0619304
0.0619154
0.0619004
0.0618853
0.0618702
0.0618551
0.06184
0.0618248
0.0618095
0.0617943
0.061779
0.0617637
0.0617483
0.0617329
0.0617175
0.061702
0.0616865
0.061671
0.0616555
0.0616399
0.0616243
0.0616086
0.0615929
0.0615772
0.0615615
0.0615457
0.0615299
0.0615141
0.0614982
0.0614823
0.0614664
0.0614504
0.0614344
0.0614183
0.0614022
0.0613859
0.0613696
0.0613532
0.0613367
0.06132
0.0613034
0.0612866
0.0612698
0.061253
0.0612361
0.0612192
0.0612018