/*--------------------------------*- C++ -*----------------------------------*\
| =========                 |                                                 |
| \\      /  F ield         | OpenFOAM: The Open Source CFD Toolbox           |
|  \\    /   O peration     | Version:  2512                                  |
|   \\  /    A nd           | Website:  www.openfoam.com                      |
|    \\/     M anipulation  |                                                 |
\*---------------------------------------------------------------------------*/
FoamFile
{
    version     2.0;
    format      ascii;
    arch        "LSB;label=32;scalar=64";
    class       volScalarField;
    location    "0.1";
    object      Uy;
}
// * * * * * * * * * * * * * * * * * * * * * * * * * * * * * * * * * * * * * //

dimensions      [0 1 -1 0 0 0 0];

internalField   nonuniform List<scalar> 
8333
(
-6.98919e-06
-6.94749e-06
-6.96077e-06
-7.03057e-06
-7.08472e-06
-7.12297e-06
-7.16134e-06
-7.1961e-06
-7.2251e-06
-7.25038e-06
-7.27313e-06
-7.29392e-06
-7.31324e-06
-7.33158e-06
-7.34921e-06
-7.36625e-06
-7.38268e-06
-7.39865e-06
-7.41447e-06
-7.4303e-06
-7.44595e-06
-7.46146e-06
-7.47676e-06
-7.49169e-06
-7.50638e-06
-7.52099e-06
-7.53567e-06
-7.55045e-06
-7.56519e-06
-7.57976e-06
-7.59443e-06
-7.60925e-06
-7.62419e-06
-7.63913e-06
-7.65404e-06
-7.66907e-06
-7.68411e-06
-7.69929e-06
-7.71451e-06
-7.72948e-06
-7.74431e-06
-7.75891e-06
-7.77319e-06
-7.78763e-06
-7.80231e-06
-7.81718e-06
-7.83211e-06
-7.84739e-06
-7.86252e-06
-7.87759e-06
-7.89245e-06
-7.90715e-06
-7.92191e-06
-7.93658e-06
-7.95121e-06
-7.96571e-06
-7.98014e-06
-7.99451e-06
-8.00918e-06
-8.02378e-06
-8.03824e-06
-8.05276e-06
-8.06728e-06
-8.08151e-06
-8.09568e-06
-8.11014e-06
-8.12457e-06
-8.13916e-06
-8.15387e-06
-8.16831e-06
-8.18261e-06
-8.19689e-06
-8.2111e-06
-8.22549e-06
-8.24002e-06
-8.25456e-06
-8.26903e-06
-8.28345e-06
-8.2978e-06
-8.31205e-06
-8.32624e-06
-8.3405e-06
-8.35499e-06
-8.3694e-06
-8.38393e-06
-8.39844e-06
-8.41291e-06
-8.4272e-06
-8.44142e-06
-8.45572e-06
-8.47034e-06
-8.48535e-06
-8.50026e-06
-8.51491e-06
-8.52969e-06
-8.54452e-06
-8.55954e-06
-8.57465e-06
-8.58977e-06
-8.60505e-06
-8.62087e-06
-8.63671e-06
-8.65253e-06
-8.66869e-06
-8.6851e-06
-8.70166e-06
-8.71858e-06
-8.73575e-06
-8.75334e-06
-8.7714e-06
-8.7903e-06
-8.80985e-06
-8.82961e-06
-8.84992e-06
-8.87082e-06
-8.89238e-06
-8.91443e-06
-8.93744e-06
-8.96165e-06
-8.98692e-06
-9.01352e-06
-9.0414e-06
-9.07043e-06
-9.10106e-06
-9.13331e-06
-9.16697e-06
-9.20209e-06
-9.23866e-06
-9.27749e-06
-9.31871e-06
-9.36206e-06
-9.40775e-06
-9.45556e-06
-9.506e-06
-9.55835e-06
-9.61252e-06
-9.66771e-06
-9.7228e-06
-9.77686e-06
-9.82891e-06
-9.87374e-06
-9.91463e-06
-9.9281e-06
-9.94679e-06
-9.85895e-06
-9.80489e-06
-9.37805e-06
-8.60825e-06
-6.46497e-06
-6.42212e-06
-6.4827e-06
-6.57513e-06
-6.62918e-06
-6.67188e-06
-6.7176e-06
-6.75926e-06
-6.79518e-06
-6.82742e-06
-6.85733e-06
-6.88553e-06
-6.91244e-06
-6.93813e-06
-6.96301e-06
-6.98726e-06
-7.01132e-06
-7.03511e-06
-7.05866e-06
-7.08188e-06
-7.10488e-06
-7.12762e-06
-7.15006e-06
-7.17245e-06
-7.19474e-06
-7.21674e-06
-7.23841e-06
-7.25967e-06
-7.28071e-06
-7.30181e-06
-7.32252e-06
-7.34308e-06
-7.36354e-06
-7.38401e-06
-7.40437e-06
-7.42454e-06
-7.44463e-06
-7.46447e-06
-7.48398e-06
-7.50343e-06
-7.52273e-06
-7.5421e-06
-7.56172e-06
-7.58102e-06
-7.59991e-06
-7.61859e-06
-7.63748e-06
-7.65633e-06
-7.67549e-06
-7.69445e-06
-7.71329e-06
-7.73197e-06
-7.75043e-06
-7.76894e-06
-7.78746e-06
-7.80627e-06
-7.82501e-06
-7.84352e-06
-7.86173e-06
-7.87993e-06
-7.89829e-06
-7.91657e-06
-7.93489e-06
-7.95358e-06
-7.97225e-06
-7.99038e-06
-8.0085e-06
-8.02643e-06
-8.04415e-06
-8.06208e-06
-8.08006e-06
-8.09808e-06
-8.11627e-06
-8.13419e-06
-8.15177e-06
-8.16932e-06
-8.18698e-06
-8.20469e-06
-8.22242e-06
-8.2402e-06
-8.25801e-06
-8.27587e-06
-8.29366e-06
-8.31166e-06
-8.32921e-06
-8.34677e-06
-8.36434e-06
-8.38198e-06
-8.3996e-06
-8.41725e-06
-8.43478e-06
-8.45209e-06
-8.46955e-06
-8.48752e-06
-8.50577e-06
-8.52386e-06
-8.54175e-06
-8.55977e-06
-8.57798e-06
-8.59629e-06
-8.61441e-06
-8.63278e-06
-8.65151e-06
-8.67045e-06
-8.68948e-06
-8.70897e-06
-8.72886e-06
-8.74917e-06
-8.76936e-06
-8.78981e-06
-8.8104e-06
-8.83137e-06
-8.85317e-06
-8.87571e-06
-8.89914e-06
-8.92323e-06
-8.94803e-06
-8.97364e-06
-9.00003e-06
-9.02755e-06
-9.05551e-06
-9.08432e-06
-9.11456e-06
-9.14629e-06
-9.17954e-06
-9.21452e-06
-9.25142e-06
-9.29021e-06
-9.33085e-06
-9.37358e-06
-9.41867e-06
-9.46556e-06
-9.51443e-06
-9.56524e-06
-9.61811e-06
-9.67264e-06
-9.72843e-06
-9.78473e-06
-9.84171e-06
-9.8963e-06
-9.95365e-06
-9.99303e-06
-1.00612e-05
-1.00233e-05
-1.02026e-05
-9.88978e-06
-1.06431e-05
-1.02686e-05
-1.33212e-05
-6.56516e-06
-6.58929e-06
-6.68148e-06
-6.75803e-06
-6.80238e-06
-6.84349e-06
-6.88643e-06
-6.92322e-06
-6.95339e-06
-6.98031e-06
-7.00516e-06
-7.02835e-06
-7.05028e-06
-7.07181e-06
-7.09296e-06
-7.11381e-06
-7.13394e-06
-7.15385e-06
-7.17385e-06
-7.19383e-06
-7.2136e-06
-7.2335e-06
-7.25344e-06
-7.27321e-06
-7.29257e-06
-7.31203e-06
-7.33148e-06
-7.35106e-06
-7.37055e-06
-7.38984e-06
-7.40945e-06
-7.42893e-06
-7.44813e-06
-7.4669e-06
-7.48549e-06
-7.50438e-06
-7.52332e-06
-7.54203e-06
-7.56077e-06
-7.57926e-06
-7.5973e-06
-7.61488e-06
-7.63229e-06
-7.65005e-06
-7.66826e-06
-7.68641e-06
-7.70412e-06
-7.72107e-06
-7.73737e-06
-7.75409e-06
-7.77109e-06
-7.78832e-06
-7.80538e-06
-7.82209e-06
-7.83847e-06
-7.85456e-06
-7.87058e-06
-7.88722e-06
-7.90393e-06
-7.92078e-06
-7.93742e-06
-7.9539e-06
-7.97022e-06
-7.98635e-06
-8.00268e-06
-8.01922e-06
-8.03546e-06
-8.0517e-06
-8.06799e-06
-8.08427e-06
-8.10053e-06
-8.11683e-06
-8.13306e-06
-8.14919e-06
-8.16537e-06
-8.18141e-06
-8.19736e-06
-8.21309e-06
-8.22929e-06
-8.24562e-06
-8.26185e-06
-8.27793e-06
-8.29377e-06
-8.30934e-06
-8.32561e-06
-8.3419e-06
-8.35819e-06
-8.37425e-06
-8.39009e-06
-8.40575e-06
-8.42139e-06
-8.43727e-06
-8.45357e-06
-8.46996e-06
-8.48574e-06
-8.50177e-06
-8.51825e-06
-8.53484e-06
-8.55144e-06
-8.56796e-06
-8.58433e-06
-8.60081e-06
-8.61756e-06
-8.63447e-06
-8.65269e-06
-8.67113e-06
-8.68927e-06
-8.70736e-06
-8.72638e-06
-8.74559e-06
-8.76492e-06
-8.78462e-06
-8.80499e-06
-8.82577e-06
-8.84714e-06
-8.8693e-06
-8.8928e-06
-8.91707e-06
-8.94207e-06
-8.96721e-06
-8.99394e-06
-9.0222e-06
-9.05193e-06
-9.08305e-06
-9.11547e-06
-9.14947e-06
-9.18521e-06
-9.22359e-06
-9.26327e-06
-9.30382e-06
-9.34647e-06
-9.39195e-06
-9.44071e-06
-9.49198e-06
-9.54542e-06
-9.60123e-06
-9.6599e-06
-9.72061e-06
-9.78338e-06
-9.84217e-06
-9.90959e-06
-9.9492e-06
-1.00559e-05
-9.99778e-06
-1.02963e-05
-9.9152e-06
-1.08826e-05
-1.05884e-05
-1.39264e-05
-1.4323e-05
-5.60405e-06
-5.6449e-06
-5.75213e-06
-5.83172e-06
-5.87171e-06
-5.91149e-06
-5.95367e-06
-5.98794e-06
-6.01577e-06
-6.04017e-06
-6.06222e-06
-6.08279e-06
-6.10243e-06
-6.12064e-06
-6.13821e-06
-6.15544e-06
-6.17275e-06
-6.18927e-06
-6.20545e-06
-6.22153e-06
-6.2378e-06
-6.25403e-06
-6.26975e-06
-6.28535e-06
-6.30125e-06
-6.31697e-06
-6.333e-06
-6.34906e-06
-6.36449e-06
-6.37958e-06
-6.39453e-06
-6.4098e-06
-6.42554e-06
-6.44184e-06
-6.45836e-06
-6.47425e-06
-6.48963e-06
-6.50505e-06
-6.52067e-06
-6.53657e-06
-6.55314e-06
-6.56994e-06
-6.58575e-06
-6.60135e-06
-6.61673e-06
-6.63234e-06
-6.64825e-06
-6.66527e-06
-6.68273e-06
-6.69967e-06
-6.71644e-06
-6.73256e-06
-6.74848e-06
-6.76451e-06
-6.78073e-06
-6.79684e-06
-6.81319e-06
-6.8293e-06
-6.84557e-06
-6.86167e-06
-6.87788e-06
-6.89404e-06
-6.9097e-06
-6.92505e-06
-6.94048e-06
-6.95658e-06
-6.97298e-06
-6.98915e-06
-7.0051e-06
-7.02057e-06
-7.03574e-06
-7.05068e-06
-7.06568e-06
-7.0807e-06
-7.0964e-06
-7.1124e-06
-7.12844e-06
-7.14456e-06
-7.15993e-06
-7.17489e-06
-7.18973e-06
-7.20471e-06
-7.22005e-06
-7.23553e-06
-7.25127e-06
-7.26719e-06
-7.28232e-06
-7.29747e-06
-7.31286e-06
-7.3285e-06
-7.34439e-06
-7.36027e-06
-7.37586e-06
-7.39103e-06
-7.40631e-06
-7.42217e-06
-7.43844e-06
-7.45483e-06
-7.47114e-06
-7.48802e-06
-7.50538e-06
-7.52254e-06
-7.53966e-06
-7.5573e-06
-7.57396e-06
-7.59049e-06
-7.60755e-06
-7.62492e-06
-7.64312e-06
-7.66205e-06
-7.6821e-06
-7.70309e-06
-7.72395e-06
-7.74546e-06
-7.7678e-06
-7.79066e-06
-7.81358e-06
-7.83696e-06
-7.86066e-06
-7.88532e-06
-7.9118e-06
-7.93987e-06
-7.96919e-06
-8.00005e-06
-8.03258e-06
-8.06652e-06
-8.10187e-06
-8.13898e-06
-8.17933e-06
-8.22196e-06
-8.26588e-06
-8.31203e-06
-8.36058e-06
-8.41197e-06
-8.46588e-06
-8.52207e-06
-8.58028e-06
-8.63993e-06
-8.70346e-06
-8.7665e-06
-8.84515e-06
-8.88876e-06
-9.02236e-06
-8.96952e-06
-9.3515e-06
-9.02621e-06
-1.01343e-05
-9.98786e-06
-1.23602e-05
-1.43853e-05
-1.36074e-05
-5.59456e-06
-5.67617e-06
-5.84139e-06
-5.91619e-06
-5.94678e-06
-5.99489e-06
-6.04452e-06
-6.08279e-06
-6.11398e-06
-6.14298e-06
-6.17004e-06
-6.19521e-06
-6.219e-06
-6.24222e-06
-6.26536e-06
-6.28772e-06
-6.30952e-06
-6.33153e-06
-6.35321e-06
-6.37454e-06
-6.39597e-06
-6.41704e-06
-6.4383e-06
-6.45955e-06
-6.48037e-06
-6.50047e-06
-6.51969e-06
-6.53918e-06
-6.55936e-06
-6.57978e-06
-6.5996e-06
-6.61895e-06
-6.63783e-06
-6.65621e-06
-6.67433e-06
-6.6933e-06
-6.71248e-06
-6.73137e-06
-6.74975e-06
-6.76776e-06
-6.78523e-06
-6.80215e-06
-6.81967e-06
-6.83733e-06
-6.855e-06
-6.87269e-06
-6.89033e-06
-6.90741e-06
-6.92448e-06
-6.9411e-06
-6.95735e-06
-6.97381e-06
-6.99046e-06
-7.0072e-06
-7.02351e-06
-7.04056e-06
-7.05776e-06
-7.07457e-06
-7.09074e-06
-7.10663e-06
-7.12237e-06
-7.13849e-06
-7.15535e-06
-7.17258e-06
-7.18979e-06
-7.20648e-06
-7.22276e-06
-7.2387e-06
-7.25444e-06
-7.27028e-06
-7.28633e-06
-7.30258e-06
-7.3188e-06
-7.33547e-06
-7.35172e-06
-7.36771e-06
-7.38374e-06
-7.40002e-06
-7.41612e-06
-7.4319e-06
-7.44763e-06
-7.46356e-06
-7.47947e-06
-7.49542e-06
-7.51082e-06
-7.52598e-06
-7.5422e-06
-7.55857e-06
-7.57477e-06
-7.59093e-06
-7.60661e-06
-7.6218e-06
-7.63729e-06
-7.65319e-06
-7.66927e-06
-7.68482e-06
-7.69988e-06
-7.71556e-06
-7.73183e-06
-7.74789e-06
-7.7641e-06
-7.78098e-06
-7.79812e-06
-7.81558e-06
-7.83278e-06
-7.85036e-06
-7.86831e-06
-7.88681e-06
-7.90526e-06
-7.9237e-06
-7.94202e-06
-7.96045e-06
-7.97958e-06
-7.99905e-06
-8.01975e-06
-8.04157e-06
-8.06473e-06
-8.08895e-06
-8.11379e-06
-8.13972e-06
-8.16615e-06
-8.19343e-06
-8.22178e-06
-8.25188e-06
-8.28316e-06
-8.3163e-06
-8.35169e-06
-8.38807e-06
-8.42527e-06
-8.4667e-06
-8.51029e-06
-8.55617e-06
-8.60457e-06
-8.6556e-06
-8.70929e-06
-8.76651e-06
-8.82786e-06
-8.89194e-06
-8.96011e-06
-9.02553e-06
-9.10906e-06
-9.16236e-06
-9.31399e-06
-9.28019e-06
-9.69241e-06
-9.43791e-06
-1.04821e-05
-1.05508e-05
-1.23382e-05
-1.31795e-05
-1.48224e-05
-4.98618e-06
-5.10919e-06
-5.31741e-06
-5.37849e-06
-5.39182e-06
-5.43592e-06
-5.48035e-06
-5.50991e-06
-5.53284e-06
-5.55306e-06
-5.57181e-06
-5.58997e-06
-5.60713e-06
-5.62429e-06
-5.64072e-06
-5.65702e-06
-5.67271e-06
-5.68864e-06
-5.70546e-06
-5.7218e-06
-5.7371e-06
-5.75276e-06
-5.76882e-06
-5.78487e-06
-5.80064e-06
-5.81663e-06
-5.83344e-06
-5.84979e-06
-5.86537e-06
-5.88072e-06
-5.89642e-06
-5.91246e-06
-5.9286e-06
-5.94473e-06
-5.96098e-06
-5.97701e-06
-5.99306e-06
-6.00912e-06
-6.02499e-06
-6.04058e-06
-6.05619e-06
-6.07174e-06
-6.08741e-06
-6.10364e-06
-6.11958e-06
-6.135e-06
-6.15043e-06
-6.16632e-06
-6.18215e-06
-6.19761e-06
-6.21289e-06
-6.22866e-06
-6.24457e-06
-6.26041e-06
-6.2767e-06
-6.29174e-06
-6.30563e-06
-6.3199e-06
-6.33487e-06
-6.35024e-06
-6.36579e-06
-6.38172e-06
-6.39702e-06
-6.41199e-06
-6.42674e-06
-6.44168e-06
-6.4568e-06
-6.47195e-06
-6.48721e-06
-6.50187e-06
-6.51606e-06
-6.53013e-06
-6.54432e-06
-6.55912e-06
-6.57413e-06
-6.58928e-06
-6.60459e-06
-6.61897e-06
-6.63376e-06
-6.64905e-06
-6.66454e-06
-6.67956e-06
-6.69421e-06
-6.70874e-06
-6.72358e-06
-6.73767e-06
-6.75213e-06
-6.76673e-06
-6.78134e-06
-6.79589e-06
-6.81112e-06
-6.82709e-06
-6.84284e-06
-6.85884e-06
-6.87428e-06
-6.8901e-06
-6.90663e-06
-6.92243e-06
-6.93763e-06
-6.95266e-06
-6.96806e-06
-6.98386e-06
-6.99953e-06
-7.01549e-06
-7.0327e-06
-7.0503e-06
-7.06811e-06
-7.08592e-06
-7.1039e-06
-7.12241e-06
-7.14185e-06
-7.16239e-06
-7.18342e-06
-7.20454e-06
-7.22461e-06
-7.24551e-06
-7.26776e-06
-7.29073e-06
-7.3151e-06
-7.33987e-06
-7.36584e-06
-7.39326e-06
-7.4223e-06
-7.45226e-06
-7.48381e-06
-7.51712e-06
-7.55262e-06
-7.59067e-06
-7.6313e-06
-7.67251e-06
-7.71675e-06
-7.7637e-06
-7.81335e-06
-7.86614e-06
-7.92102e-06
-7.97847e-06
-8.03926e-06
-8.10445e-06
-8.17665e-06
-8.2478e-06
-8.33897e-06
-8.40665e-06
-8.56804e-06
-8.57337e-06
-8.98099e-06
-8.87115e-06
-9.80032e-06
-1.01114e-05
-1.13715e-05
-1.2729e-05
-1.31875e-05
-1.37011e-05
-4.6759e-06
-4.8672e-06
-5.13614e-06
-5.18396e-06
-5.19017e-06
-5.24524e-06
-5.2972e-06
-5.33025e-06
-5.35737e-06
-5.38272e-06
-5.40587e-06
-5.42626e-06
-5.44793e-06
-5.46826e-06
-5.48826e-06
-5.5081e-06
-5.52834e-06
-5.54786e-06
-5.56621e-06
-5.585e-06
-5.60376e-06
-5.6228e-06
-5.64129e-06
-5.65977e-06
-5.67895e-06
-5.69819e-06
-5.71677e-06
-5.73413e-06
-5.75161e-06
-5.76904e-06
-5.78598e-06
-5.80354e-06
-5.82135e-06
-5.83957e-06
-5.85834e-06
-5.87603e-06
-5.89253e-06
-5.90856e-06
-5.92517e-06
-5.94226e-06
-5.95934e-06
-5.97655e-06
-5.99348e-06
-6.01055e-06
-6.02721e-06
-6.04364e-06
-6.05975e-06
-6.07598e-06
-6.092e-06
-6.10901e-06
-6.12611e-06
-6.14254e-06
-6.15855e-06
-6.17459e-06
-6.19044e-06
-6.20616e-06
-6.2228e-06
-6.23958e-06
-6.25577e-06
-6.27157e-06
-6.28722e-06
-6.3027e-06
-6.31866e-06
-6.33482e-06
-6.35082e-06
-6.36676e-06
-6.38336e-06
-6.39949e-06
-6.41495e-06
-6.4306e-06
-6.44661e-06
-6.46229e-06
-6.47804e-06
-6.49337e-06
-6.50862e-06
-6.52345e-06
-6.53767e-06
-6.55307e-06
-6.56863e-06
-6.58417e-06
-6.60017e-06
-6.61601e-06
-6.63146e-06
-6.64684e-06
-6.66206e-06
-6.67847e-06
-6.69384e-06
-6.70891e-06
-6.72368e-06
-6.7381e-06
-6.75251e-06
-6.76667e-06
-6.78046e-06
-6.79436e-06
-6.8097e-06
-6.82554e-06
-6.84202e-06
-6.85809e-06
-6.87389e-06
-6.89019e-06
-6.9063e-06
-6.92227e-06
-6.93918e-06
-6.95597e-06
-6.97224e-06
-6.9887e-06
-7.00538e-06
-7.02164e-06
-7.03794e-06
-7.05438e-06
-7.07156e-06
-7.08957e-06
-7.1087e-06
-7.12935e-06
-7.15081e-06
-7.1729e-06
-7.19503e-06
-7.21773e-06
-7.24117e-06
-7.2667e-06
-7.29281e-06
-7.31956e-06
-7.34693e-06
-7.375e-06
-7.40489e-06
-7.43663e-06
-7.47026e-06
-7.5064e-06
-7.54426e-06
-7.58496e-06
-7.62798e-06
-7.67321e-06
-7.72172e-06
-7.77405e-06
-7.83116e-06
-7.89136e-06
-7.95357e-06
-8.01854e-06
-8.09088e-06
-8.16667e-06
-8.26422e-06
-8.33998e-06
-8.50955e-06
-8.54853e-06
-8.93335e-06
-8.92577e-06
-9.71259e-06
-1.01359e-05
-1.10916e-05
-1.22858e-05
-1.32472e-05
-1.44981e-05
-1.35589e-05
-4.2019e-06
-4.49208e-06
-4.81459e-06
-4.82221e-06
-4.80913e-06
-4.86846e-06
-4.91807e-06
-4.9427e-06
-4.96264e-06
-4.98365e-06
-5.00347e-06
-5.02216e-06
-5.03989e-06
-5.05682e-06
-5.07354e-06
-5.09009e-06
-5.10645e-06
-5.12312e-06
-5.13928e-06
-5.15648e-06
-5.17444e-06
-5.19147e-06
-5.20869e-06
-5.22547e-06
-5.2405e-06
-5.25599e-06
-5.27075e-06
-5.28638e-06
-5.30354e-06
-5.32107e-06
-5.33884e-06
-5.35529e-06
-5.37115e-06
-5.3865e-06
-5.40131e-06
-5.41666e-06
-5.43182e-06
-5.44691e-06
-5.46284e-06
-5.47884e-06
-5.49452e-06
-5.50992e-06
-5.52596e-06
-5.54103e-06
-5.55638e-06
-5.57223e-06
-5.58761e-06
-5.60149e-06
-5.61524e-06
-5.62993e-06
-5.6444e-06
-5.6592e-06
-5.67379e-06
-5.68875e-06
-5.70359e-06
-5.71918e-06
-5.73494e-06
-5.75001e-06
-5.76455e-06
-5.77897e-06
-5.79259e-06
-5.80526e-06
-5.81885e-06
-5.83282e-06
-5.84753e-06
-5.86245e-06
-5.87641e-06
-5.89047e-06
-5.90511e-06
-5.9198e-06
-5.9352e-06
-5.95082e-06
-5.96548e-06
-5.97963e-06
-5.99329e-06
-6.00668e-06
-6.01999e-06
-6.03348e-06
-6.04684e-06
-6.06037e-06
-6.07405e-06
-6.08796e-06
-6.10234e-06
-6.11689e-06
-6.13207e-06
-6.14745e-06
-6.16277e-06
-6.17786e-06
-6.19257e-06
-6.20768e-06
-6.22219e-06
-6.23635e-06
-6.25081e-06
-6.26481e-06
-6.27918e-06
-6.29299e-06
-6.30598e-06
-6.31993e-06
-6.33486e-06
-6.34988e-06
-6.36514e-06
-6.38076e-06
-6.39741e-06
-6.41452e-06
-6.43185e-06
-6.44935e-06
-6.4672e-06
-6.48545e-06
-6.50409e-06
-6.52288e-06
-6.54042e-06
-6.55727e-06
-6.57499e-06
-6.5935e-06
-6.6133e-06
-6.63315e-06
-6.6539e-06
-6.67605e-06
-6.69955e-06
-6.72489e-06
-6.75154e-06
-6.77943e-06
-6.80858e-06
-6.83939e-06
-6.87121e-06
-6.90394e-06
-6.93846e-06
-6.97517e-06
-7.013e-06
-7.05372e-06
-7.09692e-06
-7.14302e-06
-7.19187e-06
-7.24289e-06
-7.29884e-06
-7.36003e-06
-7.42725e-06
-7.49942e-06
-7.57865e-06
-7.65989e-06
-7.76169e-06
-7.84697e-06
-8.01961e-06
-8.0997e-06
-8.46433e-06
-8.55699e-06
-9.24882e-06
-9.77336e-06
-1.0574e-05
-1.16675e-05
-1.26559e-05
-1.26632e-05
-1.40396e-05
-3.74249e-06
-4.14616e-06
-4.5343e-06
-4.51532e-06
-4.50061e-06
-4.57358e-06
-4.6249e-06
-4.64679e-06
-4.66656e-06
-4.68689e-06
-4.70638e-06
-4.72655e-06
-4.74391e-06
-4.76181e-06
-4.77853e-06
-4.79506e-06
-4.8119e-06
-4.82933e-06
-4.84775e-06
-4.86574e-06
-4.88342e-06
-4.90016e-06
-4.91655e-06
-4.93263e-06
-4.94904e-06
-4.96548e-06
-4.98301e-06
-5.00081e-06
-5.01776e-06
-5.0347e-06
-5.05191e-06
-5.0682e-06
-5.08443e-06
-5.10067e-06
-5.11633e-06
-5.13097e-06
-5.14674e-06
-5.16366e-06
-5.1799e-06
-5.19612e-06
-5.21282e-06
-5.22999e-06
-5.24762e-06
-5.26337e-06
-5.27849e-06
-5.29335e-06
-5.30847e-06
-5.32317e-06
-5.33876e-06
-5.35322e-06
-5.36855e-06
-5.38422e-06
-5.40063e-06
-5.41694e-06
-5.43375e-06
-5.45032e-06
-5.4658e-06
-5.48039e-06
-5.49511e-06
-5.51054e-06
-5.52649e-06
-5.54182e-06
-5.55606e-06
-5.5702e-06
-5.58405e-06
-5.59798e-06
-5.61244e-06
-5.62782e-06
-5.64368e-06
-5.6599e-06
-5.6756e-06
-5.69136e-06
-5.70664e-06
-5.72171e-06
-5.73663e-06
-5.75174e-06
-5.76704e-06
-5.78094e-06
-5.7939e-06
-5.80777e-06
-5.82237e-06
-5.83662e-06
-5.85079e-06
-5.86489e-06
-5.87864e-06
-5.89208e-06
-5.90596e-06
-5.92062e-06
-5.93676e-06
-5.95328e-06
-5.96896e-06
-5.98423e-06
-5.99936e-06
-6.01455e-06
-6.02921e-06
-6.04344e-06
-6.05741e-06
-6.07174e-06
-6.08595e-06
-6.1004e-06
-6.11499e-06
-6.12946e-06
-6.14378e-06
-6.15849e-06
-6.17359e-06
-6.189e-06
-6.2046e-06
-6.22176e-06
-6.23943e-06
-6.25842e-06
-6.27861e-06
-6.2987e-06
-6.31849e-06
-6.33813e-06
-6.35767e-06
-6.37712e-06
-6.39718e-06
-6.41819e-06
-6.44033e-06
-6.46297e-06
-6.4864e-06
-6.51133e-06
-6.53828e-06
-6.56675e-06
-6.59668e-06
-6.6282e-06
-6.66191e-06
-6.69737e-06
-6.73775e-06
-6.77863e-06
-6.82255e-06
-6.86983e-06
-6.91952e-06
-6.97135e-06
-7.02611e-06
-7.08548e-06
-7.15017e-06
-7.22026e-06
-7.29868e-06
-7.38263e-06
-7.48799e-06
-7.58996e-06
-7.76098e-06
-7.87298e-06
-8.20904e-06
-8.37829e-06
-8.97258e-06
-9.53539e-06
-1.01745e-05
-1.12291e-05
-1.1978e-05
-1.27168e-05
-1.29753e-05
-1.34558e-05
-3.31216e-06
-3.92152e-06
-4.3204e-06
-4.21657e-06
-4.18161e-06
-4.25902e-06
-4.30511e-06
-4.32316e-06
-4.34086e-06
-4.35982e-06
-4.37762e-06
-4.39363e-06
-4.40949e-06
-4.42665e-06
-4.44399e-06
-4.46102e-06
-4.47783e-06
-4.49448e-06
-4.51081e-06
-4.52687e-06
-4.54296e-06
-4.55924e-06
-4.57509e-06
-4.59098e-06
-4.60856e-06
-4.62553e-06
-4.64203e-06
-4.65809e-06
-4.67399e-06
-4.68973e-06
-4.70515e-06
-4.72097e-06
-4.73664e-06
-4.75176e-06
-4.76675e-06
-4.78195e-06
-4.79796e-06
-4.81459e-06
-4.83055e-06
-4.84624e-06
-4.86111e-06
-4.87574e-06
-4.88963e-06
-4.90408e-06
-4.91928e-06
-4.93458e-06
-4.94942e-06
-4.9642e-06
-4.97791e-06
-4.99178e-06
-5.00647e-06
-5.02118e-06
-5.03666e-06
-5.05131e-06
-5.06536e-06
-5.07945e-06
-5.09391e-06
-5.10892e-06
-5.12364e-06
-5.13737e-06
-5.15094e-06
-5.16493e-06
-5.17907e-06
-5.19291e-06
-5.20631e-06
-5.21952e-06
-5.2332e-06
-5.24724e-06
-5.26094e-06
-5.27555e-06
-5.28975e-06
-5.30368e-06
-5.31778e-06
-5.33174e-06
-5.34583e-06
-5.35971e-06
-5.37342e-06
-5.38774e-06
-5.40256e-06
-5.41649e-06
-5.42954e-06
-5.44276e-06
-5.45624e-06
-5.46891e-06
-5.48126e-06
-5.49422e-06
-5.50809e-06
-5.52225e-06
-5.5366e-06
-5.55042e-06
-5.56421e-06
-5.57846e-06
-5.59265e-06
-5.60695e-06
-5.6216e-06
-5.63607e-06
-5.65084e-06
-5.66572e-06
-5.68041e-06
-5.69556e-06
-5.71107e-06
-5.72689e-06
-5.74199e-06
-5.75639e-06
-5.77109e-06
-5.7857e-06
-5.80003e-06
-5.81519e-06
-5.83108e-06
-5.84753e-06
-5.86572e-06
-5.88432e-06
-5.90318e-06
-5.9227e-06
-5.94292e-06
-5.96403e-06
-5.98559e-06
-6.00782e-06
-6.03097e-06
-6.05495e-06
-6.07996e-06
-6.10585e-06
-6.13252e-06
-6.16045e-06
-6.19047e-06
-6.22307e-06
-6.25661e-06
-6.2907e-06
-6.32666e-06
-6.36653e-06
-6.4096e-06
-6.45612e-06
-6.50576e-06
-6.55994e-06
-6.61791e-06
-6.6802e-06
-6.74784e-06
-6.82133e-06
-6.90358e-06
-6.99345e-06
-7.10373e-06
-7.21476e-06
-7.38921e-06
-7.52359e-06
-7.84583e-06
-8.07062e-06
-8.59502e-06
-9.17895e-06
-9.75065e-06
-1.07272e-05
-1.14033e-05
-1.21357e-05
-1.24405e-05
-1.43162e-05
-1.29088e-05
-2.71147e-06
-3.54103e-06
-3.99585e-06
-3.85512e-06
-3.84436e-06
-3.94326e-06
-3.98839e-06
-4.00265e-06
-4.01884e-06
-4.03655e-06
-4.05291e-06
-4.0687e-06
-4.08502e-06
-4.10094e-06
-4.11689e-06
-4.133e-06
-4.14909e-06
-4.16507e-06
-4.18111e-06
-4.19713e-06
-4.21312e-06
-4.22923e-06
-4.2454e-06
-4.26172e-06
-4.27761e-06
-4.29351e-06
-4.30932e-06
-4.32508e-06
-4.34073e-06
-4.35632e-06
-4.37177e-06
-4.38731e-06
-4.40275e-06
-4.41809e-06
-4.43347e-06
-4.44927e-06
-4.46465e-06
-4.47955e-06
-4.49453e-06
-4.50941e-06
-4.52414e-06
-4.53921e-06
-4.55366e-06
-4.56859e-06
-4.58332e-06
-4.5979e-06
-4.61231e-06
-4.62736e-06
-4.642e-06
-4.6569e-06
-4.6713e-06
-4.68575e-06
-4.6998e-06
-4.71398e-06
-4.72839e-06
-4.74276e-06
-4.75699e-06
-4.77157e-06
-4.78627e-06
-4.80017e-06
-4.814e-06
-4.82803e-06
-4.84203e-06
-4.85622e-06
-4.87084e-06
-4.88516e-06
-4.89904e-06
-4.91279e-06
-4.92676e-06
-4.94053e-06
-4.95442e-06
-4.96829e-06
-4.98251e-06
-4.99615e-06
-5.00979e-06
-5.0238e-06
-5.03814e-06
-5.05262e-06
-5.06749e-06
-5.08142e-06
-5.09399e-06
-5.10703e-06
-5.12037e-06
-5.13435e-06
-5.14872e-06
-5.16263e-06
-5.17654e-06
-5.19026e-06
-5.20308e-06
-5.21611e-06
-5.22979e-06
-5.24349e-06
-5.25735e-06
-5.27126e-06
-5.28474e-06
-5.29941e-06
-5.31372e-06
-5.32753e-06
-5.34211e-06
-5.35663e-06
-5.37153e-06
-5.38705e-06
-5.40221e-06
-5.41711e-06
-5.43204e-06
-5.44721e-06
-5.46318e-06
-5.47926e-06
-5.49572e-06
-5.51247e-06
-5.52869e-06
-5.54549e-06
-5.5631e-06
-5.5814e-06
-5.60022e-06
-5.61994e-06
-5.64044e-06
-5.66162e-06
-5.68359e-06
-5.70645e-06
-5.73108e-06
-5.75675e-06
-5.78377e-06
-5.81214e-06
-5.84199e-06
-5.87375e-06
-5.90667e-06
-5.94172e-06
-5.97825e-06
-6.01785e-06
-6.06072e-06
-6.10625e-06
-6.15489e-06
-6.20775e-06
-6.26507e-06
-6.32703e-06
-6.39511e-06
-6.4703e-06
-6.55503e-06
-6.64862e-06
-6.76206e-06
-6.87943e-06
-7.05189e-06
-7.21157e-06
-7.51177e-06
-7.77411e-06
-8.24776e-06
-8.82521e-06
-9.34043e-06
-1.02477e-05
-1.08214e-05
-1.16598e-05
-1.18604e-05
-1.31612e-05
-1.34317e-05
-1.22145e-05
-2.38684e-06
-3.51289e-06
-3.84009e-06
-3.56855e-06
-3.54733e-06
-3.64359e-06
-3.67589e-06
-3.68337e-06
-3.69728e-06
-3.71338e-06
-3.72849e-06
-3.74344e-06
-3.75876e-06
-3.7739e-06
-3.78934e-06
-3.80489e-06
-3.82045e-06
-3.83603e-06
-3.85169e-06
-3.86732e-06
-3.88293e-06
-3.89868e-06
-3.91448e-06
-3.93028e-06
-3.94583e-06
-3.96136e-06
-3.97686e-06
-3.99232e-06
-4.0077e-06
-4.02296e-06
-4.03812e-06
-4.05331e-06
-4.06843e-06
-4.0836e-06
-4.09878e-06
-4.11396e-06
-4.12886e-06
-4.14355e-06
-4.15824e-06
-4.17285e-06
-4.18755e-06
-4.20202e-06
-4.21655e-06
-4.23108e-06
-4.24541e-06
-4.25969e-06
-4.2741e-06
-4.28855e-06
-4.30304e-06
-4.31741e-06
-4.33153e-06
-4.34562e-06
-4.35948e-06
-4.37351e-06
-4.38754e-06
-4.40142e-06
-4.41526e-06
-4.42904e-06
-4.44279e-06
-4.45675e-06
-4.47063e-06
-4.48452e-06
-4.49841e-06
-4.51235e-06
-4.52611e-06
-4.53973e-06
-4.5534e-06
-4.56707e-06
-4.58072e-06
-4.59398e-06
-4.60738e-06
-4.62079e-06
-4.63415e-06
-4.64772e-06
-4.66118e-06
-4.67477e-06
-4.68824e-06
-4.70165e-06
-4.7147e-06
-4.72795e-06
-4.7415e-06
-4.75498e-06
-4.76806e-06
-4.78173e-06
-4.79519e-06
-4.80873e-06
-4.82193e-06
-4.83499e-06
-4.84822e-06
-4.86152e-06
-4.87506e-06
-4.8883e-06
-4.90176e-06
-4.91516e-06
-4.92823e-06
-4.94196e-06
-4.95581e-06
-4.96956e-06
-4.98388e-06
-4.99792e-06
-5.01218e-06
-5.02641e-06
-5.0409e-06
-5.05562e-06
-5.07054e-06
-5.08583e-06
-5.10147e-06
-5.1169e-06
-5.13264e-06
-5.14889e-06
-5.16542e-06
-5.18274e-06
-5.20058e-06
-5.21875e-06
-5.23754e-06
-5.257e-06
-5.27716e-06
-5.29806e-06
-5.31974e-06
-5.34223e-06
-5.36581e-06
-5.39034e-06
-5.41597e-06
-5.44361e-06
-5.47308e-06
-5.50397e-06
-5.5368e-06
-5.57193e-06
-5.60929e-06
-5.64906e-06
-5.69138e-06
-5.73669e-06
-5.78588e-06
-5.83907e-06
-5.89663e-06
-5.9596e-06
-6.02895e-06
-6.10547e-06
-6.19195e-06
-6.28785e-06
-6.403e-06
-6.52897e-06
-6.70333e-06
-6.8788e-06
-7.1668e-06
-7.45191e-06
-7.88693e-06
-8.44487e-06
-8.92835e-06
-9.75802e-06
-1.02876e-05
-1.11158e-05
-1.13089e-05
-1.24077e-05
-1.17402e-05
-1.26498e-05
-1.67747e-06
-3.14438e-06
-3.48798e-06
-3.1923e-06
-3.21926e-06
-3.3297e-06
-3.35667e-06
-3.36191e-06
-3.37505e-06
-3.38992e-06
-3.40389e-06
-3.41792e-06
-3.43239e-06
-3.44694e-06
-3.46177e-06
-3.47677e-06
-3.49186e-06
-3.507e-06
-3.52222e-06
-3.53745e-06
-3.5527e-06
-3.56807e-06
-3.58346e-06
-3.59885e-06
-3.61409e-06
-3.62928e-06
-3.64445e-06
-3.65959e-06
-3.67463e-06
-3.68956e-06
-3.70442e-06
-3.71927e-06
-3.7341e-06
-3.74894e-06
-3.76372e-06
-3.77847e-06
-3.79309e-06
-3.80752e-06
-3.82192e-06
-3.83626e-06
-3.85061e-06
-3.86476e-06
-3.87892e-06
-3.89306e-06
-3.90713e-06
-3.92117e-06
-3.93524e-06
-3.94927e-06
-3.96336e-06
-3.97733e-06
-3.99118e-06
-4.00494e-06
-4.01859e-06
-4.03227e-06
-4.04586e-06
-4.05938e-06
-4.07291e-06
-4.08638e-06
-4.09982e-06
-4.1134e-06
-4.12698e-06
-4.14055e-06
-4.15408e-06
-4.16747e-06
-4.1808e-06
-4.19422e-06
-4.20763e-06
-4.22092e-06
-4.2341e-06
-4.24719e-06
-4.26026e-06
-4.27331e-06
-4.28642e-06
-4.29964e-06
-4.31282e-06
-4.32591e-06
-4.33897e-06
-4.35196e-06
-4.36483e-06
-4.37788e-06
-4.39111e-06
-4.40418e-06
-4.41731e-06
-4.43038e-06
-4.44335e-06
-4.45645e-06
-4.46937e-06
-4.48233e-06
-4.4954e-06
-4.50825e-06
-4.52127e-06
-4.53441e-06
-4.54753e-06
-4.56072e-06
-4.57409e-06
-4.58728e-06
-4.6008e-06
-4.61452e-06
-4.62809e-06
-4.64186e-06
-4.6557e-06
-4.66951e-06
-4.68356e-06
-4.69792e-06
-4.71254e-06
-4.72737e-06
-4.7424e-06
-4.75767e-06
-4.77332e-06
-4.7893e-06
-4.80567e-06
-4.82252e-06
-4.83977e-06
-4.8575e-06
-4.87585e-06
-4.89483e-06
-4.9146e-06
-4.93513e-06
-4.95647e-06
-4.97873e-06
-5.00184e-06
-5.02621e-06
-5.0519e-06
-5.07909e-06
-5.10788e-06
-5.13816e-06
-5.17043e-06
-5.20495e-06
-5.24176e-06
-5.28099e-06
-5.32294e-06
-5.36817e-06
-5.41721e-06
-5.47032e-06
-5.52816e-06
-5.59163e-06
-5.66172e-06
-5.73943e-06
-5.82746e-06
-5.92623e-06
-6.04422e-06
-6.17635e-06
-6.351e-06
-6.53749e-06
-6.81486e-06
-7.11197e-06
-7.51906e-06
-8.0501e-06
-8.51482e-06
-9.26547e-06
-9.78152e-06
-1.05182e-05
-1.08313e-05
-1.15663e-05
-1.18563e-05
-1.16042e-05
-1.20443e-05
-1.78332e-06
-3.24774e-06
-3.22833e-06
-2.88011e-06
-2.93667e-06
-3.03194e-06
-3.04201e-06
-3.04216e-06
-3.05331e-06
-3.06649e-06
-3.07923e-06
-3.09236e-06
-3.10604e-06
-3.11998e-06
-3.13421e-06
-3.14867e-06
-3.16328e-06
-3.17797e-06
-3.19276e-06
-3.20761e-06
-3.22249e-06
-3.23747e-06
-3.25248e-06
-3.26748e-06
-3.28238e-06
-3.29724e-06
-3.31207e-06
-3.32686e-06
-3.34155e-06
-3.35616e-06
-3.37071e-06
-3.38525e-06
-3.39974e-06
-3.41422e-06
-3.42865e-06
-3.44305e-06
-3.45733e-06
-3.47146e-06
-3.48554e-06
-3.49956e-06
-3.51353e-06
-3.52739e-06
-3.54121e-06
-3.55503e-06
-3.5688e-06
-3.58251e-06
-3.59622e-06
-3.6099e-06
-3.62362e-06
-3.63726e-06
-3.6508e-06
-3.66424e-06
-3.6776e-06
-3.69091e-06
-3.70416e-06
-3.71739e-06
-3.73062e-06
-3.74379e-06
-3.75694e-06
-3.77019e-06
-3.78342e-06
-3.79664e-06
-3.80979e-06
-3.82285e-06
-3.83593e-06
-3.84903e-06
-3.86206e-06
-3.875e-06
-3.8879e-06
-3.90073e-06
-3.91351e-06
-3.9263e-06
-3.93911e-06
-3.95195e-06
-3.96479e-06
-3.97755e-06
-3.9903e-06
-4.00298e-06
-4.01567e-06
-4.02844e-06
-4.04129e-06
-4.05408e-06
-4.06689e-06
-4.07959e-06
-4.09235e-06
-4.10502e-06
-4.1177e-06
-4.13039e-06
-4.14303e-06
-4.15568e-06
-4.16836e-06
-4.18119e-06
-4.19403e-06
-4.20699e-06
-4.22006e-06
-4.23303e-06
-4.24617e-06
-4.25943e-06
-4.27267e-06
-4.28611e-06
-4.29956e-06
-4.31308e-06
-4.32684e-06
-4.3409e-06
-4.35516e-06
-4.36964e-06
-4.38443e-06
-4.39952e-06
-4.41483e-06
-4.43038e-06
-4.44634e-06
-4.46269e-06
-4.47951e-06
-4.49686e-06
-4.51481e-06
-4.53346e-06
-4.55279e-06
-4.57288e-06
-4.59379e-06
-4.61562e-06
-4.63838e-06
-4.66243e-06
-4.68785e-06
-4.71454e-06
-4.7426e-06
-4.77237e-06
-4.80415e-06
-4.83811e-06
-4.87442e-06
-4.91326e-06
-4.95496e-06
-4.99994e-06
-5.04874e-06
-5.10182e-06
-5.15982e-06
-5.22361e-06
-5.29429e-06
-5.37303e-06
-5.46242e-06
-5.56357e-06
-5.6835e-06
-5.8198e-06
-5.99434e-06
-6.18831e-06
-6.45695e-06
-6.75912e-06
-7.1451e-06
-7.64673e-06
-8.0974e-06
-8.77588e-06
-9.277e-06
-9.94247e-06
-1.03088e-05
-1.09029e-05
-1.11424e-05
-1.14055e-05
-1.23729e-05
-1.16107e-05
-1.05886e-06
-3.08617e-06
-2.92073e-06
-2.55177e-06
-2.63434e-06
-2.71764e-06
-2.72067e-06
-2.7206e-06
-2.7309e-06
-2.74274e-06
-2.75444e-06
-2.76673e-06
-2.77967e-06
-2.79298e-06
-2.80664e-06
-2.82057e-06
-2.8347e-06
-2.84895e-06
-2.86333e-06
-2.87778e-06
-2.89229e-06
-2.90688e-06
-2.92151e-06
-2.93614e-06
-2.9507e-06
-2.96522e-06
-2.9797e-06
-2.99414e-06
-3.0085e-06
-3.02278e-06
-3.03702e-06
-3.05122e-06
-3.06538e-06
-3.07951e-06
-3.0936e-06
-3.10764e-06
-3.12158e-06
-3.1354e-06
-3.14915e-06
-3.16284e-06
-3.17648e-06
-3.19003e-06
-3.20353e-06
-3.21702e-06
-3.23046e-06
-3.24385e-06
-3.25723e-06
-3.27058e-06
-3.28396e-06
-3.29726e-06
-3.31047e-06
-3.32359e-06
-3.33662e-06
-3.34961e-06
-3.36256e-06
-3.37549e-06
-3.3884e-06
-3.40126e-06
-3.41412e-06
-3.42703e-06
-3.43993e-06
-3.4528e-06
-3.46562e-06
-3.4784e-06
-3.49116e-06
-3.50392e-06
-3.51662e-06
-3.52925e-06
-3.54185e-06
-3.55438e-06
-3.56687e-06
-3.57936e-06
-3.59184e-06
-3.60436e-06
-3.61687e-06
-3.62933e-06
-3.64177e-06
-3.65418e-06
-3.6666e-06
-3.67904e-06
-3.69154e-06
-3.70402e-06
-3.71648e-06
-3.72888e-06
-3.74132e-06
-3.75369e-06
-3.76608e-06
-3.77843e-06
-3.79076e-06
-3.80316e-06
-3.81555e-06
-3.82806e-06
-3.84062e-06
-3.85325e-06
-3.86597e-06
-3.87864e-06
-3.89142e-06
-3.90434e-06
-3.91729e-06
-3.93037e-06
-3.94351e-06
-3.95676e-06
-3.97022e-06
-3.98394e-06
-3.99787e-06
-4.01204e-06
-4.02649e-06
-4.04118e-06
-4.05609e-06
-4.07128e-06
-4.08686e-06
-4.10286e-06
-4.11931e-06
-4.13629e-06