/*--------------------------------*- C++ -*----------------------------------*\
| =========                 |                                                 |
| \\      /  F ield         | OpenFOAM: The Open Source CFD Toolbox           |
|  \\    /   O peration     | Version:  2512                                  |
|   \\  /    A nd           | Website:  www.openfoam.com                      |
|    \\/     M anipulation  |                                                 |
\*---------------------------------------------------------------------------*/
FoamFile
{
    version     2.0;
    format      ascii;
    arch        "LSB;label=32;scalar=64";
    class       volScalarField;
    location    "0.1";
    object      Uz;
}
// * * * * * * * * * * * * * * * * * * * * * * * * * * * * * * * * * * * * * //

dimensions      [0 1 -1 0 0 0 0];

internalField   nonuniform List<scalar> 
8333
(
1.22436e-17
5.03902e-18
3.00654e-18
-1.81576e-18
1.93636e-18
-5.99462e-18
4.66823e-18
-3.27807e-18
1.20884e-17
5.21491e-18
3.17663e-18
-1.56132e-18
2.09632e-18
-6.08698e-18
5.15551e-18
-4.28325e-18
1.29611e-17
7.12767e-18
-6.14313e-18
1.47183e-17
-1.3615e-17
4.54821e-18
-7.45301e-18
9.30818e-19
-7.97371e-18
1.04732e-17
-9.78757e-18
-3.53512e-18
-1.68287e-17
6.3235e-18
-3.84934e-18
4.25217e-18
-5.85313e-18
1.15218e-17
-9.42654e-18
-3.51679e-18
-1.66234e-17
6.06895e-18
-2.4602e-18
1.46907e-18
-2.11554e-18
7.83506e-18
-6.58064e-18
6.54433e-18
1.32412e-17
1.17672e-17
1.25743e-18
1.28167e-18
-1.03896e-18
1.01891e-17
-5.0374e-18
7.81144e-18
1.38673e-17
1.20423e-17
1.3879e-18
1.43912e-18
-8.65796e-19
1.02886e-17
-5.15871e-18
8.17541e-18
1.1946e-17
1.68737e-17
-8.01867e-18
1.50383e-17
-1.62685e-17
9.50238e-18
-2.35476e-17
-7.4326e-18
-4.18945e-19
7.20192e-18
-8.47259e-18
1.94079e-17
-1.11199e-17
1.27192e-17
-2.17638e-17
-6.56739e-18
1.26455e-19
7.25716e-18
-8.3536e-18
1.94457e-17
-1.11353e-17
1.27455e-17
-2.17211e-17
-7.24927e-18
1.28179e-18
3.51507e-18
-2.31098e-18
1.12606e-17
-2.34988e-18
1.90429e-17
7.58138e-18
-2.95125e-19
-1.96015e-18
-3.83028e-18
-8.26356e-18
8.10881e-18
-3.47003e-18
1.84348e-17
7.79478e-18
-3.22019e-19
-2.16151e-18
-2.41402e-18
-1.31763e-17
1.7734e-17
-1.47688e-17
4.88235e-18
-4.1621e-18
-8.64591e-18
-4.9127e-18
1.9299e-17
-1.3174e-17
8.53018e-18
-2.45093e-17
-3.19937e-18
-7.62981e-18
-1.1066e-17
-1.45362e-18
-1.41142e-17
4.90505e-18
8.93745e-18
-2.0943e-19
1.37746e-17
1.81373e-17
6.27833e-18
-2.81965e-18
2.16184e-17
-3.37199e-19
2.03717e-17
1.38815e-17
3.70696e-19
2.95309e-18
-4.03958e-18
-7.50631e-18
2.06006e-17
-2.99234e-19
2.06092e-17
1.43448e-17
6.13289e-19
2.98821e-18
-4.13718e-18
-7.69503e-18
1.98022e-17
1.57077e-18
1.62243e-17
2.35856e-17
-1.1023e-19
2.02148e-17
-5.43349e-18
2.33658e-18
5.91988e-18
3.14378e-18
4.33121e-18
5.07246e-18
1.2501e-18
4.25536e-18
2.3581e-18
2.36295e-18
5.92235e-18
3.13909e-18
4.45002e-18
5.24976e-18
1.30734e-18
4.43441e-18
2.1649e-18
2.25057e-18
8.03291e-18
-1.66467e-18
9.77182e-18
3.61686e-18
1.24543e-18
6.06269e-19
1.40949e-18
5.18445e-19
7.40816e-18
2.45697e-18
2.16211e-18
-3.10036e-18
-4.52046e-19
2.12474e-18
3.4044e-18
1.90248e-18
8.11701e-18
2.56858e-18
2.23936e-18
-2.96209e-18
-5.58723e-19
2.89085e-18
2.08459e-18
3.39435e-18
7.38083e-18
1.89166e-18
1.16227e-18
8.54791e-18
6.00905e-18
4.17508e-18
1.69761e-18
3.89818e-18
8.68827e-18
2.68076e-18
1.54031e-18
8.8313e-18
6.08158e-18
4.19018e-18
1.85411e-18
4.13084e-18
8.70849e-18
2.53922e-18
2.01648e-18
7.91805e-18
8.57686e-18
-3.5843e-20
7.06032e-18
8.68692e-19
8.44484e-18
-1.93184e-18
-4.17106e-18
2.20939e-18
3.84685e-18
-1.62409e-18
7.81683e-18
2.52555e-18
9.62416e-18
-1.34467e-18
-3.92254e-18
2.52129e-18
3.83915e-18
-1.64237e-18
7.93934e-18
2.76263e-18
9.59569e-18
-1.18502e-18
-4.14909e-18
3.06972e-18
2.14159e-18
6.90596e-19
5.58627e-18
3.20829e-18
8.58798e-18
9.11638e-18
3.25459e-18
3.96292e-18
-5.60868e-19
-2.02323e-18
4.12447e-18
2.75753e-18
8.27955e-18
9.04532e-18
3.33598e-18
3.68364e-18
5.03572e-19
-4.72596e-18
7.69413e-18
2.23005e-18
3.45011e-18
4.6737e-18
-3.93999e-19
-1.33827e-18
7.3292e-18
-3.70703e-19
5.97873e-18
-1.72706e-18
1.55943e-19
2.40928e-18
-2.21187e-18
4.49097e-18
-4.92888e-18
4.88541e-19
4.80008e-18
5.81555e-18
6.72797e-18
1.10497e-17
7.25084e-18
1.72074e-18
7.29261e-18
2.85327e-18
7.13444e-18
1.3783e-17
6.2219e-18
5.06195e-18
1.75224e-18
-1.39971e-18
6.34085e-18
2.59376e-18
7.07867e-18
1.39748e-17
6.27053e-18
5.21046e-18
1.62529e-18
-1.17877e-18
5.42447e-18
4.07152e-18
5.25243e-18
1.47376e-17
8.03675e-18
7.9434e-18
8.31958e-19
6.78236e-18
1.68229e-18
9.90543e-18
6.76004e-18
1.70697e-17
1.23762e-17
1.18044e-17
5.97162e-18
7.42374e-18
1.68502e-18
9.90383e-18
6.57098e-18
1.68933e-17
1.26002e-17
1.21255e-17
5.94369e-18
7.56961e-18
1.07422e-18
1.22706e-17
3.84322e-18
1.95137e-17
1.52464e-17
2.70756e-18
7.04268e-18
4.65181e-18
1.48553e-17
1.24529e-17
1.24831e-17
5.40653e-18
5.78355e-18
7.96944e-19
8.70042e-18
6.73238e-18
1.62063e-17
1.33196e-17
1.21676e-17
5.41592e-18
5.8725e-18
7.56834e-19
9.07258e-18
6.39897e-18
1.66599e-17
1.31042e-17
1.19776e-17
4.25355e-18
9.03453e-18
3.35967e-18
9.67206e-18
6.22022e-18
1.66502e-17
1.385e-17
1.22591e-17
4.08654e-18
9.09596e-18
3.3094e-18
9.55292e-18
6.41518e-18
1.72503e-17
1.3754e-17
1.21457e-17
4.54196e-18
9.09412e-18
4.21041e-18
8.57662e-18
8.05924e-18
1.64486e-17
1.36585e-17
1.08307e-17
2.63206e-18
6.97088e-18
2.77379e-18
7.41649e-18
7.90864e-18
1.66683e-17
1.39756e-17
1.07198e-17
2.60105e-18
7.21108e-18
2.55629e-18
7.51009e-18
8.2369e-18
1.70318e-17
1.38739e-17
1.10791e-17
2.59959e-18
7.31896e-18
2.24998e-18
7.78705e-18
7.26328e-18
1.64897e-17
1.31257e-17
1.36083e-17
5.44344e-18
8.24477e-18
1.56647e-18
7.03647e-18
7.01929e-18
1.67022e-17
1.27727e-17
1.39689e-17
5.54395e-18
8.19257e-18
1.74005e-18
6.34749e-18
7.98976e-18
1.72332e-17
1.16541e-17
1.25042e-17
4.528e-18
6.08843e-18
3.10241e-18
8.21965e-18
7.95858e-18
1.57329e-17
1.02685e-17
1.15505e-17
3.87675e-18
8.66988e-18
1.04372e-19
7.6174e-18
7.09264e-18
1.7961e-17
1.24849e-17
1.40574e-17
7.14357e-18
7.87599e-18
3.26581e-18
8.8337e-18
8.10248e-18
2.09121e-17
1.32016e-17
1.18185e-17
4.9596e-18
6.34575e-18
2.92518e-18
8.66659e-18
7.80399e-18
2.08216e-17
1.3137e-17
1.23851e-17
5.00772e-18
6.46598e-18
2.2051e-18
9.71564e-18
6.18053e-18
2.12953e-17
1.60024e-17
3.54842e-18
6.23969e-18
6.2593e-18
1.78408e-17
1.51182e-17
-1.32927e-17
2.54468e-17
-2.9149e-18
2.10497e-17
-1.60583e-17
-5.63231e-19
-2.53185e-18
1.51486e-17
-1.32761e-17
2.53118e-17
-3.20014e-18
2.11608e-17
-1.59205e-17
-1.1657e-18
-2.28041e-18
1.37243e-17
-8.91956e-18
1.66455e-17
1.20547e-17
7.29622e-19
8.78494e-18
-2.22516e-17
1.98924e-17
-6.051e-18
1.98397e-17
-1.68647e-17
-1.23923e-18
-2.86047e-18
1.49412e-17
-1.3839e-17
2.55987e-17
-3.23202e-18
2.13132e-17
-1.6896e-17
-9.32009e-19
-2.669e-18
1.51331e-17
-1.35019e-17
2.52621e-17
-3.13917e-18
2.09703e-17
-1.62953e-17
-1.28153e-18
-1.90385e-18
1.57925e-17
-1.37038e-17
2.61157e-17
-3.15556e-18
2.12493e-17
-1.62444e-17
-1.61332e-18
-1.83808e-18
1.58378e-17
-1.35198e-17
2.57058e-17
-3.06029e-18
2.1328e-17
-1.66625e-17
-1.42145e-18
-1.40551e-18
1.62554e-17
-1.35463e-17
2.59222e-17
-2.8534e-18
2.14485e-17
-1.70564e-17
-2.01164e-18
-2.21366e-18
1.57949e-17
-1.40633e-17
2.62014e-17
-2.44906e-18
2.14807e-17
-1.71288e-17
-2.19384e-18
-1.97612e-18
1.56325e-17
-1.42364e-17
2.63311e-17
-2.67772e-18
2.15147e-17
-1.73632e-17
-2.33952e-18
-1.91624e-18
1.54816e-17
-1.40641e-17
2.61468e-17
-3.20364e-18
2.1207e-17
-1.70619e-17
-1.65706e-18
-1.37404e-18
1.55793e-17
-1.41881e-17
2.58742e-17
-2.40093e-18
2.0966e-17
-1.68028e-17
-1.34747e-18
-1.35896e-18
1.54646e-17
-1.46413e-17
2.61525e-17
-2.197e-18
2.06652e-17
-1.70292e-17
-1.34971e-18
-1.70874e-18
1.54541e-17
-1.38721e-17
2.626e-17
-3.21675e-18
2.01852e-17
-1.75294e-17
-1.99336e-18
-9.43858e-19
1.51205e-17
-1.41365e-17
2.58302e-17
-2.19544e-18
2.11058e-17
-1.75736e-17
-7.93962e-19
-7.43692e-19
1.59826e-17
-1.38389e-17
2.68451e-17
-1.21694e-18
2.10555e-17
-1.81857e-17
-1.74958e-18
-1.42433e-18
1.57771e-17
-1.38983e-17
2.66298e-17
-1.56254e-18
2.10109e-17
-1.76329e-17
-1.47178e-18
-1.16796e-18
1.42265e-17
-1.06109e-17
1.83485e-17
1.32718e-17
6.16069e-19
7.01486e-18
-2.32177e-17
2.08026e-17
-4.6265e-18
2.0809e-17
2.10537e-17
-2.16248e-17
3.08079e-17
-8.78808e-18
2.46533e-17
-2.32748e-17
-6.15267e-18
-1.1467e-17
2.10745e-17
-2.1773e-17
3.10006e-17
-9.20037e-18
2.50026e-17
-2.32424e-17
-6.71549e-18
-1.08174e-17
1.8842e-17
-1.49668e-17
1.59579e-17
1.89303e-17
-1.37535e-17
7.4819e-18
-3.63407e-17
2.22897e-17
-1.26671e-17
2.31681e-17
-2.41395e-17
-6.19197e-18
-1.10758e-17
2.10927e-17
-2.19121e-17
3.10583e-17
-9.26142e-18
2.47802e-17
-2.40231e-17
-6.2493e-18
-1.0982e-17
2.1399e-17
-2.16798e-17
3.09247e-17
-8.93317e-18
2.49455e-17
-2.39468e-17
-6.15565e-18
-1.0682e-17
2.16765e-17
-2.2111e-17
3.13072e-17
-8.72959e-18
2.52162e-17
-2.41515e-17
-6.28574e-18
-1.03885e-17
2.17092e-17
-2.18598e-17
3.13711e-17
-8.51637e-18
2.52513e-17
-2.44069e-17
-6.50444e-18
-1.00184e-17
2.19761e-17
-2.16814e-17
3.11458e-17
-8.68436e-18
2.52249e-17
-2.45028e-17
-6.86998e-18
-1.03054e-17
2.16631e-17
-2.18828e-17
3.15435e-17
-8.80595e-18
2.49282e-17
-2.47113e-17
-7.10754e-18
-1.01103e-17
2.16128e-17
-2.21344e-17
3.16729e-17
-8.39499e-18
2.53559e-17
-2.5286e-17
-6.97409e-18
-9.94554e-18
2.15465e-17
-2.21863e-17
3.16965e-17
-8.25916e-18
2.5108e-17
-2.50249e-17
-7.04393e-18
-9.6987e-18
2.17792e-17
-2.21567e-17
3.152e-17
-8.30269e-18
2.50499e-17
-2.49118e-17
-7.03533e-18
-9.76046e-18
2.16143e-17
-2.24886e-17
3.17006e-17
-8.37363e-18
2.48477e-17
-2.48383e-17
-6.61475e-18
-9.3117e-18
2.16313e-17
-2.20586e-17
3.18068e-17
-8.25761e-18
2.46611e-17
-2.56195e-17
-6.85537e-18
-9.01812e-18
2.16698e-17
-2.21769e-17
3.16684e-17
-7.72082e-18
2.51369e-17
-2.55564e-17
-7.33983e-18
-8.99963e-18
2.20198e-17
-2.22445e-17
3.2459e-17
-7.61575e-18
2.45431e-17
-2.59139e-17
-7.47483e-18
-9.1028e-18
2.20306e-17
-2.22535e-17
3.22462e-17
-7.83564e-18
2.49812e-17
-2.57478e-17
-7.81347e-18
-8.59016e-18
1.96079e-17
-1.64793e-17
1.7829e-17
1.93002e-17
-1.49509e-17
4.71675e-18
-3.76633e-17
2.33737e-17
-1.16237e-17
2.37289e-17
2.25314e-17
-2.41142e-17
3.26152e-17
-1.04527e-17
2.52948e-17
-2.48714e-17
-7.60262e-18
-1.52629e-17
2.24944e-17
-2.41012e-17
3.23861e-17
-1.10938e-17
2.57758e-17
-2.52059e-17
-7.99433e-18
-1.43916e-17
2.05542e-17
-1.77605e-17
1.79873e-17
1.50615e-17
-9.36004e-18
1.33706e-17
-3.63847e-17
2.4222e-17
-1.41968e-17
2.41334e-17
-2.57236e-17
-8.28855e-18
-1.50847e-17
2.25438e-17
-2.43088e-17
3.22828e-17
-1.02779e-17
2.58195e-17
-2.54948e-17
-7.79284e-18
-1.46652e-17
2.29285e-17
-2.41473e-17
3.2357e-17
-1.04681e-17
2.6006e-17
-2.61526e-17
-8.27932e-18
-1.45644e-17
2.31221e-17
-2.44581e-17
3.26664e-17
-1.01245e-17
2.60131e-17
-2.61715e-17
-7.98172e-18
-1.41307e-17
2.32538e-17
-2.42691e-17
3.28735e-17
-1.0333e-17
2.60537e-17
-2.63229e-17
-8.2483e-18
-1.37212e-17
2.34595e-17
-2.4053e-17
3.28325e-17
-1.00524e-17
2.56416e-17
-2.63626e-17
-8.60786e-18
-1.40599e-17
2.30743e-17
-2.4381e-17
3.30005e-17
-1.03009e-17
2.55955e-17
-2.60822e-17
-8.68696e-18
-1.38228e-17
2.30645e-17
-2.4473e-17
3.26664e-17
-9.39048e-18
2.60544e-17
-2.65873e-17
-8.67455e-18
-1.3511e-17
2.31133e-17
-2.44758e-17
3.30446e-17
-9.95551e-18
2.57322e-17
-2.70296e-17
-8.71636e-18
-1.32643e-17
2.33873e-17
-2.45086e-17
3.29146e-17
-9.60552e-18
2.59354e-17
-2.722e-17
-9.25658e-18
-1.33872e-17
2.31366e-17
-2.46802e-17
3.27993e-17
-9.40902e-18
2.59418e-17
-2.6855e-17
-8.51989e-18
-1.28289e-17
2.3245e-17
-2.4484e-17
3.38047e-17
-9.68092e-18
2.57086e-17
-2.76864e-17
-9.07863e-18
-1.27727e-17
2.3304e-17
-2.46406e-17
3.33063e-17
-9.57584e-18
2.59183e-17
-2.80698e-17
-8.99375e-18
-1.26185e-17
2.36619e-17
-2.4624e-17
3.35416e-17
-9.51194e-18
2.5749e-17
-2.77356e-17
-9.24752e-18
-1.24991e-17
2.37831e-17
-2.45338e-17
3.30817e-17
-9.26052e-18
2.61669e-17
-2.81075e-17
-9.19921e-18
-1.18439e-17
2.15048e-17
-1.94746e-17
2.06016e-17
1.53277e-17
-9.87847e-18
1.08595e-17
-3.76789e-17
2.55757e-17
-1.27658e-17
2.47883e-17
-2.9004e-17
2.17963e-17
-2.4575e-17
3.19813e-17
-1.18134e-17
2.36596e-17
-2.64869e-17
-8.10187e-18
-1.70726e-17
2.19765e-17
-2.44846e-17
3.15684e-17
-1.20353e-17
2.42492e-17
-2.61839e-17
-8.30681e-18
-1.64134e-17
2.05207e-17
-1.94933e-17
1.94087e-17
1.23402e-17
-1.14582e-17
1.48016e-17
-3.4199e-17
2.54922e-17
-1.44706e-17
2.30365e-17
-2.66201e-17
-8.54454e-18
-1.68954e-17
2.21788e-17
-2.47991e-17
3.17342e-17
-1.1815e-17
2.40566e-17
-2.62151e-17
-8.20749e-18
-1.64385e-17
2.24069e-17
-2.47438e-17
3.21583e-17
-1.1448e-17
2.42401e-17
-2.68578e-17
-8.59242e-18
-1.63175e-17
2.24893e-17
-2.47055e-17
3.19481e-17
-1.15151e-17
2.40249e-17
-2.70486e-17
-8.77352e-18
-1.62015e-17
2.27216e-17
-2.47971e-17
3.25798e-17
-1.13664e-17
2.41227e-17
-2.70564e-17
-8.59744e-18
-1.56621e-17
2.28189e-17
-2.45492e-17
3.22762e-17
-1.12379e-17
2.40963e-17
-2.71836e-17
-9.19425e-18
-1.61564e-17
2.2463e-17
-2.50268e-17
3.24188e-17
-1.13707e-17
2.42486e-17
-2.69737e-17
-9.09699e-18
-1.57994e-17
2.24424e-17
-2.49094e-17
3.21747e-17
-1.10505e-17
2.4198e-17
-2.7577e-17
-9.12604e-18
-1.54813e-17
2.2517e-17
-2.49537e-17
3.2905e-17
-1.17015e-17
2.37316e-17
-2.78088e-17
-8.89977e-18
-1.50875e-17
2.28479e-17
-2.4836e-17
3.24471e-17
-1.11124e-17
2.43738e-17
-2.80538e-17
-8.94206e-18
-1.5003e-17
2.26354e-17
-2.4955e-17
3.27297e-17
-1.13676e-17
2.39997e-17
-2.78364e-17
-9.26955e-18
-1.49738e-17
2.26306e-17
-2.48892e-17
3.28645e-17
-1.12397e-17
2.40511e-17
-2.82987e-17
-9.36612e-18
-1.46529e-17
2.27623e-17
-2.49927e-17
3.28959e-17
-1.12065e-17
2.42085e-17
-2.88778e-17
-9.67819e-18
-1.48206e-17
2.30241e-17
-2.51363e-17
3.30357e-17
-1.10994e-17
2.42152e-17
-2.89845e-17
-9.39079e-18
-1.43272e-17
2.32487e-17
-2.48311e-17
3.26011e-17
-1.08603e-17
2.4492e-17
-2.88798e-17
-9.96291e-18
-1.4088e-17
2.14071e-17
-2.09567e-17
2.19943e-17
1.117e-17
-1.19659e-17
1.28373e-17
-3.53263e-17
2.72649e-17
-1.37628e-17
2.31534e-17
-2.94727e-17
-1.00685e-17
1.97332e-17
-2.46161e-17
2.81528e-17
-1.54513e-17
1.84381e-17
-2.68934e-17
-8.89219e-18
-2.0248e-17
2.00993e-17
-2.47477e-17
2.83163e-17
-1.56094e-17
1.88837e-17
-2.67502e-17
-8.916e-18
-1.99005e-17
1.88366e-17
-2.08921e-17
1.84286e-17
6.14752e-18
-1.58757e-17
1.48878e-17
-3.14994e-17
2.41914e-17
-1.7263e-17
1.82523e-17
-2.74868e-17
-9.52868e-18
-2.00836e-17
2.03537e-17
-2.49104e-17
2.81059e-17
-1.51023e-17
1.90609e-17
-2.72403e-17
-9.46449e-18
-1.96607e-17
2.02472e-17
-2.4621e-17
2.82942e-17
-1.56617e-17
1.87657e-17
-2.75407e-17
-9.60759e-18
-1.96773e-17
2.04392e-17
-2.50261e-17
2.84425e-17
-1.50377e-17
1.88458e-17
-2.74994e-17
-9.65878e-18
-1.952e-17
2.06545e-17
-2.48582e-17
2.87899e-17
-1.50177e-17
1.87356e-17
-2.75099e-17
-9.58332e-18
-1.92546e-17
2.06724e-17
-2.50573e-17
2.86321e-17
-1.4759e-17
1.87758e-17
-2.82118e-17
-1.05006e-17
-1.95726e-17
2.04417e-17
-2.51013e-17
2.86992e-17
-1.52337e-17
1.91213e-17
-2.78988e-17
-1.01094e-17
-1.9251e-17
2.03098e-17
-2.49542e-17
2.87049e-17
-1.49612e-17
1.89179e-17
-2.81347e-17
-1.00852e-17
-1.89551e-17
2.04886e-17
-2.50604e-17
2.92643e-17
-1.53537e-17
1.85571e-17
-2.85695e-17
-9.95373e-18
-1.86449e-17
2.07656e-17
-2.49124e-17
2.88524e-17
-1.52281e-17
1.888e-17
-2.85583e-17
-1.03909e-17
-1.85499e-17
2.06281e-17
-2.48992e-17
2.8977e-17
-1.49349e-17
1.90931e-17
-2.87197e-17
-1.05679e-17
-1.86064e-17
2.06211e-17
-2.50893e-17
2.91561e-17
-1.49941e-17
1.90048e-17
-2.87819e-17
-1.08073e-17
-1.82623e-17
2.07209e-17
-2.50941e-17
2.94396e-17
-1.48361e-17
1.90227e-17
-2.93012e-17
-1.09471e-17
-1.83196e-17
2.10207e-17
-2.52309e-17
2.88658e-17
-1.42972e-17
1.92493e-17
-2.92196e-17
-1.09401e-17
-1.80479e-17
2.11296e-17
-2.48557e-17
2.89069e-17
-1.49515e-17
1.92357e-17
-2.91872e-17
-1.0857e-17
-1.78648e-17
1.99639e-17
-2.21563e-17
2.02922e-17
5.13845e-18
-1.57399e-17
1.37817e-17
-3.21111e-17
2.59673e-17
-1.65545e-17
1.82569e-17
-2.95951e-17
-1.15313e-17
1.87489e-17
-2.92812e-17
1.47346e-17
-2.25861e-17
1.12752e-17
-2.50027e-17
-1.65695e-17
-2.70337e-17
1.88608e-17
-2.92614e-17
1.45611e-17
-2.28351e-17
1.19089e-17
-2.54854e-17
-1.72625e-17
-2.6836e-17
1.76886e-17
-2.6066e-17
6.82936e-18
-5.69572e-18
-1.45406e-17
1.86998e-17
-3.30489e-17
1.1843e-17
-2.39357e-17
1.11266e-17
-2.52669e-17
-1.70163e-17
-2.67403e-17
1.90727e-17
-2.92744e-17
1.46397e-17
-2.22855e-17
1.16591e-17
-2.52337e-17
-1.71412e-17
-2.63573e-17
1.91104e-17
-2.93586e-17
1.48115e-17
-2.29201e-17
1.17394e-17
-2.59457e-17
-1.75556e-17
-2.65653e-17
1.92167e-17
-2.96965e-17
1.50784e-17
-2.27539e-17
1.15465e-17
-2.60129e-17
-1.77158e-17
-2.64175e-17
1.94357e-17
-2.97136e-17
1.49921e-17
-2.22412e-17
1.14425e-17
-2.56456e-17
-1.74242e-17
-2.61024e-17
1.94986e-17
-2.9776e-17
1.50972e-17
-2.24538e-17
1.15741e-17
-2.63687e-17
-1.81294e-17
-2.62314e-17
1.93568e-17
-2.96218e-17
1.51276e-17
-2.29294e-17
1.15741e-17
-2.60937e-17
-1.79858e-17
-2.58856e-17
1.90709e-17
-2.96643e-17
1.52345e-17
-2.24929e-17
1.17355e-17
-2.63138e-17
-1.78702e-17
-2.57126e-17
1.93272e-17
-2.92991e-17
1.51665e-17
-2.26567e-17
1.17728e-17
-2.67589e-17
-1.81353e-17
-2.5601e-17
1.95064e-17
-2.95272e-17
1.53345e-17
-2.23443e-17
1.17388e-17
-2.68117e-17
-1.83128e-17
-2.54949e-17
1.96149e-17
-2.93983e-17
1.50506e-17
-2.26604e-17
1.20618e-17
-2.69737e-17
-1.86024e-17
-2.53887e-17
1.9464e-17
-2.96652e-17
1.54667e-17
-2.2477e-17
1.16553e-17
-2.6878e-17
-1.8511e-17
-2.49349e-17
1.9478e-17
-2.90901e-17
1.54475e-17
-2.20866e-17
1.20962e-17
-2.70293e-17
-1.85623e-17
-2.5036e-17
1.99456e-17
-2.99095e-17
1.52588e-17
-2.20996e-17
1.20634e-17
-2.73301e-17
-1.89555e-17
-2.4962e-17
1.98514e-17
-2.96422e-17
1.53981e-17
-2.25134e-17
1.19133e-17
-2.71147e-17
-1.87405e-17
-2.47536e-17
1.91615e-17
-2.73464e-17
8.50415e-18
-6.53745e-18
-1.38594e-17
1.83593e-17
-3.34296e-17
1.31981e-17
-2.40499e-17
1.14746e-17
-2.7657e-17
-1.92337e-17
-2.47559e-17
1.97561e-17
-2.46567e-17
2.83666e-17
-1.56656e-17
1.80834e-17
-2.68802e-17
-8.84791e-18
-2.06287e-17
1.97062e-17
-2.46821e-17
2.80115e-17
-1.57465e-17
1.8363e-17
-2.75335e-17
-9.36682e-18
-2.00157e-17
1.7642e-17
-1.91538e-17
1.54535e-17
8.811e-18
-1.63938e-17
1.11844e-17
-3.53962e-17
2.15738e-17
-1.88549e-17
1.67497e-17
-2.71368e-17
-9.13169e-18
-2.02744e-17
1.97643e-17
-2.48198e-17
2.84754e-17
-1.57594e-17
1.79596e-17
-2.80099e-17
-9.59157e-18
-1.99251e-17
1.99699e-17
-2.47271e-17
2.83909e-17
-1.55043e-17
1.82943e-17
-2.76781e-17
-9.98682e-18
-2.01861e-17
1.99212e-17
-2.49974e-17
2.83779e-17
-1.5523e-17
1.81571e-17
-2.77754e-17
-9.88916e-18
-1.99039e-17
2.02155e-17
-2.49338e-17
2.89176e-17
-1.51637e-17
1.81729e-17
-2.8308e-17
-9.67206e-18
-1.95724e-17
2.02193e-17
-2.50336e-17
2.87092e-17
-1.54848e-17
1.81563e-17
-2.84546e-17
-1.03804e-17
-1.97037e-17
2.01468e-17
-2.48492e-17
2.88484e-17
-1.58934e-17
1.79827e-17
-2.80912e-17
-1.02751e-17
-1.94179e-17
1.9995e-17
-2.47982e-17
2.8471e-17
-1.57314e-17
1.8291e-17
-2.8628e-17
-1.01012e-17
-1.91357e-17
2.01716e-17
-2.46374e-17
2.85379e-17
-1.58185e-17
1.83868e-17
-2.91519e-17
-1.03583e-17
-1.91101e-17
2.04612e-17
-2.5122e-17
2.87802e-17
-1.46744e-17
1.82975e-17
-2.87449e-17
-1.02901e-17
-1.9054e-17
2.04313e-17
-2.50274e-17
2.85937e-17
-1.52686e-17
1.81429e-17
-2.89352e-17
-1.04211e-17
-1.87462e-17
2.02873e-17
-2.51253e-17
2.8854e-17
-1.55201e-17
1.80539e-17
-2.92388e-17
-1.01591e-17
-1.82607e-17
2.04638e-17
-2.47997e-17
2.87335e-17
-1.48761e-17
1.86013e-17
-2.92116e-17
-1.0287e-17
-1.83377e-17
2.04976e-17
-2.51867e-17
2.92105e-17
-1.50801e-17
1.83667e-17
-2.95268e-17
-1.11305e-17
-1.84161e-17
2.04991e-17
-2.4891e-17
2.91479e-17
-1.52686e-17
1.82708e-17
-2.90839e-17
-1.0853e-17
-1.78433e-17
1.89692e-17
-2.03368e-17
1.74426e-17
7.73267e-18
-1.6533e-17
1.01174e-17
-3.57307e-17
2.25305e-17
-1.81446e-17
1.73757e-17
-3.033e-17
-1.10861e-17
-1.80548e-17
2.06056e-17
2.08279e-17
-2.43614e-17
3.0646e-17
-1.32969e-17
2.15859e-17
-2.69121e-17
-7.63235e-18
-1.82913e-17
2.09449e-17
-2.44689e-17
3.0887e-17
-1.30683e-17
2.14659e-17
-2.71659e-17
-8.49554e-18
-1.71252e-17
1.7524e-17
-1.5831e-17
1.22909e-17
1.95683e-17
-2.17957e-17
3.07024e-18
-4.31171e-17
1.9142e-17
-1.89747e-17
1.92093e-17
-2.81293e-17
-8.76198e-18
-1.80385e-17
2.08469e-17
-2.44785e-17
3.10024e-17
-1.31806e-17
2.10488e-17
-2.75508e-17
-8.42554e-18
-1.7721e-17
2.1052e-17
-2.47235e-17
3.11975e-17
-1.28683e-17
2.14232e-17
-2.77888e-17
-8.74691e-18
-1.77767e-17
2.10142e-17
-2.4744e-17
3.12248e-17
-1.33074e-17
2.16562e-17
-2.80189e-17
-9.03826e-18
-1.76138e-17
2.1165e-17
-2.46168e-17
3.13005e-17
-1.30116e-17
2.1501e-17
-2.84735e-17
-8.94779e-18
-1.74027e-17
2.11906e-17
-2.45196e-17
3.12797e-17
-1.2978e-17
2.14562e-17
-2.85356e-17
-9.18147e-18
-1.74786e-17
2.12593e-17
-2.46176e-17
3.12578e-17
-1.30952e-17
2.14296e-17
-2.83269e-17
-8.73085e-18
-1.68373e-17
2.13138e-17
-2.46442e-17
3.13671e-17
-1.2575e-17
2.1749e-17
-2.85125e-17
-9.1502e-18
-1.68541e-17
2.13077e-17
-2.44814e-17
3.16e-17
-1.31831e-17
2.12722e-17
-2.8685e-17
-9.31162e-18
-1.6892e-17
2.15567e-17
-2.48953e-17
3.13473e-17
-1.23049e-17
2.16106e-17
-2.84832e-17
-9.68104e-18
-1.68905e-17
2.15143e-17
-2.50991e-17
3.18953e-17
-1.26625e-17
2.12137e-17
-2.91754e-17
-9.66219e-18
-1.6496e-17
2.12775e-17
-2.48974e-17
3.16973e-17
-1.27147e-17
2.11889e-17
-2.92036e-17
-9.78046e-18
-1.62779e-17
2.15801e-17
-2.49491e-17
3.18419e-17
-1.26079e-17
2.15312e-17
-2.93052e-17
-9.6062e-18
-1.61371e-17
2.1385e-17
-2.48639e-17
3.19289e-17
-1.28321e-17
2.13211e-17
-2.96613e-17
-9.58842e-18
-1.59761e-17
2.15309e-17
-2.4662e-17
3.1411e-17
-1.30421e-17
2.16259e-17
-2.95643e-17
-9.93647e-18
-1.50771e-17
1.89498e-17
-1.71951e-17
1.40243e-17
1.95973e-17
-2.26169e-17
1.2602e-18
-4.36641e-17
2.0792e-17
-1.70777e-17
1.98648e-17
-3.04629e-17
-9.8475e-18
-1.55757e-17
2.17846e-17
-2.51169e-17
1.96125e-17
-2.46997e-17
2.82416e-17
-1.57222e-17
1.83868e-17
-2.7525e-17
-9.08167e-18
-2.05697e-17
1.97948e-17
-2.45487e-17
2.82748e-17
-1.54131e-17
1.79937e-17
-2.71698e-17
-9.29764e-18
-1.90854e-17
1.58888e-17
-1.49204e-17
7.82289e-18
1.7562e-17
-2.3951e-17
1.14782e-18
-4.45445e-17
1.51086e-17
-2.21289e-17
1.57142e-17
-2.79578e-17
-9.79969e-18
-2.02322e-17
1.96701e-17
-2.44912e-17
2.80289e-17
-1.54259e-17
1.79226e-17
-2.72732e-17
-9.67394e-18
-2.02916e-17
1.96786e-17
-2.48098e-17
2.82459e-17
-1.5632e-17
1.79639e-17
-2.75799e-17
-9.37726e-18
-1.97781e-17
1.98604e-17
-2.47786e-17
2.85232e-17
-1.5922e-17
1.85825e-17
-2.81912e-17
-9.88533e-18
-1.99883e-17
1.99831e-17
-2.47157e-17
2.80057e-17
-1.588e-17
1.81077e-17
-2.81432e-17
-9.85596e-18
-1.96231e-17
2.01978e-17
-2.47631e-17
2.85062e-17
-1.57569e-17
1.82853e-17
-2.84639e-17
-1.00835e-17
-1.97169e-17
2.01777e-17
-2.49645e-17
2.85115e-17
-1.50378e-17
1.83427e-17
-2.87165e-17
-9.78187e-18
-1.92413e-17
2.02758e-17
-2.48834e-17
2.89122e-17
-1.55852e-17
1.8246e-17
-2.87706e-17
-1.00639e-17
-1.91594e-17
2.01589e-17
-2.45149e-17
2.82384e-17
-1.6208e-17
1.80583e-17
-2.87862e-17
-1.00185e-17
-1.903e-17
2.04485e-17
-2.48744e-17
2.82487e-17
-1.48671e-17
1.8507e-17
-2.83213e-17
-1.06098e-17
-1.90807e-17
2.03211e-17
-2.49357e-17
2.86362e-17
-1.52121e-17
1.80997e-17
-2.87803e-17
-1.02955e-17
-1.86856e-17
2.01533e-17
-2.4866e-17
2.86018e-17
-1.54804e-17
1.80694e-17
-2.91301e-17
-1.0965e-17
-1.88361e-17
2.04588e-17
-2.51422e-17
2.87029e-17
-1.51554e-17
1.82949e-17
-2.93348e-17
-1.05246e-17
-1.85136e-17
2.03474e-17
-2.50075e-17
2.8662e-17
-1.55001e-17
1.80398e-17
-2.95181e-17
-1.02432e-17
-1.82384e-17
2.04565e-17
-2.48004e-17
2.86943e-17
-1.55082e-17
1.84145e-17
-2.95982e-17
-1.09695e-17
-1.72362e-17
1.75494e-17
-1.64078e-17
9.72625e-18
1.76804e-17
-2.49511e-17
-7.36976e-19
-4.54096e-17
1.68661e-17
-2.0464e-17
1.61051e-17
-3.03713e-17
-1.0991e-17
-1.80349e-17
2.07765e-17
-2.53473e-17
1.85499e-17
-2.89939e-17
1.48054e-17
-2.25509e-17
1.15956e-17
-2.5343e-17
-1.68877e-17
-2.69354e-17
1.85917e-17
-2.87391e-17
1.49004e-17
-2.2752e-17
1.11913e-17
-2.5124e-17
-1.71424e-17
-2.55342e-17
1.50897e-17
-2.03848e-17
-3.89998e-18
5.98819e-18
-2.18606e-17
5.48357e-18
-4.62957e-17
2.40479e-18
-2.86848e-17
9.12707e-18
-2.61728e-17
-1.72938e-17
-2.65184e-17
1.87693e-17
-2.89542e-17
1.48077e-17
-2.23249e-17
1.15311e-17
-2.52152e-17
-1.71155e-17
-2.64987e-17
1.8879e-17
-2.9425e-17
1.47195e-17
-2.27183e-17
1.17765e-17
-2.56381e-17
-1.75495e-17
-2.64214e-17
1.88678e-17
-2.93557e-17
1.47482e-17
-2.26004e-17
1.19161e-17
-2.6128e-17
-1.76018e-17
-2.64962e-17
1.9285e-17
-2.96527e-17
1.47047e-17
-2.30967e-17
1.12346e-17
-2.57617e-17
-1.75872e-17
-2.61028e-17
1.93063e-17
-2.95054e-17
1.48906e-17
-2.20656e-17
1.1989e-17
-2.57773e-17
-1.77285e-17
-2.61681e-17
1.91612e-17
-2.95891e-17
1.48919e-17
-2.23341e-17
1.16891e-17
-2.62634e-17
-1.782e-17
-2.58354e-17
1.9356e-17
-2.95917e-17
1.52762e-17
-2.29929e-17
1.16925e-17
-2.64928e-17
-1.8176e-17
-2.58477e-17
1.91719e-17
-2.92692e-17
1.47398e-17
-2.25253e-17
1.19336e-17
-2.64982e-17
-1.79257e-17
-2.55046e-17
1.95553e-17
-2.94101e-17
1.46735e-17
-2.22592e-17
1.19208e-17
-2.70097e-17
-1.82672e-17
-2.53099e-17
1.95353e-17
-2.92359e-17
1.49315e-17
-2.24291e-17
1.17336e-17
-2.657e-17
-1.81816e-17
-2.51897e-17
1.94798e-17
-2.96397e-17
1.48333e-17
-2.28215e-17
1.18187e-17
-2.67095e-17
-1.85221e-17
-2.53342e-17
1.97151e-17
-2.994e-17
1.51104e-17
-2.26631e-17
1.16357e-17
-2.71447e-17
-1.86688e-17
-2.49653e-17
1.95815e-17
-2.94121e-17
1.5189e-17
-2.23714e-17
1.17245e-17
-2.73502e-17
-1.86188e-17
-2.47914e-17
1.98651e-17
-2.98003e-17
1.48242e-17
-2.21565e-17
1.1848e-17
-2.73457e-17
-1.88396e-17
-2.3734e-17
1.68936e-17
-2.15625e-17
-2.25224e-18
5.94235e-18
-2.25911e-17
3.60444e-18
-4.75737e-17
4.28689e-18
-2.73269e-17
9.83058e-18
-2.81782e-17
-1.90145e-17
-2.4485e-17
2.0137e-17
-2.97018e-17
1.53991e-17
1.947e-17
-2.41632e-17
2.79903e-17
-1.55521e-17
1.79112e-17
-2.68199e-17
-8.74553e-18
-1.9921e-17
1.94084e-17
-2.41959e-17
2.77417e-17
-1.52621e-17
1.79289e-17
-2.65361e-17
-8.99026e-18
-1.83904e-17
1.54486e-17
-1.4277e-17
7.51599e-18
1.80833e-17
-2.29746e-17
6.68684e-19
-4.5016e-17
1.36053e-17
-2.2174e-17
1.51599e-17
-2.80492e-17
-8.95961e-18
-1.95255e-17
1.9764e-17
-2.45688e-17
2.87267e-17
-1.50248e-17
1.82503e-17
-2.72746e-17
-9.16361e-18
-1.94338e-17
1.98058e-17
-2.46129e-17
2.86106e-17
-1.56011e-17
1.84141e-17
-2.76311e-17
-9.82436e-18
-1.96013e-17
1.95838e-17
-2.4485e-17
2.81148e-17
-1.51957e-17
1.83938e-17
-2.78906e-17
-9.24088e-18
-1.93085e-17
2.00953e-17
-2.475e-17
2.84647e-17
-1.55957e-17
1.78212e-17
-2.74828e-17
-9.59202e-18
-1.92977e-17
2.01543e-17
-2.48436e-17
2.83462e-17
-1.43761e-17
1.86512e-17
-2.75976e-17
-9.61462e-18
-1.91063e-17
1.98913e-17
-2.49006e-17
2.8582e-17
-1.5243e-17
1.84398e-17
-2.78931e-17
-9.95457e-18
-1.89595e-17
2.00653e-17
-2.46487e-17
2.89408e-17
-1.55082e-17
1.84636e-17
-2.82391e-17
-1.03661e-17
-1.88424e-17
1.99396e-17
-2.44153e-17
2.8154e-17
-1.51686e-17
1.85336e-17
-2.83685e-17
-9.53834e-18
-1.83203e-17
2.01536e-17
-2.45505e-17
2.84869e-17
-1.49832e-17
1.83962e-17
-2.8755e-17
-1.04787e-17
-1.81816e-17
2.03603e-17
-2.43167e-17
2.81941e-17
-1.50262e-17
1.84564e-17
-2.8788e-17
-1.02278e-17
-1.80484e-17
2.01504e-17
-2.45588e-17
2.85571e-17
-1.51512e-17
1.83928e-17
-2.84031e-17
-1.0407e-17
-1.83221e-17
2.02538e-17
-2.49933e-17
2.85347e-17
-1.50045e-17
1.82048e-17
-2.894e-17
-1.06485e-17
-1.78021e-17
2.03329e-17
-2.47221e-17
2.8928e-17
-1.4818e-17
1.83773e-17
-2.96506e-17
-1.07156e-17
-1.76078e-17
2.05849e-17
-2.45877e-17
2.84514e-17
-1.46262e-17
1.82732e-17
-2.92294e-17
-1.06999e-17
-1.65178e-17
1.70451e-17
-1.5511e-17
8.98525e-18
1.78909e-17
-2.45151e-17
-1.91425e-18
-4.62634e-17
1.56973e-17
-2.05059e-17
1.62397e-17
-3.02208e-17
-1.10386e-17
-1.72116e-17
2.07247e-17
-2.47121e-17
2.92183e-17
-1.5368e-17
2.02168e-17
-2.31168e-17
3.02798e-17
-1.21193e-17
2.10795e-17
-2.5798e-17
-6.96534e-18
-1.59418e-17
2.01227e-17
-2.31138e-17
3.03253e-17
-1.21768e-17
2.12208e-17
-2.57794e-17
-7.4964e-18
-1.44888e-17
1.59476e-17
-1.29146e-17
9.45308e-18
2.19153e-17
-1.98285e-17
2.49553e-20
-4.51561e-17
1.60772e-17
-1.89918e-17
1.84359e-17
-2.72602e-17
-7.57912e-18
-1.56853e-17
2.02699e-17
-2.33257e-17
3.05181e-17
-1.22797e-17
2.18048e-17
-2.69149e-17
-7.98636e-18
-1.5559e-17
2.04676e-17
-2.34424e-17
3.0903e-17
-1.24404e-17
2.13984e-17
-2.66491e-17
-7.90004e-18
-1.54782e-17
2.02021e-17
-2.33224e-17
3.06327e-17
-1.14982e-17
2.16777e-17
-2.66968e-17
-7.57124e-18
-1.51746e-17
2.07664e-17
-2.36633e-17
3.08695e-17
-1.15661e-17
2.13315e-17
-2.69021e-17
-7.85935e-18
-1.51865e-17
2.06464e-17
-2.34811e-17
3.07309e-17
-1.10256e-17
2.17097e-17
-2.70722e-17
-7.90112e-18
-1.50507e-17
2.05294e-17
-2.37806e-17
3.11259e-17
-1.19109e-17
2.17241e-17
-2.71108e-17
-8.03094e-18
-1.48433e-17
2.06989e-17
-2.35637e-17
3.13402e-17
-1.15727e-17
2.15867e-17
-2.72014e-17
-7.92764e-18
-1.45652e-17
2.05312e-17
-2.327e-17
3.07984e-17
-1.18377e-17
2.1696e-17
-2.75802e-17
-7.95971e-18
-1.44222e-17
2.05499e-17
-2.33181e-17
3.06291e-17
-1.12264e-17
2.18485e-17
-2.79102e-17
-8.5008e-18
-1.40354e-17
2.0907e-17
-2.32274e-17
3.1194e-17
-1.14512e-17
2.16347e-17
-2.77565e-17
-8.47999e-18
-1.41805e-17
2.06822e-17
-2.35527e-17
3.15168e-17
-1.18836e-17
2.15414e-17
-2.78843e-17
-8.25095e-18
-1.39336e-17
2.07612e-17
-2.37066e-17
3.13493e-17
-1.13947e-17
2.15229e-17
-2.86735e-17
-8.65604e-18
-1.36952e-17
2.08494e-17
-2.36075e-17
3.12721e-17
-1.12481e-17
2.16749e-17
-2.92199e-17
-8.38383e-18
-1.34089e-17
2.1113e-17
-2.35161e-17
3.11669e-17
-1.11447e-17
2.17092e-17
-2.84595e-17
-9.05914e-18
-1.23921e-17
1.74741e-17
-1.42045e-17
1.11362e-17
2.22924e-17
-2.07059e-17
-2.64196e-18
-4.6439e-17
1.80226e-17
-1.71191e-17
1.94736e-17
-2.97445e-17
-8.79795e-18
-1.29488e-17
2.10994e-17
-2.35481e-17
3.18462e-17
-1.14877e-17
1.6827e-17
-2.00722e-17
2.65442e-17
-1.0874e-17
1.73195e-17
-2.27749e-17
-5.36854e-18
-1.38448e-17
1.68038e-17
-1.96433e-17
2.60296e-17
-1.09236e-17
1.74997e-17
-2.24564e-17
-5.5074e-18
-1.25943e-17
1.32202e-17
-1.11382e-17
8.46722e-18
1.78205e-17
-1.78554e-17
-4.06641e-19
-3.82237e-17
1.41051e-17
-1.70785e-17
1.51903e-17
-2.39719e-17
-5.81855e-18
-1.35214e-17
1.6826e-17
-1.99176e-17
2.68808e-17
-1.08515e-17
1.79898e-17
-2.35892e-17
-5.92161e-18
-1.3558e-17
1.69226e-17
-1.98091e-17
2.62493e-17
-1.126e-17