/*--------------------------------*- C++ -*----------------------------------*\
| =========                 |                                                 |
| \\      /  F ield         | OpenFOAM: The Open Source CFD Toolbox           |
|  \\    /   O peration     | Version:  2512                                  |
|   \\  /    A nd           | Website:  www.openfoam.com                      |
|    \\/     M anipulation  |                                                 |
\*---------------------------------------------------------------------------*/
FoamFile
{
    version     2.0;
    format      ascii;
    arch        "LSB;label=32;scalar=64";
    class       volVectorField;
    location    "0.1";
    object      B;
}
// * * * * * * * * * * * * * * * * * * * * * * * * * * * * * * * * * * * * * //

dimensions      [1 0 -2 0 0 -1 0];

internalField   nonuniform List<vector> 
8334
(
(-4.43032e-06 20.0001 6.38129e-20)
(-4.41013e-06 20.0001 1.16253e-19)
(-4.40126e-06 20.0001 8.65304e-20)
(-4.39431e-06 20.0001 9.27173e-20)
(-4.3865e-06 20.0001 3.69122e-20)
(-4.37933e-06 20.0001 9.45361e-20)
(-4.37105e-06 20.0001 8.60992e-20)
(-4.36237e-06 20.0001 1.13308e-19)
(-4.35444e-06 20.0001 1.03018e-19)
(-4.34641e-06 20.0001 1.49668e-19)
(-4.33811e-06 20.0001 1.10815e-19)
(-4.33014e-06 20.0001 1.09131e-19)
(-4.32271e-06 20.0001 4.78623e-20)
(-4.31604e-06 20.0001 1.02902e-19)
(-4.31023e-06 20.0001 9.11364e-20)
(-4.30522e-06 20.0001 1.15904e-19)
(-4.30109e-06 20.0001 1.04796e-19)
(-4.29793e-06 20.0001 1.39762e-19)
(-4.29582e-06 20.0001 1.22618e-19)
(-4.29477e-06 20.0001 7.94633e-20)
(-4.29478e-06 20.0001 8.62109e-20)
(-4.29576e-06 20.0001 8.42616e-20)
(-4.29765e-06 20.0001 1.2217e-19)
(-4.30039e-06 20.0001 4.46436e-20)
(-4.3038e-06 20.0001 1.29308e-19)
(-4.30784e-06 20.0001 1.36949e-19)
(-4.31242e-06 20.0001 1.39002e-19)
(-4.31707e-06 20.0001 5.5607e-20)
(-4.32236e-06 20.0001 5.68254e-20)
(-4.32736e-06 20.0001 5.95244e-20)
(-4.33273e-06 20.0001 1.06416e-19)
(-4.33752e-06 20.0001 3.45932e-20)
(-4.34271e-06 20.0001 1.2269e-19)
(-4.34539e-06 20.0001 1.33678e-19)
(-4.34781e-06 20.0001 1.3513e-19)
(-4.35044e-06 20.0001 5.6776e-20)
(-4.36141e-06 20.0001 4.47779e-20)
(-4.39056e-06 20.0001 8.56318e-20)
(-4.4204e-06 20.0001 6.42321e-20)
(-4.44142e-06 20.0001 1.03639e-19)
(-4.45653e-06 20.0001 1.508e-19)
(-4.46856e-06 20.0001 1.83988e-19)
(-4.47781e-06 20.0001 1.75754e-19)
(-4.48444e-06 20.0001 8.52743e-20)
(-4.48887e-06 20.0001 6.20977e-20)
(-4.49147e-06 20.0001 9.51535e-20)
(-4.49252e-06 20.0001 6.97978e-20)
(-4.49225e-06 20.0001 1.05931e-19)
(-4.4909e-06 20.0001 1.49947e-19)
(-4.48866e-06 20.0001 1.83122e-19)
(-4.48569e-06 20.0001 1.73882e-19)
(-4.48215e-06 20.0001 9.02191e-20)
(-4.47817e-06 20.0001 5.33887e-20)
(-4.47384e-06 20.0001 1.10899e-19)
(-4.46928e-06 20.0001 4.65132e-20)
(-4.46454e-06 20.0001 7.77367e-20)
(-4.4597e-06 20.0001 1.20481e-19)
(-4.45482e-06 20.0001 1.70923e-19)
(-4.44994e-06 20.0001 1.52629e-19)
(-4.44509e-06 20.0001 8.49473e-20)
(-4.44031e-06 20.0001 1.02568e-19)
(-4.43563e-06 20.0001 7.8184e-20)
(-4.43106e-06 20.0001 7.52974e-20)
(-4.42663e-06 20.0001 3.65662e-20)
(-4.42235e-06 20.0001 1.45398e-19)
(-4.41822e-06 20.0001 7.89958e-20)
(-4.41427e-06 20.0001 1.18562e-19)
(-4.4105e-06 20.0001 3.05102e-20)
(-4.40692e-06 20.0001 4.40308e-21)
(-4.40354e-06 20.0001 6.19246e-21)
(-4.40035e-06 20.0001 6.34181e-20)
(-4.39737e-06 20.0001 7.55693e-20)
(-4.3946e-06 20.0001 1.47485e-19)
(-4.39205e-06 20.0001 1.44187e-19)
(-4.38973e-06 20.0001 1.33832e-19)
(-4.38764e-06 20.0001 4.78739e-20)
(-4.38578e-06 20.0001 4.31102e-20)
(-4.38417e-06 20.0001 7.23044e-20)
(-4.38281e-06 20.0001 7.60245e-20)
(-4.38172e-06 20.0001 7.98291e-20)
(-4.3809e-06 20.0001 1.21273e-19)
(-4.38037e-06 20.0001 1.57459e-19)
(-4.38014e-06 20.0001 1.57814e-19)
(-4.38022e-06 20.0001 7.25577e-20)
(-4.38063e-06 20.0001 5.63637e-20)
(-4.38139e-06 20.0001 9.15064e-20)
(-4.38251e-06 20.0001 7.18277e-20)
(-4.38403e-06 20.0001 9.36364e-20)
(-4.38595e-06 20.0001 1.69572e-19)
(-4.38832e-06 20.0001 1.48663e-19)
(-4.39115e-06 20.0001 1.57808e-19)
(-4.39448e-06 20.0001 2.42718e-20)
(-4.39835e-06 20.0001 2.48239e-20)
(-4.40278e-06 20.0001 3.35939e-20)
(-4.40781e-06 20.0001 8.34394e-20)
(-4.4135e-06 20.0001 9.5253e-20)
(-4.41989e-06 20.0001 1.39644e-19)
(-4.42703e-06 20.0001 1.69636e-19)
(-4.43497e-06 20.0001 9.55767e-20)
(-4.44377e-06 20.0001 3.5835e-20)
(-4.4535e-06 20.0001 5.00275e-20)
(-4.46423e-06 20.0001 6.86434e-20)
(-4.47603e-06 20.0001 9.85698e-20)
(-4.48898e-06 20.0001 4.7391e-20)
(-4.50317e-06 20.0001 1.09904e-19)
(-4.51869e-06 20.0001 9.7336e-20)
(-4.53564e-06 20.0001 1.23107e-19)
(-4.55414e-06 20.0001 6.57636e-21)
(-4.57429e-06 20.0001 1.79662e-20)
(-4.59623e-06 20.0001 3.3907e-20)
(-4.62008e-06 20.0001 8.04745e-20)
(-4.646e-06 20.0001 1.07557e-19)
(-4.67413e-06 20.0001 1.3048e-19)
(-4.70464e-06 20.0001 1.975e-19)
(-4.73771e-06 20.0001 1.27447e-19)
(-4.77353e-06 20.0001 6.13114e-20)
(-4.8123e-06 20.0001 6.23874e-20)
(-4.85424e-06 20.0001 8.9443e-20)
(-4.89959e-06 20.0001 8.85897e-20)
(-4.94859e-06 20.0001 7.52839e-20)
(-5.00151e-06 20.0001 1.21736e-19)
(-5.05863e-06 20.0001 1.48576e-19)
(-5.12026e-06 20.0001 7.79597e-20)
(-5.18673e-06 20.0001 6.00972e-20)
(-5.25837e-06 20.0001 5.91211e-20)
(-5.33555e-06 20.0001 8.75987e-20)
(-5.41867e-06 20.0001 1.50282e-19)
(-5.50814e-06 20.0001 1.20907e-19)
(-5.6044e-06 20.0001 1.13872e-20)
(-5.70793e-06 20.0001 3.89438e-20)
(-5.81922e-06 20.0001 2.67722e-20)
(-5.93879e-06 20.0001 4.19103e-20)
(-6.06722e-06 20.0001 2.53551e-20)
(-6.20508e-06 20.0001 5.81441e-20)
(-6.35299e-06 20.0001 6.36296e-20)
(-6.51166e-06 20.0001 7.96391e-20)
(-6.68178e-06 20.0001 6.32636e-22)
(-6.86413e-06 20.0001 4.16818e-20)
(-7.05949e-06 20.0001 4.03957e-20)
(-7.26862e-06 20.0001 5.09782e-20)
(-7.49231e-06 20.0001 2.79333e-20)
(-7.73142e-06 20.0001 1.43794e-19)
(-7.9869e-06 20.0001 8.23557e-20)
(-8.25974e-06 20.0001 1.2036e-19)
(-8.55095e-06 20.0001 2.6807e-20)
(-8.86155e-06 20.0001 7.24651e-20)
(-9.19263e-06 20.0001 1.15942e-19)
(-9.5453e-06 20.0001 1.00713e-19)
(-9.92067e-06 20.0001 1.02288e-19)
(-1.03199e-05 20.0001 1.22023e-19)
(-1.07441e-05 20.0001 1.06846e-19)
(-1.11946e-05 20.0001 9.85484e-20)
(-1.16725e-05 20.0001 2.34181e-20)
(-1.2179e-05 20.0001 2.68057e-20)
(-1.27152e-05 20.0001 8.11633e-20)
(-1.32823e-05 20.0001 5.12316e-20)
(-1.38815e-05 20.0001 1.0539e-19)
(-1.45137e-05 20.0001 1.40737e-19)
(-1.51799e-05 20.0001 1.24316e-19)
(-1.58809e-05 20.0001 1.09743e-19)
(-1.66174e-05 20.0001 2.65102e-20)
(-1.73899e-05 20.0001 2.65931e-20)
(-1.81988e-05 20.0001 8.12488e-20)
(-1.90437e-05 20.0001 5.22296e-20)
(-1.99252e-05 20.0001 1.01002e-19)
(-2.08407e-05 20.0001 1.50733e-19)
(-2.17908e-05 20.0001 1.17156e-19)
(-2.27698e-05 20.0001 1.26422e-19)
(-1.33673e-05 20.0001 -3.3909e-20)
(-1.33468e-05 20.0001 -5.27739e-20)
(-1.33372e-05 20.0001 -5.25698e-20)
(-1.33269e-05 20.0001 -6.5931e-20)
(-1.33166e-05 20.0001 1.2756e-21)
(-1.33044e-05 20.0001 2.0492e-20)
(-1.32921e-05 20.0001 4.10662e-20)
(-1.32809e-05 20.0001 4.15102e-20)
(-1.32694e-05 20.0001 4.11452e-20)
(-1.32576e-05 20.0001 -7.5986e-21)
(-1.32463e-05 20.0001 -2.82088e-20)
(-1.32355e-05 20.0001 -5.19936e-20)
(-1.32256e-05 20.0001 1.04509e-20)
(-1.32166e-05 20.0001 2.45232e-20)
(-1.32084e-05 20.0001 4.33589e-20)
(-1.3201e-05 20.0001 4.03906e-20)
(-1.31946e-05 20.0001 3.22168e-20)
(-1.31893e-05 20.0001 -7.77848e-21)
(-1.31851e-05 20.0001 -4.3746e-20)
(-1.31819e-05 20.0001 -4.54155e-20)
(-1.31796e-05 20.0001 -2.5457e-20)
(-1.31782e-05 20.0001 2.9513e-20)
(-1.31777e-05 20.0001 -2.98046e-20)
(-1.31778e-05 20.0001 9.3565e-20)
(-1.31785e-05 20.0001 7.18072e-20)
(-1.31797e-05 20.0001 6.16299e-20)
(-1.31809e-05 20.0001 -6.04359e-20)
(-1.31826e-05 20.0001 -9.69782e-20)
(-1.31839e-05 20.0001 -7.84711e-20)
(-1.31854e-05 20.0001 -8.82752e-21)
(-1.31859e-05 20.0001 -5.29617e-20)
(-1.31864e-05 20.0001 7.9802e-20)
(-1.3184e-05 20.0001 6.47872e-20)
(-1.31805e-05 20.0001 5.62229e-20)
(-1.31774e-05 20.0001 -6.10913e-20)
(-1.31805e-05 20.0001 -1.05989e-19)
(-1.32019e-05 20.0001 -5.94463e-20)
(-1.32278e-05 20.0001 -3.56642e-20)
(-1.32461e-05 20.0001 -8.43244e-21)
(-1.32579e-05 20.0001 8.67076e-20)
(-1.32664e-05 20.0001 1.05462e-19)
(-1.32721e-05 20.0001 1.42449e-19)
(-1.32751e-05 20.0001 -3.75047e-20)
(-1.32757e-05 20.0001 -8.64745e-20)
(-1.32744e-05 20.0001 -2.09254e-20)
(-1.32715e-05 20.0001 -3.81782e-20)
(-1.32673e-05 20.0001 -2.52213e-20)
(-1.32619e-05 20.0001 6.77824e-20)
(-1.32556e-05 20.0001 8.87146e-20)
(-1.32486e-05 20.0001 1.38307e-19)
(-1.3241e-05 20.0001 -5.11121e-20)
(-1.3233e-05 20.0001 -7.6266e-20)
(-1.32246e-05 20.0001 -4.06429e-20)
(-1.32159e-05 20.0001 -7.68255e-20)
(-1.32071e-05 20.0001 -3.8036e-20)
(-1.31982e-05 20.0001 6.21513e-21)
(-1.31892e-05 20.0001 7.04684e-20)
(-1.31803e-05 20.0001 6.38334e-20)
(-1.31713e-05 20.0001 -2.30991e-20)
(-1.31625e-05 20.0001 1.29119e-20)
(-1.31537e-05 20.0001 1.02861e-20)
(-1.31451e-05 20.0001 1.03645e-20)
(-1.31365e-05 20.0001 -3.46843e-20)
(-1.31282e-05 20.0001 5.22888e-20)
(-1.312e-05 20.0001 -9.84581e-21)
(-1.31119e-05 20.0001 1.42452e-20)
(-1.31041e-05 20.0001 -9.48575e-20)
(-1.30964e-05 20.0001 -1.46698e-19)
(-1.3089e-05 20.0001 -1.47954e-19)
(-1.30817e-05 20.0001 -5.52052e-20)
(-1.30746e-05 20.0001 -4.37282e-20)
(-1.30678e-05 20.0001 7.08739e-20)
(-1.30612e-05 20.0001 7.52786e-20)
(-1.30548e-05 20.0001 1.0201e-20)
(-1.30486e-05 20.0001 -9.99917e-20)
(-1.30426e-05 20.0001 -9.7429e-20)
(-1.30369e-05 20.0001 -2.5734e-20)
(-1.30315e-05 20.0001 -1.31472e-20)
(-1.30263e-05 20.0001 -5.08704e-20)
(-1.30214e-05 20.0001 5.8227e-20)
(-1.30168e-05 20.0001 3.46369e-20)
(-1.30125e-05 20.0001 9.36843e-20)
(-1.30085e-05 20.0001 -3.60738e-20)
(-1.30048e-05 20.0001 -4.64618e-20)
(-1.30014e-05 20.0001 -5.9621e-21)
(-1.29985e-05 20.0001 1.24125e-20)
(-1.29959e-05 20.0001 -5.23031e-21)
(-1.29937e-05 20.0001 1.23629e-19)
(-1.2992e-05 20.0001 6.87783e-20)
(-1.29907e-05 20.0001 7.43409e-20)
(-1.299e-05 20.0001 -1.00619e-19)
(-1.29897e-05 20.0001 -1.23946e-19)
(-1.29901e-05 20.0001 -6.54641e-20)
(-1.2991e-05 20.0001 3.03894e-20)
(-1.29926e-05 20.0001 2.08189e-20)
(-1.29949e-05 20.0001 1.07987e-19)
(-1.29979e-05 20.0001 9.06424e-20)
(-1.30017e-05 20.0001 2.44223e-20)
(-1.30064e-05 20.0001 -1.1367e-19)
(-1.3012e-05 20.0001 -8.79986e-20)
(-1.30186e-05 20.0001 -4.87072e-20)
(-1.30263e-05 20.0001 1.57407e-20)
(-1.30351e-05 20.0001 -4.72272e-20)
(-1.30452e-05 20.0001 4.09863e-20)
(-1.30566e-05 20.0001 -5.73933e-20)
(-1.30694e-05 20.0001 -3.44073e-20)
(-1.30838e-05 20.0001 -1.73118e-19)
(-1.30998e-05 20.0001 -1.63494e-19)
(-1.31176e-05 20.0001 -8.01407e-20)
(-1.31374e-05 20.0001 1.63706e-20)
(-1.31591e-05 20.0001 4.00712e-20)
(-1.31831e-05 20.0001 8.9496e-20)
(-1.32095e-05 20.0001 1.3284e-19)
(-1.32384e-05 20.0001 9.68085e-20)
(-1.32701e-05 20.0001 -6.33945e-20)
(-1.33047e-05 20.0001 -1.02312e-19)
(-1.33425e-05 20.0001 -7.27078e-20)
(-1.33837e-05 20.0001 -6.1697e-21)
(-1.34285e-05 20.0001 -5.51325e-20)
(-1.34772e-05 20.0001 8.26287e-20)
(-1.35302e-05 20.0001 9.79974e-20)
(-1.35877e-05 20.0001 1.60303e-20)
(-1.36499e-05 20.0001 -1.58189e-20)
(-1.37174e-05 20.0001 -3.79042e-20)
(-1.37904e-05 20.0001 1.90879e-20)
(-1.38693e-05 20.0001 8.12954e-20)
(-1.39545e-05 20.0001 6.91111e-20)
(-1.40466e-05 20.0001 -9.49929e-20)
(-1.41459e-05 20.0001 -9.14551e-20)
(-1.42529e-05 20.0001 -1.33429e-19)
(-1.43682e-05 20.0001 -3.06528e-20)
(-1.44924e-05 20.0001 -7.51629e-20)
(-1.4626e-05 20.0001 -4.29295e-20)
(-1.47697e-05 20.0001 -1.08941e-20)
(-1.49241e-05 20.0001 -4.01103e-20)
(-1.50899e-05 20.0001 -1.4742e-19)
(-1.52679e-05 20.0001 -8.27319e-20)
(-1.54589e-05 20.0001 -7.27059e-20)
(-1.56637e-05 20.0001 -5.67608e-21)
(-1.5883e-05 20.0001 -1.01508e-19)
(-1.61177e-05 20.0001 5.29463e-20)
(-1.63688e-05 20.0001 -3.19042e-20)
(-1.66372e-05 20.0001 7.44184e-21)
(-1.6924e-05 20.0001 -1.30523e-19)
(-1.72302e-05 20.0001 -7.14534e-20)
(-1.75568e-05 20.0001 2.27084e-21)
(-1.79049e-05 20.0001 3.19979e-20)
(-1.82758e-05 20.0001 7.85507e-21)
(-1.86704e-05 20.0001 6.39966e-20)
(-1.90901e-05 20.0001 2.94685e-20)
(-1.9536e-05 20.0001 -3.0562e-20)
(-2.00092e-05 20.0001 -1.47373e-19)
(-2.05111e-05 20.0001 -1.6805e-19)
(-2.10426e-05 20.0001 -7.64658e-20)
(-2.16051e-05 20.0001 -7.09271e-20)
(-2.21995e-05 20.0001 2.86077e-22)
(-2.2827e-05 20.0001 1.17609e-19)
(-2.34884e-05 20.0001 5.70868e-20)
(-2.41846e-05 20.0001 3.52998e-20)
(-2.49163e-05 20.0001 -1.14712e-19)
(-2.56839e-05 20.0001 -1.12966e-19)
(-2.6488e-05 20.0001 -2.19025e-20)
(-2.73282e-05 20.0001 -4.23581e-20)
(-2.82048e-05 20.0001 2.83026e-20)
(-2.9116e-05 20.0001 1.16644e-19)
(-3.0062e-05 20.0001 1.55302e-20)
(-3.10396e-05 20.0001 3.67695e-20)
(-3.2051e-05 20.0001 -1.02274e-19)
(-3.30984e-05 20.0001 -1.42001e-19)
(-3.41711e-05 20.0001 -6.40812e-20)
(-3.52619e-05 20.0001 -8.4359e-20)
(-3.63669e-05 20.0001 -4.66616e-20)
(-3.74802e-05 20.0001 2.67067e-20)
(-3.85939e-05 20.0001 3.16337e-20)
(-3.96986e-05 20.0001 2.73658e-20)
(-4.07831e-05 20.0001 -8.92423e-20)
(-4.18342e-05 20.0001 -1.19502e-19)
(-4.28371e-05 20.0001 -6.39638e-20)
(-4.37734e-05 20.0001 -3.24743e-20)
(-4.4625e-05 20.0001 -2.61824e-20)
(-4.53641e-05 20.0001 1.20591e-19)
(-4.59742e-05 20.0001 7.43097e-20)
(-4.6409e-05 20.0001 5.69313e-20)
(-4.66626e-05 20.0001 -1.78321e-20)
(-2.22939e-05 20.0001 -1.65062e-19)
(-2.2275e-05 20.0001 -2.77771e-19)
(-2.22651e-05 20.0001 -2.13993e-19)
(-2.22527e-05 20.0001 -1.45097e-19)
(-2.22368e-05 20.0001 -3.89994e-20)
(-2.22212e-05 20.0001 -1.13859e-19)
(-2.22067e-05 20.0001 3.35086e-21)
(-2.21916e-05 20.0001 -1.18983e-19)
(-2.21764e-05 20.0001 -1.06479e-19)
(-2.21618e-05 20.0001 -2.47335e-19)
(-2.21477e-05 20.0001 -1.98278e-19)
(-2.21345e-05 20.0001 -1.35877e-19)
(-2.21223e-05 20.0001 -3.64553e-20)
(-2.21109e-05 20.0001 -1.13287e-19)
(-2.21003e-05 20.0001 1.02459e-21)
(-2.20907e-05 20.0001 -1.27334e-19)
(-2.20822e-05 20.0001 -1.13929e-19)
(-2.20747e-05 20.0001 -2.58853e-19)
(-2.20683e-05 20.0001 -2.01397e-19)
(-2.20628e-05 20.0001 -1.69404e-19)
(-2.20582e-05 20.0001 -4.60694e-20)
(-2.20544e-05 20.0001 -1.73877e-19)
(-2.20512e-05 20.0001 3.92208e-20)
(-2.20485e-05 20.0001 -7.95007e-20)
(-2.20463e-05 20.0001 -4.18802e-20)
(-2.2044e-05 20.0001 -2.57169e-19)
(-2.20421e-05 20.0001 -2.45988e-19)
(-2.20397e-05 20.0001 -2.24219e-19)
(-2.20373e-05 20.0001 -9.04505e-20)
(-2.20335e-05 20.0001 -2.02199e-19)
(-2.20294e-05 20.0001 2.1493e-20)
(-2.2022e-05 20.0001 -8.90149e-20)
(-2.20132e-05 20.0001 -4.80213e-20)
(-2.20055e-05 20.0001 -2.59882e-19)
(-2.20026e-05 20.0001 -2.51277e-19)
(-2.20161e-05 20.0001 -2.13735e-19)
(-2.20366e-05 20.0001 -1.03953e-19)
(-2.20514e-05 20.0001 -1.69119e-19)
(-2.20598e-05 20.0001 2.86096e-20)
(-2.20647e-05 20.0001 -6.4579e-20)
(-2.20666e-05 20.0001 3.21655e-20)
(-2.20658e-05 20.0001 -2.25427e-19)
(-2.20626e-05 20.0001 -2.36204e-19)
(-2.20574e-05 20.0001 -1.76715e-19)
(-2.20505e-05 20.0001 -9.90322e-20)
(-2.20423e-05 20.0001 -1.85244e-19)
(-2.20329e-05 20.0001 7.08218e-21)
(-2.20225e-05 20.0001 -8.63906e-20)
(-2.20115e-05 20.0001 2.50168e-20)
(-2.19998e-05 20.0001 -2.43864e-19)
(-2.19877e-05 20.0001 -2.26316e-19)
(-2.19752e-05 20.0001 -1.96254e-19)
(-2.19624e-05 20.0001 -1.42939e-19)
(-2.19495e-05 20.0001 -2.01339e-19)
(-2.19365e-05 20.0001 -4.75036e-20)
(-2.19235e-05 20.0001 -1.06845e-19)
(-2.19105e-05 20.0001 -4.68729e-20)
(-2.18974e-05 20.0001 -2.28207e-19)
(-2.18845e-05 20.0001 -1.4404e-19)
(-2.18717e-05 20.0001 -1.22815e-19)
(-2.18589e-05 20.0001 -4.81634e-20)
(-2.18463e-05 20.0001 -1.72095e-19)
(-2.18339e-05 20.0001 -5.05802e-21)
(-2.18216e-05 20.0001 -1.62799e-19)
(-2.18095e-05 20.0001 -1.01101e-19)
(-2.17976e-05 20.0001 -2.98795e-19)
(-2.17858e-05 20.0001 -2.92445e-19)
(-2.17743e-05 20.0001 -2.87625e-19)
(-2.17629e-05 20.0001 -1.33365e-19)
(-2.17518e-05 20.0001 -2.04757e-19)
(-2.17409e-05 20.0001 1.96096e-21)
(-2.17302e-05 20.0001 -8.91285e-20)
(-2.17197e-05 20.0001 -9.29615e-20)
(-2.17094e-05 20.0001 -3.07094e-19)
(-2.16994e-05 20.0001 -2.5497e-19)
(-2.16896e-05 20.0001 -1.75065e-19)
(-2.16801e-05 20.0001 -7.36033e-20)
(-2.16708e-05 20.0001 -2.04814e-19)
(-2.16618e-05 20.0001 3.32563e-22)
(-2.16531e-05 20.0001 -1.28982e-19)
(-2.16447e-05 20.0001 -2.39277e-20)
(-2.16366e-05 20.0001 -2.34761e-19)
(-2.16288e-05 20.0001 -1.91476e-19)
(-2.16214e-05 20.0001 -1.47189e-19)
(-2.16143e-05 20.0001 -4.34512e-20)
(-2.16076e-05 20.0001 -1.54094e-19)
(-2.16014e-05 20.0001 6.11588e-20)
(-2.15955e-05 20.0001 -8.5347e-20)
(-2.15902e-05 20.0001 -3.79468e-20)
(-2.15853e-05 20.0001 -2.91208e-19)
(-2.1581e-05 20.0001 -2.71682e-19)
(-2.15772e-05 20.0001 -2.06475e-19)
(-2.1574e-05 20.0001 -3.52324e-20)
(-2.15715e-05 20.0001 -1.26687e-19)
(-2.15696e-05 20.0001 5.80979e-20)
(-2.15686e-05 20.0001 -7.21323e-20)
(-2.15683e-05 20.0001 -7.14052e-20)
(-2.15688e-05 20.0001 -3.13024e-19)
(-2.15703e-05 20.0001 -2.46501e-19)
(-2.15728e-05 20.0001 -1.95455e-19)
(-2.15764e-05 20.0001 -6.13073e-20)
(-2.15811e-05 20.0001 -1.97385e-19)
(-2.1587e-05 20.0001 -1.64085e-20)
(-2.15943e-05 20.0001 -2.12489e-19)
(-2.16029e-05 20.0001 -1.61985e-19)
(-2.16132e-05 20.0001 -3.82954e-19)
(-2.1625e-05 20.0001 -3.26098e-19)
(-2.16387e-05 20.0001 -2.29637e-19)
(-2.16542e-05 20.0001 -5.23059e-20)
(-2.16718e-05 20.0001 -1.12186e-19)
(-2.16917e-05 20.0001 4.76089e-20)
(-2.17139e-05 20.0001 -3.63716e-20)
(-2.17386e-05 20.0001 -1.05556e-22)
(-2.17661e-05 20.0001 -2.52046e-19)
(-2.17965e-05 20.0001 -2.48942e-19)
(-2.18301e-05 20.0001 -2.23701e-19)
(-2.18671e-05 20.0001 -8.32946e-20)
(-2.19077e-05 20.0001 -2.02154e-19)
(-2.19522e-05 20.0001 7.41206e-21)
(-2.20009e-05 20.0001 -1.95375e-20)
(-2.20541e-05 20.0001 -1.38949e-19)
(-2.21121e-05 20.0001 -1.15072e-19)
(-2.21753e-05 20.0001 -2.1766e-19)
(-2.2244e-05 20.0001 -4.18554e-20)
(-2.23187e-05 20.0001 -9.424e-20)
(-2.23996e-05 20.0001 -3.63413e-20)
(-2.24873e-05 20.0001 -2.84107e-19)
(-2.25823e-05 20.0001 -2.38759e-19)
(-2.2685e-05 20.0001 -2.68618e-19)
(-2.2796e-05 20.0001 -1.0762e-19)
(-2.29158e-05 20.0001 -2.19026e-19)
(-2.3045e-05 20.0001 -9.12209e-20)
(-2.31843e-05 20.0001 -1.72458e-19)
(-2.33342e-05 20.0001 -1.42228e-19)
(-2.34956e-05 20.0001 -3.52657e-19)
(-2.36691e-05 20.0001 -2.45821e-19)
(-2.38555e-05 20.0001 -2.12236e-19)
(-2.40557e-05 20.0001 -7.17168e-20)
(-2.42704e-05 20.0001 -2.39111e-19)
(-2.45005e-05 20.0001 -1.90547e-20)
(-2.47469e-05 20.0001 -1.86851e-19)
(-2.50107e-05 20.0001 -1.11228e-19)
(-2.52927e-05 20.0001 -3.35003e-19)
(-2.55941e-05 20.0001 -2.3711e-19)
(-2.59159e-05 20.0001 -1.52295e-19)
(-2.62592e-05 20.0001 -3.71099e-20)
(-2.66251e-05 20.0001 -1.47579e-19)
(-2.70148e-05 20.0001 8.24922e-21)
(-2.74295e-05 20.0001 -1.27556e-19)
(-2.78703e-05 20.0001 -1.34443e-19)
(-2.83384e-05 20.0001 -3.58545e-19)
(-2.88351e-05 20.0001 -3.27773e-19)
(-2.93615e-05 20.0001 -2.37749e-19)
(-2.99186e-05 20.0001 -1.39699e-19)
(-3.05077e-05 20.0001 -1.73326e-19)
(-3.11298e-05 20.0001 5.74194e-20)
(-3.17857e-05 20.0001 -9.37987e-20)
(-3.24764e-05 20.0001 -6.65928e-20)
(-3.32026e-05 20.0001 -3.12352e-19)
(-3.39647e-05 20.0001 -2.63556e-19)
(-3.47631e-05 20.0001 -1.68489e-19)
(-3.55977e-05 20.0001 -9.8257e-20)
(-3.64686e-05 20.0001 -1.34458e-19)
(-3.73746e-05 20.0001 6.31349e-20)
(-3.83154e-05 20.0001 -1.33642e-19)
(-3.92905e-05 20.0001 -7.602e-20)
(-4.02963e-05 20.0001 -3.16329e-19)
(-4.13334e-05 20.0001 -3.00816e-19)
(-4.23987e-05 20.0001 -2.19196e-19)
(-4.34838e-05 20.0001 -1.50471e-19)
(-4.45832e-05 20.0001 -2.02497e-19)
(-4.56909e-05 20.0001 -2.36552e-20)
(-4.67992e-05 20.0001 -1.30537e-19)
(-4.78987e-05 20.0001 -8.07937e-20)
(-4.89782e-05 20.0001 -2.92992e-19)
(-5.00247e-05 20.0001 -2.69063e-19)
(-5.10234e-05 20.0001 -2.10258e-19)
(-5.19559e-05 20.0001 -1.0348e-19)
(-5.28041e-05 20.0001 -1.82396e-19)
(-5.35407e-05 20.0001 5.56763e-20)
(-5.41486e-05 20.0001 -6.62794e-20)
(-5.45824e-05 20.0001 -6.84324e-20)
(-5.4835e-05 20.0001 -1.93734e-19)
(-3.12135e-05 20.0001 -4.44097e-19)
(-3.12016e-05 20.0001 -3.53481e-19)
(-3.11872e-05 20.0001 -2.91424e-19)
(-3.11681e-05 20.0001 -1.23602e-19)
(-3.11494e-05 20.0001 -2.56583e-19)
(-3.11318e-05 20.0001 -8.69547e-20)
(-3.11131e-05 20.0001 -2.7032e-19)
(-3.10945e-05 20.0001 -2.16948e-19)
(-3.10766e-05 20.0001 -4.11031e-19)
(-3.10592e-05 20.0001 -3.37834e-19)
(-3.10429e-05 20.0001 -2.84102e-19)
(-3.10275e-05 20.0001 -1.23223e-19)
(-3.10128e-05 20.0001 -2.58365e-19)
(-3.0999e-05 20.0001 -9.03494e-20)
(-3.09862e-05 20.0001 -2.77053e-19)
(-3.09744e-05 20.0001 -2.26281e-19)
(-3.09638e-05 20.0001 -4.21619e-19)
(-3.09541e-05 20.0001 -3.46456e-19)
(-3.09454e-05 20.0001 -3.11388e-19)
(-3.09375e-05 20.0001 -1.38606e-19)
(-3.09304e-05 20.0001 -3.0085e-19)
(-3.09239e-05 20.0001 -6.72778e-20)
(-3.09179e-05 20.0001 -2.37178e-19)
(-3.09122e-05 20.0001 -1.70197e-19)
(-3.09065e-05 20.0001 -4.15621e-19)
(-3.0901e-05 20.0001 -3.8041e-19)
(-3.08949e-05 20.0001 -3.58548e-19)
(-3.08885e-05 20.0001 -1.80181e-19)
(-3.08805e-05 20.0001 -3.29989e-19)
(-3.08718e-05 20.0001 -8.61433e-20)
(-3.08599e-05 20.0001 -2.47744e-19)
(-3.08463e-05 20.0001 -1.76703e-19)
(-3.08343e-05 20.0001 -4.19261e-19)
(-3.08265e-05 20.0001 -3.84545e-19)
(-3.08327e-05 20.0001 -3.53467e-19)
(-3.08471e-05 20.0001 -1.85828e-19)
(-3.08577e-05 20.0001 -3.05537e-19)
(-3.08624e-05 20.0001 -7.58513e-20)
(-3.08634e-05 20.0001 -2.28206e-19)
(-3.08615e-05 20.0001 -1.14049e-19)
(-3.08568e-05 20.0001 -3.819e-19)
(-3.08496e-05 20.0001 -3.6821e-19)
(-3.08405e-05 20.0001 -3.23943e-19)
(-3.08296e-05 20.0001 -1.78292e-19)
(-3.08173e-05 20.0001 -3.16827e-19)
(-3.08038e-05 20.0001 -9.34661e-20)
(-3.07894e-05 20.0001 -2.46669e-19)
(-3.07743e-05 20.0001 -1.22537e-19)
(-3.07585e-05 20.0001 -3.97973e-19)
(-3.07423e-05 20.0001 -3.64157e-19)
(-3.07257e-05 20.0001 -3.40066e-19)
(-3.07089e-05 20.0001 -2.1569e-19)
(-3.06919e-05 20.0001 -3.37788e-19)
(-3.06748e-05 20.0001 -1.36821e-19)
(-3.06577e-05 20.0001 -2.68921e-19)
(-3.06406e-05 20.0001 -1.75788e-19)
(-3.06235e-05 20.0001 -3.89577e-19)
(-3.06065e-05 20.0001 -2.97218e-19)
(-3.05895e-05 20.0001 -2.67729e-19)
(-3.05727e-05 20.0001 -1.32911e-19)
(-3.05561e-05 20.0001 -3.00597e-19)
(-3.05396e-05 20.0001 -1.06042e-19)
(-3.05232e-05 20.0001 -3.08115e-19)
(-3.0507e-05 20.0001 -2.28168e-19)
(-3.0491e-05 20.0001 -4.59624e-19)
(-3.04752e-05 20.0001 -4.2472e-19)
(-3.04596e-05 20.0001 -4.11278e-19)
(-3.04441e-05 20.0001 -2.17524e-19)
(-3.04289e-05 20.0001 -3.40333e-19)
(-3.04139e-05 20.0001 -1.08021e-19)
(-3.03991e-05 20.0001 -2.56953e-19)
(-3.03845e-05 20.0001 -2.14576e-19)
(-3.03702e-05 20.0001 -4.59591e-19)
(-3.03561e-05 20.0001 -3.9234e-19)
(-3.03422e-05 20.0001 -3.22222e-19)
(-3.03286e-05 20.0001 -1.59835e-19)
(-3.03153e-05 20.0001 -3.30777e-19)
(-3.03022e-05 20.0001 -1.0269e-19)
(-3.02894e-05 20.0001 -2.78677e-19)
(-3.02769e-05 20.0001 -1.61375e-19)
(-3.02647e-05 20.0001 -3.95529e-19)
(-3.02528e-05 20.0001 -3.32049e-19)
(-3.02413e-05 20.0001 -2.88613e-19)
(-3.02301e-05 20.0001 -1.27111e-19)
(-3.02193e-05 20.0001 -2.84443e-19)
(-3.0209e-05 20.0001 -5.11503e-20)
(-3.0199e-05 20.0001 -2.40562e-19)
(-3.01895e-05 20.0001 -1.70636e-19)
(-3.01806e-05 20.0001 -4.41211e-19)
(-3.01721e-05 20.0001 -4.00426e-19)
(-3.01642e-05 20.0001 -3.40718e-19)
(-3.01569e-05 20.0001 -1.28594e-19)
(-3.01503e-05 20.0001 -2.64848e-19)
(-3.01443e-05 20.0001 -4.85909e-20)
(-3.01391e-05 20.0001 -2.3514e-19)
(-3.01347e-05 20.0001 -1.94451e-19)
(-3.01311e-05 20.0001 -4.62421e-19)
(-3.01285e-05 20.0001 -3.87778e-19)
(-3.01268e-05 20.0001 -3.36895e-19)
(-3.01262e-05 20.0001 -1.57574e-19)
(-3.01268e-05 20.0001 -3.30248e-19)
(-3.01286e-05 20.0001 -1.25729e-19)
(-3.01317e-05 20.0001 -3.53468e-19)
(-3.01362e-05 20.0001 -2.86128e-19)
(-3.01422e-05 20.0001 -5.32251e-19)
(-3.01499e-05 20.0001 -4.56635e-19)
(-3.01594e-05 20.0001 -3.67622e-19)
(-3.01708e-05 20.0001 -1.44707e-19)
(-3.01842e-05 20.0001 -2.56974e-19)
(-3.01998e-05 20.0001 -5.10045e-20)
(-3.02178e-05 20.0001 -2.03059e-19)
(-3.02383e-05 20.0001 -1.33386e-19)
(-3.02616e-05 20.0001 -4.04838e-19)
(-3.02878e-05 20.0001 -3.79825e-19)
(-3.03171e-05 20.0001 -3.54663e-19)
(-3.03498e-05 20.0001 -1.73051e-19)
(-3.03862e-05 20.0001 -3.2249e-19)
(-3.04264e-05 20.0001 -1.0629e-19)
(-3.04708e-05 20.0001 -1.5777e-19)
(-3.05197e-05 20.0001 -2.97386e-19)
(-3.05734e-05 20.0001 -2.20495e-19)
(-3.06323e-05 20.0001 -3.67457e-19)
(-3.06966e-05 20.0001 -1.42967e-19)
(-3.07669e-05 20.0001 -2.61903e-19)
(-3.08434e-05 20.0001 -1.70482e-19)
(-3.09267e-05 20.0001 -4.34948e-19)
(-3.10173e-05 20.0001 -3.78153e-19)
(-3.11155e-05 20.0001 -3.87114e-19)
(-3.1222e-05 20.0001 -1.96461e-19)
(-3.13373e-05 20.0001 -3.495e-19)
(-3.1462e-05 20.0001 -1.75932e-19)
(-3.15967e-05 20.0001 -3.28261e-19)
(-3.1742e-05 20.0001 -2.61196e-19)
(-3.18988e-05 20.0001 -5.02245e-19)
(-3.20676e-05 20.0001 -3.96111e-19)
(-3.22493e-05 20.0001 -3.49481e-19)
(-3.24446e-05 20.0001 -1.66275e-19)
(-3.26545e-05 20.0001 -3.57568e-19)
(-3.28798e-05 20.0001 -1.28264e-19)
(-3.31213e-05 20.0001 -3.31859e-19)
(-3.33801e-05 20.0001 -2.40458e-19)
(-3.36571e-05 20.0001 -4.85839e-19)
(-3.39534e-05 20.0001 -3.83724e-19)
(-3.427e-05 20.0001 -3.0289e-19)
(-3.46081e-05 20.0001 -1.31337e-19)
(-3.49687e-05 20.0001 -2.87055e-19)
(-3.53531e-05 20.0001 -9.58544e-20)
(-3.57623e-05 20.0001 -2.86121e-19)
(-3.61977e-05 20.0001 -2.53092e-19)
(-3.66602e-05 20.0001 -5.11567e-19)
(-3.71512e-05 20.0001 -4.58686e-19)
(-3.76718e-05 20.0001 -3.80534e-19)
(-3.82231e-05 20.0001 -2.16375e-19)
(-3.88063e-05 20.0001 -3.17509e-19)
(-3.94223e-05 20.0001 -6.13779e-20)
(-4.00721e-05 20.0001 -2.51461e-19)
(-4.07566e-05 20.0001 -1.94613e-19)
(-4.14765e-05 20.0001 -4.61786e-19)
(-4.22322e-05 20.0001 -3.96026e-19)
(-4.30241e-05 20.0001 -3.13894e-19)
(-4.38523e-05 20.0001 -1.71674e-19)
(-4.47166e-05 20.0001 -2.78685e-19)
(-4.56165e-05 20.0001 -5.1749e-20)
(-4.65513e-05 20.0001 -2.80017e-19)
(-4.75208e-05 20.0001 -2.07534e-19)
(-4.85202e-05 20.0001 -4.75317e-19)
(-4.95485e-05 20.0001 -4.34727e-19)
(-5.06052e-05 20.0001 -3.63679e-19)
(-5.16831e-05 20.0001 -2.25105e-19)
(-5.27755e-05 20.0001 -3.41043e-19)
(-5.38765e-05 20.0001 -1.2329e-19)
(-5.49782e-05 20.0001 -2.86949e-19)
(-5.60714e-05 20.0001 -2.09087e-19)
(-5.71449e-05 20.0001 -4.53374e-19)
(-5.81859e-05 20.0001 -4.03672e-19)
(-5.91794e-05 20.0001 -3.47248e-19)
(-6.01073e-05 20.0001 -1.85597e-19)
(-6.09516e-05 20.0001 -3.14808e-19)
(-6.16848e-05 20.0001 -6.32036e-20)
(-6.22903e-05 20.0001 -2.19928e-19)
(-6.27223e-05 20.0001 -2.05189e-19)
(-6.29742e-05 20.0001 -3.43813e-19)
(-4.01626e-05 20.0001 -5.01999e-19)
(-4.01364e-05 20.0001 -4.46005e-19)
(-4.01196e-05 20.0001 -3.94956e-19)
(-4.00984e-05 20.0001 -2.41422e-19)
(-4.00773e-05 20.0001 -3.3352e-19)
(-4.00562e-05 20.0001 -2.23991e-19)
(-4.00339e-05 20.0001 -3.60806e-19)
(-4.00121e-05 20.0001 -3.33216e-19)
(-3.99909e-05 20.0001 -4.69008e-19)
(-3.99702e-05 20.0001 -4.31229e-19)
(-3.99506e-05 20.0001 -3.90134e-19)
(-3.99321e-05 20.0001 -2.42746e-19)
(-3.99141e-05 20.0001 -3.37639e-19)
(-3.98971e-05 20.0001 -2.28795e-19)
(-3.98811e-05 20.0001 -3.66083e-19)
(-3.98662e-05 20.0001 -3.42236e-19)
(-3.98523e-05 20.0001 -4.79302e-19)
(-3.98394e-05 20.0001 -4.4232e-19)
(-3.98274e-05 20.0001 -4.12016e-19)
(-3.98163e-05 20.0001 -2.59966e-19)
(-3.98059e-05 20.0001 -3.65833e-19)
(-3.97961e-05 20.0001 -2.16899e-19)
(-3.97867e-05 20.0001 -3.37032e-19)
(-3.97777e-05 20.0001 -3.0249e-19)
(-3.97685e-05 20.0001 -4.75319e-19)
(-3.97594e-05 20.0001 -4.69077e-19)
(-3.97495e-05 20.0001 -4.51588e-19)
(-3.97392e-05 20.0001 -2.96438e-19)
(-3.97271e-05 20.0001 -3.9391e-19)
(-3.97139e-05 20.0001 -2.33528e-19)
(-3.96978e-05 20.0001 -3.47642e-19)
(-3.96799e-05 20.0001 -3.09726e-19)
(-3.96639e-05 20.0001 -4.79177e-19)
(-3.96517e-05 20.0001 -4.73186e-19)
(-3.96512e-05 20.0001 -4.49479e-19)
(-3.96591e-05 20.0001 -2.97667e-19)
(-3.9665e-05 20.0001 -3.76085e-19)
(-3.96656e-05 20.0001 -2.21586e-19)
(-3.96626e-05 20.0001 -3.28783e-19)
(-3.96567e-05 20.0001 -2.61888e-19)
(-3.9648e-05 20.0001 -4.44731e-19)
(-3.96369e-05 20.0001 -4.5312e-19)
(-3.96237e-05 20.0001 -4.25735e-19)
(-3.96087e-05 20.0001 -2.89505e-19)
(-3.95924e-05 20.0001 -3.83486e-19)
(-3.95748e-05 20.0001 -2.36624e-19)
(-3.95563e-05 20.0001 -3.41193e-19)
(-3.95371e-05 20.0001 -2.69476e-19)
(-3.95172e-05 20.0001 -4.5691e-19)
(-3.94969e-05 20.0001 -4.5513e-19)
(-3.94763e-05 20.0001 -4.39643e-19)
(-3.94554e-05 20.0001 -3.19081e-19)
(-3.94343e-05 20.0001 -4.05762e-19)
(-3.94131e-05 20.0001 -2.69893e-19)
(-3.93919e-05 20.0001 -3.66022e-19)
(-3.93707e-05 20.0001 -3.06204e-19)
(-3.93495e-05 20.0001 -4.50501e-19)
(-3.93284e-05 20.0001 -4.01996e-19)
(-3.93074e-05 20.0001 -3.76126e-19)
(-3.92866e-05 20.0001 -2.51571e-19)
(-3.92658e-05 20.0001 -3.69154e-19)
(-3.92452e-05 20.0001 -2.49909e-19)
(-3.92248e-05 20.0001 -3.95359e-19)
(-3.92045e-05 20.0001 -3.55155e-19)
(-3.91845e-05 20.0001 -5.18908e-19)
(-3.91646e-05 20.0001 -5.10878e-19)
(-3.91449e-05 20.0001 -4.95698e-19)
(-3.91254e-05 20.0001 -3.29209e-19)
(-3.91061e-05 20.0001 -4.09881e-19)
(-3.9087e-05 20.0001 -2.56708e-19)
(-3.90681e-05 20.0001 -3.64211e-19)
(-3.90494e-05 20.0001 -3.41557e-19)
(-3.9031e-05 20.0001 -5.11787e-19)
(-3.90128e-05 20.0001 -4.80955e-19)
(-3.89949e-05 20.0001 -4.26784e-19)
(-3.89772e-05 20.0001 -2.79018e-19)
(-3.89597e-05 20.0001 -3.93186e-19)
(-3.89426e-05 20.0001 -2.46041e-19)
(-3.89257e-05 20.0001 -3.68289e-19)
(-3.89091e-05 20.0001 -2.98772e-19)
(-3.88928e-05 20.0001 -4.55011e-19)
(-3.88768e-05 20.0001 -4.26344e-19)
(-3.88612e-05 20.0001 -3.9088e-19)
(-3.88459e-05 20.0001 -2.45145e-19)
(-3.8831e-05 20.0001 -3.51649e-19)
(-3.88166e-05 20.0001 -2.03445e-19)
(-3.88025e-05 20.0001 -3.38524e-19)
(-3.87889e-05 20.0001 -3.04785e-19)
(-3.87758e-05 20.0001 -4.93021e-19)
(-3.87632e-05 20.0001 -4.81895e-19)
(-3.87512e-05 20.0001 -4.34889e-19)
(-3.87398e-05 20.0001 -2.52915e-19)
(-3.8729e-05 20.0001 -3.41507e-19)
(-3.87189e-05 20.0001 -1.99116e-19)
(-3.87096e-05 20.0001 -3.37342e-19)
(-3.8701e-05 20.0001 -3.22129e-19)
(-3.86933e-05 20.0001 -5.10835e-19)
(-3.86865e-05 20.0001 -4.78905e-19)
(-3.86807e-05 20.0001 -4.38032e-19)
(-3.8676e-05 20.0001 -2.81955e-19)
(-3.86724e-05 20.0001 -3.99714e-19)
(-3.867e-05 20.0001 -2.74914e-19)
(-3.86689e-05 20.0001 -4.36948e-19)