/*--------------------------------*- C++ -*----------------------------------*\
| =========                 |                                                 |
| \\      /  F ield         | OpenFOAM: The Open Source CFD Toolbox           |
|  \\    /   O peration     | Version:  2512                                  |
|   \\  /    A nd           | Website:  www.openfoam.com                      |
|    \\/     M anipulation  |                                                 |
\*---------------------------------------------------------------------------*/
FoamFile
{
    version     2.0;
    format      ascii;
    arch        "LSB;label=32;scalar=64";
    class       volScalarField;
    location    "0.1";
    object      p;
}
// * * * * * * * * * * * * * * * * * * * * * * * * * * * * * * * * * * * * * //

dimensions      [1 -1 -2 0 0 0 0];

internalField   nonuniform List<scalar> 
8334
(
-640.551
-641.331
-642.112
-642.891
-643.671
-644.45
-645.229
-646.007
-646.784
-647.561
-648.338
-649.114
-649.89
-650.665
-651.439
-652.213
-652.987
-653.76
-654.532
-655.304
-656.076
-656.846
-657.617
-658.386
-659.156
-659.924
-660.692
-661.46
-662.226
-662.993
-663.758
-664.524
-665.288
-666.052
-666.815
-667.578
-668.339
-669.101
-669.862
-670.622
-671.382
-672.141
-672.899
-673.657
-674.414
-675.171
-675.927
-676.682
-677.437
-678.191
-678.944
-679.697
-680.449
-681.2
-681.951
-682.701
-683.451
-684.2
-684.948
-685.695
-686.442
-687.188
-687.933
-688.678
-689.422
-690.165
-690.908
-691.65
-692.391
-693.131
-693.871
-694.61
-695.348
-696.086
-696.823
-697.559
-698.294
-699.029
-699.763
-700.496
-701.228
-701.96
-702.691
-703.421
-704.15
-704.878
-705.606
-706.333
-707.059
-707.785
-708.509
-709.233
-709.956
-710.678
-711.399
-712.12
-712.84
-713.559
-714.277
-714.994
-715.711
-716.426
-717.141
-717.855
-718.568
-719.281
-719.992
-720.703
-721.412
-722.121
-722.829
-723.537
-724.243
-724.948
-725.653
-726.357
-727.06
-727.762
-728.463
-729.163
-729.862
-730.561
-731.258
-731.955
-732.65
-733.345
-734.039
-734.732
-735.424
-736.116
-736.806
-737.495
-738.184
-738.871
-739.558
-740.243
-740.928
-741.612
-742.295
-742.977
-743.658
-744.338
-745.017
-745.695
-746.372
-747.048
-747.723
-748.398
-749.071
-749.743
-750.415
-751.085
-751.755
-752.423
-753.09
-753.757
-754.422
-755.087
-755.75
-756.413
-757.074
-757.735
-758.394
-759.053
-759.711
-760.367
-761.023
-761.677
-645.569
-646.349
-647.129
-647.909
-648.688
-649.466
-650.244
-651.022
-651.799
-652.576
-653.352
-654.127
-654.903
-655.677
-656.451
-657.225
-657.998
-658.77
-659.542
-660.313
-661.084
-661.854
-662.624
-663.393
-664.162
-664.93
-665.697
-666.464
-667.231
-667.996
-668.761
-669.526
-670.29
-671.053
-671.815
-672.577
-673.339
-674.099
-674.86
-675.619
-676.378
-677.137
-677.895
-678.652
-679.408
-680.164
-680.92
-681.674
-682.428
-683.182
-683.935
-684.687
-685.438
-686.189
-686.939
-687.689
-688.437
-689.185
-689.933
-690.68
-691.426
-692.171
-692.916
-693.66
-694.403
-695.146
-695.888
-696.629
-697.369
-698.109
-698.848
-699.586
-700.324
-701.061
-701.797
-702.532
-703.267
-704
-704.734
-705.466
-706.197
-706.928
-707.658
-708.388
-709.116
-709.844
-710.571
-711.297
-712.022
-712.747
-713.471
-714.194
-714.916
-715.637
-716.358
-717.078
-717.797
-718.515
-719.232
-719.948
-720.664
-721.379
-722.093
-722.806
-723.518
-724.23
-724.94
-725.65
-726.359
-727.067
-727.774
-728.481
-729.186
-729.891
-730.594
-731.297
-731.999
-732.7
-733.401
-734.1
-734.798
-735.496
-736.192
-736.888
-737.583
-738.277
-738.97
-739.662
-740.353
-741.044
-741.733
-742.421
-743.109
-743.795
-744.481
-745.166
-745.85
-746.532
-747.214
-747.895
-748.575
-749.254
-749.932
-750.61
-751.286
-751.961
-752.635
-753.309
-753.981
-754.652
-755.323
-755.992
-756.661
-757.328
-757.994
-758.66
-759.324
-759.988
-760.65
-761.312
-761.972
-762.632
-763.29
-763.948
-764.604
-765.26
-765.915
-766.568
-767.221
-767.872
-768.522
-769.172
-769.82
-770.468
-771.114
-771.759
-772.403
-773.047
-773.689
-774.33
-774.97
-775.609
-776.247
-776.884
-650.588
-651.367
-652.147
-652.926
-653.704
-654.482
-655.26
-656.037
-656.814
-657.59
-658.365
-659.14
-659.915
-660.689
-661.463
-662.235
-663.008
-663.78
-664.551
-665.322
-666.092
-666.862
-667.631
-668.4
-669.168
-669.935
-670.702
-671.468
-672.234
-672.999
-673.764
-674.527
-675.291
-676.053
-676.815
-677.576
-678.337
-679.098
-679.857
-680.616
-681.375
-682.133
-682.89
-683.646
-684.402
-685.158
-685.912
-686.666
-687.42
-688.172
-688.925
-689.676
-690.427
-691.177
-691.926
-692.675
-693.423
-694.171
-694.918
-695.664
-696.409
-697.154
-697.898
-698.641
-699.384
-700.125
-700.867
-701.607
-702.347
-703.086
-703.824
-704.562
-705.298
-706.034
-706.77
-707.504
-708.238
-708.971
-709.704
-710.435
-711.166
-711.896
-712.625
-713.354
-714.082
-714.809
-715.535
-716.26
-716.985
-717.708
-718.431
-719.154
-719.875
-720.596
-721.315
-722.034
-722.752
-723.47
-724.186
-724.902
-725.617
-726.331
-727.044
-727.756
-728.468
-729.178
-729.888
-730.597
-731.305
-732.012
-732.719
-733.424
-734.129
-734.832
-735.535
-736.237
-736.938
-737.638
-738.338
-739.036
-739.734
-740.43
-741.126
-741.821
-742.515
-743.208
-743.9
-744.591
-745.281
-745.971
-746.659
-747.347
-748.033
-748.719
-749.404
-750.087
-750.77
-751.452
-752.133
-752.813
-753.492
-754.17
-754.847
-755.523
-756.199
-756.873
-757.546
-758.219
-758.89
-759.56
-760.23
-760.898
-761.566
-762.232
-762.898
-763.562
-764.226
-764.888
-765.55
-766.21
-766.87
-767.528
-768.186
-768.842
-769.498
-770.152
-770.806
-771.458
-772.109
-772.76
-773.409
-774.057
-774.705
-775.351
-775.996
-776.641
-777.284
-777.926
-778.567
-779.207
-779.846
-780.484
-781.121
-655.605
-656.385
-657.164
-657.942
-658.72
-659.498
-660.275
-661.052
-661.828
-662.603
-663.378
-664.153
-664.927
-665.7
-666.473
-667.246
-668.018
-668.789
-669.56
-670.33
-671.1
-671.869
-672.638
-673.406
-674.173
-674.94
-675.706
-676.472
-677.237
-678.001
-678.765
-679.528
-680.291
-681.053
-681.814
-682.575
-683.335
-684.095
-684.854
-685.613
-686.37
-687.128
-687.884
-688.64
-689.395
-690.15
-690.904
-691.658
-692.41
-693.162
-693.914
-694.665
-695.415
-696.164
-696.913
-697.661
-698.409
-699.155
-699.901
-700.647
-701.391
-702.135
-702.879
-703.621
-704.363
-705.104
-705.845
-706.585
-707.324
-708.062
-708.799
-709.536
-710.272
-711.008
-711.742
-712.476
-713.209
-713.942
-714.673
-715.404
-716.134
-716.863
-717.592
-718.319
-719.046
-719.773
-720.498
-721.222
-721.946
-722.669
-723.391
-724.113
-724.833
-725.553
-726.272
-726.99
-727.708
-728.424
-729.14
-729.855
-730.569
-731.282
-731.994
-732.705
-733.416
-734.126
-734.835
-735.543
-736.25
-736.956
-737.662
-738.366
-739.07
-739.773
-740.475
-741.176
-741.876
-742.575
-743.274
-743.971
-744.668
-745.364
-746.059
-746.753
-747.446
-748.138
-748.829
-749.519
-750.208
-750.897
-751.584
-752.271
-752.957
-753.641
-754.325
-755.008
-755.69
-756.371
-757.051
-757.73
-758.408
-759.085
-759.761
-760.436
-761.111
-761.784
-762.456
-763.128
-763.798
-764.467
-765.136
-765.803
-766.47
-767.135
-767.8
-768.463
-769.126
-769.787
-770.448
-771.107
-771.766
-772.423
-773.08
-773.735
-774.39
-775.043
-775.695
-776.347
-776.997
-777.647
-778.295
-778.942
-779.588
-780.234
-780.878
-781.521
-782.163
-782.804
-783.444
-784.083
-784.721
-785.358
-659.843
-660.622
-661.401
-662.18
-662.958
-663.736
-664.513
-665.289
-666.065
-666.841
-667.616
-668.391
-669.165
-669.938
-670.711
-671.484
-672.256
-673.027
-673.798
-674.568
-675.338
-676.107
-676.875
-677.643
-678.411
-679.178
-679.944
-680.71
-681.475
-682.239
-683.003
-683.766
-684.529
-685.291
-686.052
-686.813
-687.573
-688.333
-689.092
-689.85
-690.608
-691.365
-692.122
-692.878
-693.633
-694.388
-695.142
-695.895
-696.648
-697.4
-698.152
-698.902
-699.653
-700.402
-701.151
-701.899
-702.646
-703.393
-704.139
-704.885
-705.629
-706.373
-707.117
-707.859
-708.601
-709.342
-710.083
-710.822
-711.561
-712.3
-713.037
-713.774
-714.51
-715.245
-715.98
-716.714
-717.447
-718.179
-718.911
-719.642
-720.372
-721.101
-721.83
-722.557
-723.284
-724.01
-724.736
-725.46
-726.184
-726.907
-727.629
-728.351
-729.071
-729.791
-730.51
-731.228
-731.945
-732.662
-733.377
-734.092
-734.806
-735.519
-736.232
-736.943
-737.654
-738.364
-739.073
-739.781
-740.488
-741.194
-741.9
-742.604
-743.308
-744.011
-744.713
-745.414
-746.114
-746.813
-747.512
-748.209
-748.906
-749.602
-750.296
-750.99
-751.683
-752.375
-753.067
-753.757
-754.446
-755.135
-755.822
-756.509
-757.194
-757.879
-758.563
-759.246
-759.928
-760.608
-761.288
-761.968
-762.646
-763.323
-763.999
-764.674
-765.348
-766.022
-766.694
-767.365
-768.036
-768.705
-769.374
-770.041
-770.708
-771.373
-772.037
-772.701
-773.363
-774.025
-774.685
-775.345
-776.003
-776.661
-777.317
-777.973
-778.627
-779.281
-779.933
-780.584
-781.235
-781.884
-782.532
-783.18
-783.826
-784.471
-785.115
-785.758
-786.4
-787.041
-787.681
-788.32
-788.958
-789.595
-664.861
-665.639
-666.418
-667.196
-667.974
-668.751
-669.527
-670.303
-671.079
-671.854
-672.629
-673.403
-674.176
-674.949
-675.721
-676.493
-677.265
-678.036
-678.806
-679.576
-680.345
-681.113
-681.881
-682.649
-683.416
-684.182
-684.947
-685.712
-686.477
-687.241
-688.004
-688.767
-689.529
-690.29
-691.051
-691.811
-692.571
-693.33
-694.088
-694.846
-695.603
-696.36
-697.116
-697.871
-698.626
-699.38
-700.133
-700.886
-701.638
-702.389
-703.14
-703.89
-704.64
-705.389
-706.137
-706.884
-707.631
-708.377
-709.122
-709.867
-710.611
-711.354
-712.097
-712.839
-713.58
-714.32
-715.06
-715.799
-716.537
-717.275
-718.012
-718.748
-719.483
-720.218
-720.952
-721.685
-722.417
-723.149
-723.88
-724.61
-725.339
-726.067
-726.795
-727.522
-728.248
-728.974
-729.698
-730.422
-731.145
-731.867
-732.588
-733.309
-734.029
-734.748
-735.466
-736.183
-736.9
-737.615
-738.33
-739.044
-739.757
-740.47
-741.181
-741.892
-742.601
-743.31
-744.018
-744.726
-745.432
-746.137
-746.842
-747.546
-748.249
-748.95
-749.652
-750.352
-751.051
-751.749
-752.447
-753.144
-753.839
-754.534
-755.228
-755.921
-756.613
-757.304
-757.995
-758.684
-759.372
-760.06
-760.746
-761.432
-762.117
-762.801
-763.483
-764.165
-764.846
-765.526
-766.205
-766.883
-767.561
-768.237
-768.912
-769.586
-770.26
-770.932
-771.603
-772.274
-772.943
-773.611
-774.279
-774.945
-775.611
-776.275
-776.939
-777.601
-778.263
-778.923
-779.582
-780.241
-780.898
-781.555
-782.21
-782.865
-783.518
-784.171
-784.822
-785.472
-786.121
-786.77
-787.417
-788.063
-788.708
-789.352
-789.995
-790.637
-791.278
-791.918
-792.557
-793.195
-793.832
-669.877
-670.656
-671.434
-672.212
-672.989
-673.765
-674.541
-675.317
-676.092
-676.866
-677.64
-678.414
-679.187
-679.959
-680.731
-681.503
-682.273
-683.044
-683.813
-684.583
-685.351
-686.119
-686.886
-687.653
-688.42
-689.185
-689.95
-690.715
-691.479
-692.242
-693.004
-693.766
-694.528
-695.289
-696.049
-696.809
-697.568
-698.326
-699.084
-699.841
-700.598
-701.354
-702.109
-702.864
-703.618
-704.371
-705.124
-705.876
-706.627
-707.378
-708.128
-708.878
-709.626
-710.375
-711.122
-711.869
-712.615
-713.36
-714.105
-714.849
-715.592
-716.335
-717.077
-717.818
-718.558
-719.298
-720.037
-720.775
-721.513
-722.25
-722.986
-723.721
-724.456
-725.19
-725.923
-726.655
-727.387
-728.117
-728.847
-729.577
-730.305
-731.033
-731.76
-732.486
-733.211
-733.936
-734.66
-735.383
-736.105
-736.826
-737.547
-738.267
-738.986
-739.704
-740.421
-741.137
-741.853
-742.568
-743.282
-743.995
-744.707
-745.419
-746.129
-746.839
-747.548
-748.256
-748.963
-749.67
-750.375
-751.08
-751.783
-752.486
-753.188
-753.889
-754.59
-755.289
-755.987
-756.685
-757.381
-758.077
-758.772
-759.466
-760.159
-760.851
-761.542
-762.232
-762.922
-763.61
-764.298
-764.984
-765.67
-766.355
-767.038
-767.721
-768.403
-769.084
-769.764
-770.443
-771.121
-771.798
-772.474
-773.15
-773.824
-774.497
-775.17
-775.841
-776.511
-777.181
-777.849
-778.516
-779.183
-779.848
-780.513
-781.176
-781.839
-782.5
-783.161
-783.82
-784.479
-785.136
-785.792
-786.448
-787.102
-787.756
-788.408
-789.059
-789.71
-790.359
-791.007
-791.654
-792.3
-792.946
-793.59
-794.233
-794.874
-795.515
-796.155
-796.794
-797.432
-798.069
-674.116
-674.894
-675.672
-676.449
-677.226
-678.003
-678.779
-679.555
-680.33
-681.104
-681.878
-682.652
-683.425
-684.197
-684.969
-685.74
-686.511
-687.282
-688.051
-688.82
-689.589
-690.357
-691.124
-691.891
-692.657
-693.423
-694.188
-694.953
-695.716
-696.48
-697.242
-698.004
-698.766
-699.527
-700.287
-701.046
-701.806
-702.564
-703.322
-704.079
-704.836
-705.591
-706.347
-707.101
-707.855
-708.609
-709.362
-710.114
-710.865
-711.616
-712.366
-713.116
-713.864
-714.612
-715.36
-716.107
-716.853
-717.598
-718.343
-719.087
-719.83
-720.573
-721.315
-722.056
-722.796
-723.536
-724.275
-725.013
-725.751
-726.487
-727.224
-727.959
-728.693
-729.427
-730.16
-730.893
-731.624
-732.355
-733.085
-733.814
-734.543
-735.271
-735.998
-736.724
-737.449
-738.174
-738.898
-739.62
-740.343
-741.064
-741.785
-742.504
-743.223
-743.941
-744.659
-745.375
-746.091
-746.806
-747.52
-748.233
-748.945
-749.657
-750.367
-751.077
-751.786
-752.494
-753.201
-753.907
-754.613
-755.318
-756.021
-756.724
-757.426
-758.127
-758.827
-759.527
-760.225
-760.923
-761.619
-762.315
-763.01
-763.704
-764.397
-765.089
-765.78
-766.47
-767.16
-767.848
-768.535
-769.222
-769.908
-770.592
-771.276
-771.959
-772.641
-773.322
-774.002
-774.681
-775.359
-776.036
-776.712
-777.387
-778.062
-778.735
-779.407
-780.079
-780.749
-781.418
-782.087
-782.754
-783.421
-784.086
-784.751
-785.414
-786.076
-786.738
-787.398
-788.058
-788.716
-789.374
-790.03
-790.685
-791.34
-791.993
-792.646
-793.297
-793.947
-794.596
-795.244
-795.892
-796.538
-797.183
-797.827
-798.47
-799.112
-799.753
-800.392
-801.031
-801.669
-802.305
-679.132
-679.91
-680.687
-681.464
-682.241
-683.017
-683.793
-684.568
-685.342
-686.116
-686.89
-687.663
-688.435
-689.207
-689.978
-690.749
-691.519
-692.289
-693.058
-693.827
-694.595
-695.362
-696.129
-696.895
-697.661
-698.426
-699.19
-699.954
-700.718
-701.48
-702.242
-703.004
-703.764
-704.525
-705.284
-706.043
-706.802
-707.56
-708.317
-709.073
-709.829
-710.585
-711.339
-712.093
-712.847
-713.599
-714.352
-715.103
-715.854
-716.604
-717.353
-718.102
-718.85
-719.598
-720.344
-721.091
-721.836
-722.581
-723.325
-724.068
-724.81
-725.552
-726.293
-727.034
-727.774
-728.513
-729.251
-729.989
-730.725
-731.461
-732.197
-732.931
-733.665
-734.398
-735.131
-735.862
-736.593
-737.323
-738.052
-738.781
-739.508
-740.235
-740.962
-741.687
-742.412
-743.135
-743.858
-744.58
-745.302
-746.022
-746.742
-747.461
-748.179
-748.897
-749.613
-750.329
-751.044
-751.758
-752.471
-753.183
-753.894
-754.605
-755.315
-756.024
-756.732
-757.439
-758.145
-758.851
-759.555
-760.259
-760.962
-761.664
-762.365
-763.065
-763.764
-764.463
-765.16
-765.857
-766.553
-767.248
-767.941
-768.634
-769.327
-770.018
-770.708
-771.397
-772.086
-772.773
-773.46
-774.145
-774.83
-775.514
-776.197
-776.879
-777.56
-778.24
-778.919
-779.597
-780.274
-780.95
-781.625
-782.299
-782.973
-783.645
-784.316
-784.987
-785.656
-786.325
-786.992
-787.658
-788.324
-788.988
-789.652
-790.314
-790.976
-791.636
-792.295
-792.954
-793.611
-794.268
-794.923
-795.577
-796.231
-796.883
-797.534
-798.185
-798.834
-799.482
-800.129
-800.775
-801.42
-802.064
-802.707
-803.349
-803.99
-804.629
-805.268
-805.906
-806.542
-684.148
-684.925
-685.702
-686.479
-687.255
-688.03
-688.806
-689.58
-690.354
-691.128
-691.901
-692.673
-693.445
-694.216
-694.987
-695.757
-696.527
-697.296
-698.065
-698.833
-699.6
-700.367
-701.133
-701.899
-702.664
-703.428
-704.192
-704.955
-705.718
-706.48
-707.241
-708.002
-708.763
-709.522
-710.281
-711.04
-711.797
-712.555
-713.311
-714.067
-714.822
-715.577
-716.331
-717.085
-717.837
-718.589
-719.341
-720.092
-720.842
-721.591
-722.34
-723.088
-723.836
-724.582
-725.328
-726.074
-726.818
-727.562
-728.306
-729.048
-729.79
-730.531
-731.272
-732.011
-732.751
-733.489
-734.226
-734.963
-735.699
-736.435
-737.169
-737.903
-738.636
-739.368
-740.1
-740.831
-741.561
-742.29
-743.019
-743.746
-744.473
-745.199
-745.925
-746.649
-747.373
-748.096
-748.818
-749.54
-750.26
-750.98
-751.699
-752.417
-753.134
-753.851
-754.567
-755.281
-755.995
-756.708
-757.421
-758.132
-758.843
-759.553
-760.262
-760.97
-761.677
-762.383
-763.089
-763.793
-764.497
-765.2
-765.902
-766.603
-767.303
-768.002
-768.701
-769.398
-770.095
-770.791
-771.485
-772.179
-772.872
-773.564
-774.256
-774.946
-775.635
-776.324
-777.011
-777.698
-778.383
-779.068
-779.752
-780.435
-781.116
-781.797
-782.477
-783.156
-783.834
-784.512
-785.188
-785.863
-786.537
-787.211
-787.883
-788.554
-789.224
-789.894
-790.562
-791.23
-791.896
-792.562
-793.226
-793.889
-794.552
-795.213
-795.874
-796.533
-797.191
-797.849
-798.505
-799.161
-799.815
-800.468
-801.121
-801.772
-802.422
-803.071
-803.719
-804.366
-805.012
-805.657
-806.301
-806.944
-807.586
-808.227
-808.866
-809.505
-810.143
-810.779
-689.163
-689.94
-690.717
-691.493
-692.268
-693.043
-693.818
-694.592
-695.365
-696.138
-696.911
-697.683
-698.454
-699.225
-699.995
-700.765
-701.534
-702.302
-703.07
-703.838
-704.605
-705.371
-706.137
-706.902
-707.666
-708.43
-709.193
-709.956
-710.718
-711.479
-712.24
-713
-713.76
-714.519
-715.277
-716.035
-716.792
-717.549
-718.305
-719.06
-719.815
-720.569
-721.322
-722.075
-722.827
-723.579
-724.329
-725.08
-725.829
-726.578
-727.326
-728.073
-728.82
-729.566
-730.312
-731.056
-731.8
-732.544
-733.286
-734.028
-734.769
-735.51
-736.249
-736.988
-737.727
-738.464
-739.201
-739.937
-740.672
-741.407
-742.141
-742.874
-743.606
-744.338
-745.069
-745.799
-746.528
-747.256
-747.984
-748.711
-749.437
-750.163
-750.887
-751.611
-752.334
-753.056
-753.778
-754.498
-755.218
-755.937
-756.655
-757.372
-758.089
-758.804
-759.519
-760.233
-760.946
-761.659
-762.37
-763.081
-763.79
-764.499
-765.207
-765.915
-766.621
-767.326
-768.031
-768.735
-769.438
-770.139
-770.841
-771.541
-772.24
-772.938
-773.636
-774.333
-775.028
-775.723
-776.417
-777.11
-777.802
-778.493
-779.184
-779.873
-780.561
-781.249
-781.935
-782.621
-783.306
-783.99
-784.672
-785.354
-786.035
-786.715
-787.394
-788.072
-788.749
-789.426
-790.101
-790.775
-791.448
-792.121
-792.792
-793.462
-794.132
-794.8
-795.467
-796.134
-796.799
-797.464
-798.127
-798.789
-799.451
-800.111
-800.771
-801.429
-802.087
-802.743
-803.398
-804.053
-804.706
-805.358
-806.009
-806.66
-807.309
-807.957
-808.604
-809.25
-809.895
-810.539
-811.182
-811.823
-812.464
-813.104
-813.742
-814.38
-815.016
-693.402
-694.178
-694.955
-695.731
-696.506
-697.281
-698.056
-698.83
-699.603
-700.376
-701.149
-701.921
-702.692
-703.463
-704.233
-705.003
-705.772
-706.54
-707.308
-708.076
-708.843
-709.609
-710.374
-711.139
-711.904
-712.668
-713.431
-714.194
-714.956
-715.717
-716.478
-717.238
-717.998
-718.757
-719.515
-720.273
-721.03
-721.787
-722.543
-723.298
-724.053
-724.807
-725.56
-726.313
-727.065
-727.817
-728.567
-729.317
-730.067
-730.816
-731.564
-732.311
-733.058
-733.804
-734.549
-735.294
-736.038
-736.781
-737.524
-738.266
-739.007
-739.747
-740.487
-741.226
-741.964
-742.702
-743.439
-744.175
-744.91
-745.645
-746.379
-747.112
-747.844
-748.576
-749.306
-750.036
-750.766
-751.494
-752.222
-752.949
-753.675
-754.4
-755.125
-755.849
-756.572
-757.294
-758.015
-758.736
-759.456
-760.175
-760.893
-761.61
-762.327
-763.042
-763.757
-764.471
-765.184
-765.896
-766.608
-767.318
-768.028
-768.737
-769.445
-770.152
-770.859
-771.564
-772.269
-772.972
-773.675
-774.377
-775.078
-775.779
-776.478
-777.176
-777.874
-778.57
-779.266
-779.961
-780.655
-781.348
-782.04
-782.731
-783.421
-784.111
-784.799
-785.487
-786.173
-786.859
-787.544
-788.227
-788.91
-789.592
-790.273
-790.953
-791.632
-792.31
-792.987
-793.663
-794.339
-795.013
-795.686
-796.358
-797.03
-797.7
-798.369
-799.038
-799.705
-800.372
-801.037
-801.701
-802.365
-803.027
-803.689
-804.349
-805.008
-805.667
-806.324
-806.981
-807.636
-808.29
-808.943
-809.596
-810.247
-810.897
-811.546
-812.194
-812.841
-813.487
-814.132
-814.776
-815.419
-816.06
-816.701
-817.341
-817.979
-818.616
-819.253
-698.417
-699.193
-699.969
-700.744
-701.519
-702.294
-703.068
-703.841
-704.614
-705.387
-706.159
-706.93
-707.701
-708.471
-709.241
-710.01
-710.778
-711.546
-712.314
-713.08
-713.847
-714.612
-715.377
-716.142
-716.906
-717.669
-718.432
-719.194
-719.955
-720.716
-721.476
-722.236
-722.995
-723.753
-724.511
-725.268
-726.025
-726.781
-727.536
-728.291
-729.045
-729.798
-730.551
-731.303
-732.054
-732.805
-733.555
-734.305
-735.054
-735.802
-736.549
-737.296
-738.042
-738.787
-739.532
-740.276
-741.019
-741.762
-742.504
-743.245
-743.985
-744.725
-745.464
-746.202
-746.94
-747.677
-748.413
-749.148
-749.883
-750.616
-751.35
-752.082
-752.813
-753.544
-754.274
-755.004
-755.732
-756.46
-757.187
-757.913
-758.638
-759.363
-760.087
-760.81
-761.532
-762.253
-762.974
-763.693
-764.412
-765.131
-765.848
-766.564
-767.28
-767.995
-768.709
-769.422
-770.134
-770.846
-771.556
-772.266
-772.975
-773.683
-774.39
-775.097
-775.802
-776.507
-777.21
-777.913
-778.615
-779.316
-780.016
-780.716
-781.414
-782.112
-782.808
-783.504
-784.199
-784.893
-785.586
-786.278
-786.969
-787.659
-788.349
-789.037
-789.724
-790.411
-791.097
-791.781
-792.465
-793.148
-793.83
-794.511
-795.191
-795.87
-796.548
-797.225
-797.901
-798.576
-799.251
-799.924
-800.596
-801.267
-801.938
-802.607
-803.275
-803.943
-804.609
-805.275
-805.939
-806.602
-807.265
-807.926
-808.587
-809.246
-809.904
-810.562
-811.218
-811.873
-812.528
-813.181
-813.833
-814.484
-815.135
-815.784
-816.432
-817.079
-817.725
-818.369
-819.013
-819.656
-820.298
-820.938
-821.578
-822.216
-822.853
-823.49
-703.43
-704.207
-704.982
-705.757
-706.532
-707.306
-708.079
-708.852
-709.625
-710.396
-711.168
-711.939
-712.709
-713.478
-714.248
-715.016
-715.784
-716.551
-717.318
-718.085
-718.85
-719.615
-720.38
-721.144
-721.907
-722.669
-723.431
-724.193
-724.954
-725.714
-726.474
-727.233
-727.991
-728.749
-729.506
-730.263
-731.019
-731.774
-732.529
-733.283
-734.036
-734.789
-735.541
-736.292
-737.043
-737.793
-738.543
-739.291
-740.039
-740.787
-741.534
-742.28
-743.025
-743.77
-744.514
-745.257
-746
-746.742
-747.483
-748.223
-748.963
-749.702
-750.44
-751.178
-751.914
-752.651
-753.386
-754.12
-754.854
-755.587
-756.32
-757.051
-757.782
-758.512
-759.241
-759.97
-760.698
-761.425
-762.151
-762.876
-763.601
-764.324
-765.047
-765.77
-766.491
-767.212
-767.931
-768.65
-769.368
-770.086
-770.802
-771.518
-772.233
-772.947
-773.66
-774.372
-775.084
-775.794
-776.504
-777.213
-777.921
-778.628
-779.334
-780.04
-780.744
-781.448
-782.151
-782.853
-783.554
-784.254
-784.953
-785.652
-786.349
-787.046
-787.742
-788.437
-789.131
-789.824
-790.516
-791.207
-791.897
-792.586
-793.275
-793.962
-794.649
-795.334
-796.019
-796.703
-797.386
-798.068
-798.749
-799.429
-800.108
-800.786
-801.463
-802.139
-802.814
-803.488
-804.162
-804.834
-805.505
-806.176
-806.845
-807.513
-808.181
-808.847
-809.512
-810.177
-810.84
-811.503
-812.164
-812.824
-813.484
-814.142
-814.799
-815.456
-816.111
-816.765
-817.419
-818.071
-818.722
-819.372
-820.021
-820.669
-821.316
-821.962
-822.607
-823.251
-823.893
-824.535
-825.175
-825.815
-826.453
-827.09
-827.727
-707.669
-708.444
-709.22
-709.995
-710.77
-711.544
-712.317
-713.09
-713.862
-714.634
-715.406
-716.176
-716.947
-717.716
-718.485
-719.254
-720.022
-720.789
-721.556
-722.322
-723.088
-723.853
-724.618
-725.381
-726.145
-726.907
-727.669
-728.431
-729.192
-729.952
-730.711
-731.471
-732.229
-732.987
-733.744
-734.5
-735.256
-736.012
-736.766
-737.52
-738.274
-739.027
-739.779
-740.53
-741.281
-742.031
-742.78
-743.529
-744.277
-745.025
-745.771
-746.518
-747.263
-748.008
-748.752
-749.495
-750.237
-750.979
-751.721
-752.461
-753.201
-753.94
-754.678
-755.415
-756.152
-756.888
-757.624
-758.358
-759.092
-759.825
-760.558
-761.289
-762.02
-762.75
-763.479
-764.208
-764.935
-765.662
-766.389
-767.114
-767.838
-768.562
-769.285
-770.007
-770.729
-771.449
-772.169
-772.888
-773.606
-774.323
-775.04
-775.756
-776.47
-777.184
-777.898
-778.61
-779.321
-780.032
-780.742
-781.451
-782.159
-782.866
-783.572
-784.278
-784.982
-785.686
-786.389
-787.091
-787.792
-788.492
-789.191
-789.89
-790.587
-791.284
-791.98
-792.674
-793.368
-794.061
-794.753
-795.445
-796.135
-796.824
-797.513
-798.2
-798.887
-799.572
-800.257
-800.941
-801.624
-802.305
-802.986
-803.666
-804.345
-805.023
-805.701
-806.377
-807.052
-807.726
-808.399
-809.072
-809.743
-810.413
-811.083
-811.751
-812.418
-813.085
-813.75
-814.415
-815.078
-815.74
-816.402
-817.062
-817.721
-818.38
-819.037
-819.693
-820.349
-821.003
-821.656
-822.308
-822.959
-823.61
-824.259
-824.907
-825.554
-826.199
-826.844
-827.488
-828.131
-828.772
-829.413
-830.052
-830.69
-831.327
-831.964
-712.683
-713.458
-714.233
-715.008
-715.782
-716.555
-717.328
-718.1
-718.872
-719.644
-720.414
-721.185
-721.954
-722.723
-723.492
-724.26
-725.027
-725.794
-726.56
-727.326
-728.091
-728.855
-729.619
-730.382
-731.145
-731.907
-732.669
-733.429
-734.19
-734.949
-735.708
-736.467
-737.225
-737.982
-738.738
-739.494
-740.25
-741.004
-741.758
-742.512
-743.264
-744.016
-744.768
-745.519
-746.269
-747.018
-747.767
-748.515
-749.263
-750.009
-750.755
-751.501
-752.245
-752.989
-753.733
-754.475
-755.217
-755.958
-756.699
-757.439
-758.178
-758.916
-759.653
-760.39
-761.126
-761.862
-762.596
-763.33
-764.063
-764.795
-765.527
-766.258
-766.988
-767.717
-768.446
-769.173
-769.9
-770.626
-771.352
-772.076
-772.8
-773.523
-774.245
-774.967
-775.687
-776.407
-777.126
-777.844
-778.561
-779.278
-779.993
-780.708
-781.422
-782.135
-782.848
-783.559
-784.27
-784.98
-785.688
-786.396
-787.104
-787.81
-788.515
-789.22
-789.924
-790.627
-791.329
-792.03
-792.73
-793.429
-794.128
-794.825
-795.522
-796.217
-796.912
-797.606
-798.299
-798.991
-799.682
-800.373
-801.062
-801.75
-802.438
-803.124
-803.81
-804.495
-805.179
-805.861
-806.543
-807.224
-807.904
-808.583
-809.261
-809.938
-810.614
-811.29
-811.964
-812.637
-813.309
-813.981
-814.651
-815.32
-815.989
-816.656
-817.322
-817.988
-818.652
-819.316
-819.978
-820.639
-821.3
-821.959
-822.617
-823.275
-823.931
-824.586
-825.241
-825.894
-826.546
-827.197
-827.847
-828.496
-829.144
-829.791
-830.437
-831.082
-831.725
-832.368
-833.009
-833.65
-834.289
-834.927
-835.564
-836.201
-717.696
-718.471
-719.245
-720.019
-720.793
-721.566
-722.338
-723.11
-723.881
-724.652
-725.422
-726.192
-726.961
-727.73
-728.498
-729.265
-730.032
-730.798
-731.564
-732.329
-733.093
-733.857
-734.62
-735.383
-736.145
-736.906
-737.667
-738.428
-739.187
-739.946
-740.705
-741.462
-742.22
-742.976
-743.732
-744.487
-745.242
-745.996
-746.75
-747.502
-748.254
-749.006
-749.757
-750.507
-751.256
-752.005
-752.753
-753.5
-754.247
-754.993
-755.739
-756.483
-757.227
-757.971
-758.713
-759.455
-760.196
-760.937
-761.676
-762.415
-763.154
-763.891
-764.628
-765.364
-766.099
-766.834
-767.568
-768.301
-769.033
-769.765
-770.496
-771.226
-771.955
-772.683
-773.411
-774.138
-774.864
-775.59
-776.314
-777.038
-777.761
-778.483
-779.204
-779.925
-780.645
-781.364
-782.082
-782.799
-783.516
-784.231
-784.946
-785.66
-786.373
-787.086
-787.797
-788.508
-789.217
-789.926
-790.634
-791.341
-792.048
-792.753
-793.458
-794.162
-794.864
-795.566
-796.267
-796.968
-797.667
-798.365
-799.063
-799.76
-800.455
-801.15
-801.844
-802.537
-803.229
-803.92
-804.61
-805.3
-805.988
-806.676
-807.362
-808.048
-808.733
-809.416
-810.099
-810.781
-811.462
-812.142
-812.821
-813.499
-814.176
-814.852
-815.527
-816.202
-816.875
-817.547
-818.218
-818.889
-819.558
-820.227
-820.894
-821.56
-822.226
-822.89
-823.553
-824.216
-824.877
-825.537
-826.197
-826.855
-827.512
-828.169
-828.824
-829.478
-830.131
-830.784
-831.435
-832.085
-832.734
-833.382
-834.028
-834.674
-835.319
-835.963
-836.605
-837.247
-837.887
-838.526
-839.164
-839.801
-840.438
-722.709
-723.483
-724.257
-725.031
-725.804
-726.576
-727.348
-728.119
-728.89
-729.66
-730.43
-731.199
-731.968
-732.736
-733.503
-734.27
-735.036
-735.802
-736.567
-737.331
-738.095
-738.858
-739.621
-740.383
-741.144
-741.905
-742.665
-743.425
-744.184
-744.943
-745.7
-746.458
-747.214
-747.97
-748.725
-749.48
-750.234
-750.987
-751.74
-752.492
-753.244
-753.994
-754.745
-755.494
-756.243
-756.991
-757.738
-758.485
-759.231
-759.976
-760.721
-761.465
-762.208
-762.951
-763.693
-764.434
-765.174
-765.914
-766.653
-767.391
-768.129
-768.866
-769.602
-770.337
-771.072
-771.806
-772.539
-773.271
-774.003
-774.733
-775.463
-776.193
-776.921
-777.649
-778.376
-779.102
-779.827
-780.552
-781.276
-781.999
-782.721
-783.442
-784.163
-784.883
-785.602
-786.32
-787.037
-787.753
-788.469
-789.184
-789.898
-790.611
-791.323
-792.035
-792.745
-793.455
-794.164
-794.872
-795.579
-796.286
-796.991
-797.696
-798.399
-799.102
-799.804
-800.505
-801.205
-801.905
-802.603
-803.301
-803.997
-804.693
-805.388
-806.082
-806.775
-807.467
-808.158
-808.848
-809.538
-810.226
-810.914
-811.6
-812.286
-812.97
-813.654
-814.337
-815.019
-815.7
-816.38
-817.059
-817.737
-818.414
-819.09
-819.765
-820.439
-821.113
-821.785
-822.456
-823.127
-823.796
-824.464
-825.132
-825.798
-826.463
-827.128
-827.791
-828.453
-829.115
-829.775
-830.435
-831.093
-831.75
-832.406
-833.062
-833.716
-834.369
-835.021
-835.672
-836.322
-836.971
-837.619
-838.266
-838.912
-839.556
-840.2
-840.842
-841.484
-842.124
-842.763
-843.402
-844.039
-844.674
-726.947
-727.721
-728.495
-729.269
-730.042
-730.814
-731.586
-732.357
-733.128
-733.898
-734.668
-735.437
-736.206
-736.974
-737.741
-738.508
-739.274
-740.04
-740.805
-741.569
-742.333
-743.096
-743.859
-744.621
-745.382
-746.143
-746.903
-747.663
-748.422
-749.18
-749.938
-750.695
-751.452
-752.208
-752.963
-753.718
-754.472
-755.225
-755.978
-756.73
-757.482
-758.232
-758.982
-759.732
-760.481
-761.229
-761.976
-762.723
-763.469
-764.214
-764.959
-765.703
-766.446
-767.189
-767.931
-768.672
-769.412
-770.152
-770.891
-771.629
-772.367
-773.104
-773.84
-774.575
-775.31
-776.044
-776.777
-777.509
-778.24
-778.971
-779.701
-780.431
-781.159
-781.887
-782.614
-783.34
-784.065
-784.79
-785.514