/*--------------------------------*- C++ -*----------------------------------*\
| =========                 |                                                 |
| \\      /  F ield         | OpenFOAM: The Open Source CFD Toolbox           |
|  \\    /   O peration     | Version:  2512                                  |
|   \\  /    A nd           | Website:  www.openfoam.com                      |
|    \\/     M anipulation  |                                                 |
\*---------------------------------------------------------------------------*/
FoamFile
{
    version     2.0;
    format      ascii;
    arch        "LSB;label=32;scalar=64";
    class       volScalarField;
    location    "0.1";
    object      pB;
}
// * * * * * * * * * * * * * * * * * * * * * * * * * * * * * * * * * * * * * //

dimensions      [1 1 -3 0 0 -1 0];

internalField   nonuniform List<scalar> 
8334
(
7.20879
7.2171
7.22564
7.2346
7.24397
7.25379
7.26406
7.27477
7.28592
7.29749
7.30945
7.32177
7.33439
7.3473
7.36043
7.37375
7.38721
7.40075
7.41432
7.42786
7.44133
7.45467
7.46783
7.48075
7.4934
7.50572
7.51767
7.52922
7.54034
7.551
7.56117
7.57087
7.58007
7.58879
7.597
7.60475
7.61207
7.61933
7.62675
7.63429
7.64186
7.64944
7.65703
7.66464
7.67227
7.6799
7.68756
7.69523
7.70294
7.71067
7.71843
7.72624
7.73408
7.74196
7.74988
7.75785
7.76586
7.77391
7.78201
7.79014
7.79832
7.80654
7.81479
7.82308
7.8314
7.83976
7.84814
7.85655
7.86499
7.87345
7.88193
7.89042
7.89893
7.90745
7.91598
7.92452
7.93306
7.9416
7.95014
7.95867
7.96719
7.97571
7.9842
7.99268
8.00113
8.00956
8.01795
8.02631
8.03464
8.04292
8.05115
8.05932
8.06744
8.07549
8.08347
8.09138
8.09919
8.10691
8.11453
8.12204
8.12942
8.13668
8.14378
8.15074
8.15752
8.16413
8.17053
8.17672
8.18268
8.18839
8.19382
8.19896
8.20379
8.20826
8.21237
8.21607
8.21934
8.22214
8.22444
8.22618
8.22734
8.22785
8.22768
8.22676
8.22505
8.22246
8.21895
8.21443
8.20883
8.20206
8.19403
8.18465
8.17381
8.1614
8.14731
8.13139
8.11353
8.09357
8.07137
8.04674
8.01952
7.98952
7.95654
7.92035
7.88074
7.83745
7.79025
7.73884
7.68295
7.62227
7.55649
7.48527
7.40825
7.32507
7.23535
7.13869
7.03467
6.92287
6.80286
6.67418
6.53638
6.38903
6.23165
6.0638
5.88506
5.69502
5.49327
5.27948
7.86667
7.87674
7.88715
7.89796
7.9092
7.92088
7.93296
7.94545
7.95834
7.97159
7.98516
7.99901
8.01311
8.02742
8.04188
8.05644
8.07105
8.08566
8.10022
8.11467
8.12896
8.14304
8.15685
8.17035
8.18349
8.19623
8.20854
8.22037
8.23172
8.24256
8.25287
8.26265
8.2719
8.28058
8.28874
8.29643
8.30395
8.31158
8.31933
8.32713
8.33495
8.3428
8.35067
8.35857
8.3665
8.37447
8.38247
8.39051
8.3986
8.40674
8.41492
8.42317
8.43146
8.43982
8.44823
8.4567
8.46522
8.4738
8.48243
8.49111
8.49984
8.50862
8.51744
8.5263
8.5352
8.54413
8.5531
8.5621
8.57113
8.58017
8.58924
8.59833
8.60743
8.61654
8.62565
8.63478
8.6439
8.65301
8.66213
8.67123
8.68031
8.68938
8.69843
8.70745
8.71645
8.7254
8.73432
8.7432
8.75203
8.76081
8.76952
8.77817
8.78675
8.79526
8.80367
8.812
8.82022
8.82833
8.83632
8.84419
8.85191
8.85948
8.86688
8.87411
8.88114
8.88796
8.89456
8.90091
8.907
8.91281
8.9183
8.92346
8.92826
8.93267
8.93666
8.9402
8.94325
8.94577
8.94771
8.94905
8.94971
8.94966
8.94884
8.94718
8.94462
8.94109
8.93651
8.93081
8.92389
8.91566
8.90603
8.89487
8.88208
8.86754
8.8511
8.83263
8.81198
8.78897
8.76345
8.73521
8.70407
8.66981
8.6322
8.59101
8.54597
8.49682
8.44326
8.385
8.32171
8.25304
8.17865
8.09815
8.01114
7.91722
7.81595
7.70688
7.58954
7.46347
7.32815
7.1831
7.0278
6.86173
6.6844
6.49528
6.2939
6.07977
5.85247
5.61161
5.35699
5.08846
4.80585
4.50914
4.19845
3.87411
3.53664
3.18683
2.82577
2.45487
2.07594
1.69125
1.30356
0.916195
0.533073
0.16986
8.52707
8.53887
8.55107
8.56372
8.57678
8.59021
8.60403
8.61823
8.63274
8.64755
8.66262
8.6779
8.69336
8.70894
8.72459
8.74027
8.75591
8.77147
8.78689
8.80211
8.81709
8.83177
8.84611
8.86006
8.87358
8.88663
8.89917
8.9112
8.92267
8.93358
8.94392
8.95368
8.96283
8.97141
8.97949
8.98732
8.9952
9.00318
9.01122
9.01929
9.02739
9.03554
9.04372
9.05195
9.06022
9.06855
9.07693
9.08537
9.09388
9.10246
9.1111
9.11982
9.1286
9.13746
9.14638
9.15537
9.16443
9.17356
9.18274
9.19198
9.20128
9.21063
9.22003
9.22948
9.23896
9.24849
9.25805
9.26764
9.27725
9.28689
9.29655
9.30623
9.31592
9.32561
9.33532
9.34502
9.35471
9.3644
9.37408
9.38374
9.39339
9.403
9.41259
9.42215
9.43167
9.44115
9.45058
9.45996
9.46927
9.47853
9.48771
9.49682
9.50584
9.51477
9.5236
9.53233
9.54093
9.54941
9.55775
9.56594
9.57397
9.58182
9.58949
9.59695
9.60419
9.61119
9.61794
9.6244
9.63057
9.63642
9.64192
9.64704
9.65175
9.65603
9.65983
9.66313
9.66587
9.66802
9.66952
9.67034
9.67041
9.66967
9.66807
9.66553
9.66198
9.65735
9.65154
9.64448
9.63605
9.62616
9.61469
9.60152
9.58653
9.56957
9.55049
9.52914
9.50534
9.47892
9.44967
9.4174
9.38187
9.34284
9.30007
9.25329
9.2022
9.14651
9.08589
9.01999
8.94846
8.87091
8.78695
8.69614
8.59804
8.49219
8.3781
8.25527
8.12317
7.98126
7.829
7.6658
7.49111
7.30434
7.10491
6.89225
6.66583
6.42511
6.16965
5.89903
5.61296
5.31121
4.9936
4.66011
4.3109
3.94631
3.56695
3.17369
2.76773
2.35065
1.92447
1.49166
1.0553
0.618944
0.199582
9.18924
9.20281
9.21685
9.23126
9.24603
9.26116
9.27663
9.2924
9.30843
9.3247
9.34115
9.35774
9.37443
9.39116
9.40788
9.42454
9.44109
9.45746
9.47361
9.48948
9.50502
9.52018
9.53493
9.5492
9.56298
9.57622
9.5889
9.60099
9.61249
9.62337
9.63364
9.64325
9.65225
9.66074
9.66892
9.67707
9.68531
9.6936
9.70193
9.71029
9.71871
9.72717
9.73569
9.74428
9.75293
9.76165
9.77045
9.77933
9.78829
9.79734
9.80647
9.81568
9.82498
9.83436
9.84383
9.85337
9.86298
9.87267
9.88242
9.89224
9.90212
9.91206
9.92204
9.93208
9.94216
9.95228
9.96243
9.97262
9.98283
9.99306
10.0033
10.0136
10.0239
10.0341
10.0444
10.0547
10.065
10.0752
10.0854
10.0957
10.1058
10.116
10.1261
10.1362
10.1462
10.1562
10.1661
10.176
10.1858
10.1955
10.2051
10.2147
10.2241
10.2335
10.2427
10.2518
10.2607
10.2695
10.2782
10.2867
10.295
10.3031
10.311
10.3186
10.326
10.3332
10.34
10.3466
10.3528
10.3586
10.364
10.369
10.3736
10.3777
10.3812
10.3842
10.3865
10.3882
10.3892
10.3894
10.3887
10.3872
10.3846
10.3811
10.3764
10.3705
10.3633
10.3546
10.3445
10.3327
10.3191
10.3037
10.2862
10.2665
10.2445
10.2199
10.1926
10.1623
10.1289
10.0921
10.0517
10.0074
9.95884
9.90584
9.84802
9.78505
9.71657
9.64219
9.56152
9.47411
9.37952
9.27728
9.16688
9.04781
8.91952
8.78144
8.63299
8.47356
8.30254
8.11927
7.92313
7.71346
7.48962
7.25098
6.99693
6.72693
6.44039
6.1369
5.8161
5.4777
5.1215
4.74751
4.3559
3.94706
3.52166
3.08069
2.62549
2.15782
1.67988
1.19446
0.704803
0.229232
9.83774
9.85273
9.86809
9.88382
9.8999
9.91633
9.93306
9.95007
9.96731
9.98475
10.0023
10.0201
10.0378
10.0556
10.0734
10.0911
10.1086
10.1259
10.1429
10.1597
10.1761
10.192
10.2076
10.2226
10.2371
10.251
10.2643
10.277
10.2891
10.3005
10.3113
10.3213
10.3308
10.3397
10.3482
10.3567
10.3652
10.3737
10.3823
10.391
10.3996
10.4084
10.4172
10.4261
10.4351
10.4442
10.4533
10.4626
10.4719
10.4814
10.4909
10.5005
10.5103
10.5201
10.53
10.5401
10.5502
10.5604
10.5706
10.581
10.5914
10.6018
10.6124
10.623
10.6336
10.6443
10.655
10.6657
10.6765
10.6873
10.6981
10.709
10.7198
10.7307
10.7415
10.7524
10.7632
10.7741
10.7849
10.7956
10.8064
10.8171
10.8278
10.8384
10.849
10.8596
10.87
10.8804
10.8908
10.901
10.9112
10.9212
10.9312
10.941
10.9507
10.9603
10.9697
10.979
10.9882
10.9971
11.0058
11.0144
11.0227
11.0308
11.0386
11.0461
11.0533
11.0602
11.0668
11.0729
11.0787
11.084
11.0888
11.0932
11.097
11.1001
11.1027
11.1045
11.1056
11.1059
11.1054
11.1039
11.1014
11.0978
11.093
11.087
11.0797
11.0708
11.0604
11.0483
11.0344
11.0185
11.0005
10.9802
10.9575
10.9321
10.9039
10.8726
10.8381
10.8001
10.7582
10.7123
10.6621
10.6072
10.5472
10.482
10.4109
10.3337
10.2499
10.1591
10.0608
9.95441
9.83951
9.71549
9.58179
9.43778
9.28284
9.11631
8.93751
8.74575
8.54032
8.32049
8.08555
7.83479
7.5675
7.28303
6.98068
6.65988
6.32015
5.96107
5.58229
5.18363
4.7651
4.32688
3.86945
3.39355
2.90028
2.39116
1.86811
1.33362
0.790624
0.25883
10.5003
10.517
10.534
10.5513
10.569
10.587
10.6052
10.6237
10.6423
10.661
10.6798
10.6987
10.7175
10.7363
10.7549
10.7734
10.7916
10.8096
10.8272
10.8444
10.8612
10.8775
10.8932
10.9084
10.923
10.9369
10.9502
10.9629
10.9748
10.986
10.9966
11.0064
11.0157
11.0247
11.0335
11.0423
11.0511
11.0599
11.0688
11.0778
11.0869
11.096
11.1052
11.1145
11.1239
11.1334
11.143
11.1527
11.1626
11.1726
11.1826
11.1928
11.2031
11.2135
11.224
11.2346
11.2453
11.256
11.2669
11.2778
11.2888
11.2999
11.311
11.3222
11.3334
11.3447
11.356
11.3674
11.3788
11.3902
11.4016
11.413
11.4244
11.4358
11.4473
11.4587
11.4701
11.4815
11.4928
11.5041
11.5154
11.5267
11.5378
11.549
11.5601
11.5711
11.582
11.5929
11.6036
11.6143
11.6249
11.6354
11.6457
11.6559
11.666
11.6759
11.6857
11.6952
11.7046
11.7138
11.7228
11.7315
11.74
11.7482
11.7561
11.7637
11.771
11.7779
11.7844
11.7904
11.7961
11.8012
11.8058
11.8098
11.8132
11.8159
11.8179
11.8192
11.8196
11.8191
11.8177
11.8152
11.8116
11.8068
11.8007
11.7932
11.7841
11.7735
11.7611
11.7467
11.7304
11.7119
11.691
11.6676
11.6414
11.6123
11.5801
11.5444
11.5051
11.4619
11.4145
11.3625
11.3057
11.2437
11.1761
11.1025
11.0225
10.9356
10.8414
10.7393
10.6289
10.5095
10.3806
10.2416
10.0917
9.93032
9.75675
9.57026
9.37008
9.15544
8.92555
8.6796
8.41682
8.13639
7.83755
7.5195
7.18152
6.823
6.44337
6.04214
5.61896
5.17364
4.70618
4.21683
3.70611
3.17487
2.62436
2.05625
1.47272
0.876398
0.288398
11.1629
11.1812
11.1998
11.2188
11.238
11.2574
11.277
11.2967
11.3166
11.3365
11.3564
11.3763
11.3961
11.4157
11.4351
11.4542
11.473
11.4915
11.5095
11.5271
11.5441
11.5606
11.5764
11.5917
11.6062
11.6201
11.6333
11.6457
11.6574
11.6684
11.6787
11.6884
11.6978
11.7069
11.716
11.7251
11.7343
11.7434
11.7527
11.762
11.7714
11.781
11.7906
11.8003
11.8102
11.8202
11.8303
11.8405
11.8509
11.8614
11.872
11.8828
11.8936
11.9046
11.9157
11.9269
11.9381
11.9495
11.961
11.9725
11.9841
11.9958
12.0075
12.0193
12.0311
12.043
12.0549
12.0669
12.0788
12.0908
12.1028
12.1148
12.1268
12.1388
12.1508
12.1627
12.1747
12.1866
12.1985
12.2103
12.2221
12.2339
12.2455
12.2572
12.2687
12.2802
12.2916
12.3029
12.3141
12.3252
12.3361
12.347
12.3577
12.3682
12.3786
12.3888
12.3989
12.4087
12.4184
12.4278
12.4369
12.4458
12.4544
12.4627
12.4707
12.4783
12.4855
12.4923
12.4987
12.5046
12.51
12.5149
12.5191
12.5228
12.5257
12.5279
12.5293
12.5298
12.5294
12.528
12.5255
12.5219
12.5171
12.5108
12.5032
12.4939
12.483
12.4703
12.4556
12.4388
12.4198
12.3983
12.3742
12.3473
12.3173
12.284
12.2473
12.2067
12.1621
12.1132
12.0595
12.0008
11.9367
11.8668
11.7907
11.7079
11.618
11.5205
11.4147
11.3003
11.1765
11.0427
10.8983
10.7427
10.5749
10.3944
10.2003
9.99177
9.76802
9.52816
9.27133
8.99663
8.70318
8.39009
8.05646
7.70145
7.32429
6.92427
6.50075
6.05321
5.58126
5.08471
4.56358
4.01817
3.44909
2.85731
2.24421
1.6117
0.962107
0.317941
11.8054
11.8251
11.8449
11.8651
11.8855
11.9061
11.9268
11.9477
11.9686
11.9896
12.0105
12.0314
12.0522
12.0727
12.0931
12.1131
12.1328
12.1521
12.1709
12.1892
12.207
12.2241
12.2407
12.2565
12.2717
12.2862
12.2999
12.3128
12.325
12.3364
12.3471
12.3573
12.367
12.3765
12.3859
12.3953
12.4047
12.4142
12.4237
12.4333
12.443
12.4529
12.4628
12.4729
12.4831
12.4935
12.504
12.5146
12.5254
12.5363
12.5474
12.5586
12.5699
12.5813
12.5929
12.6046
12.6164
12.6283
12.6402
12.6523
12.6644
12.6766
12.6889
12.7013
12.7137
12.7261
12.7386
12.7511
12.7636
12.7761
12.7887
12.8013
12.8138
12.8264
12.8389
12.8515
12.864
12.8765
12.8889
12.9013
12.9136
12.9259
12.9382
12.9503
12.9624
12.9744
12.9863
12.9982
13.0099
13.0215
13.0329
13.0443
13.0555
13.0665
13.0774
13.088
13.0985
13.1088
13.1189
13.1287
13.1383
13.1476
13.1566
13.1653
13.1736
13.1816
13.1892
13.1963
13.203
13.2092
13.2149
13.22
13.2245
13.2283
13.2314
13.2338
13.2353
13.236
13.2356
13.2343
13.2318
13.2282
13.2233
13.2169
13.2091
13.1997
13.1885
13.1755
13.1604
13.1432
13.1236
13.1016
13.0768
13.0491
13.0182
12.984
12.9461
12.9044
12.8584
12.8079
12.7526
12.692
12.6259
12.5537
12.4751
12.3896
12.2966
12.1958
12.0864
11.968
11.8398
11.7012
11.5516
11.3902
11.2162
11.0287
10.8271
10.6104
10.3776
10.1279
9.86026
9.57378
9.26744
8.94024
8.59118
8.21929
7.82366
7.40343
6.95779
6.48606
5.98767
5.46221
4.90948
4.32955
3.72277
3.08986
2.43191
1.75052
1.04772
0.34746
12.465
12.4861
12.5074
12.529
12.5507
12.5726
12.5945
12.6165
12.6386
12.6606
12.6824
12.7041
12.7256
12.7469
12.7678
12.7883
12.8084
12.828
12.8471
12.8656
12.8834
12.9006
12.9171
12.9328
12.9478
12.962
12.9755
12.9881
13
13.0111
13.0217
13.0318
13.0417
13.0514
13.0611
13.0708
13.0805
13.0904
13.1003
13.1103
13.1204
13.1307
13.1411
13.1517
13.1624
13.1733
13.1843
13.1955
13.2069
13.2184
13.23
13.2418
13.2537
13.2657
13.2779
13.2902
13.3026
13.3151
13.3277
13.3403
13.3531
13.3659
13.3788
13.3917
13.4047
13.4178
13.4308
13.4439
13.457
13.4702
13.4833
13.4964
13.5095
13.5227
13.5357
13.5488
13.5618
13.5748
13.5878
13.6007
13.6135
13.6263
13.639
13.6516
13.6642
13.6766
13.6889
13.7011
13.7132
13.7252
13.737
13.7487
13.7602
13.7716
13.7827
13.7937
13.8044
13.8149
13.8252
13.8351
13.8448
13.8542
13.8633
13.872
13.8803
13.8882
13.8957
13.9027
13.9092
13.9151
13.9205
13.9252
13.9293
13.9326
13.9351
13.9368
13.9375
13.9373
13.936
13.9335
13.9299
13.9249
13.9184
13.9105
13.9008
13.8894
13.8761
13.8606
13.843
13.8229
13.8002
13.7748
13.7463
13.7146
13.6794
13.6405
13.5975
13.5502
13.4982
13.4412
13.3788
13.3106
13.2362
13.1551
13.0669
12.971
12.8668
12.7539
12.6315
12.499
12.3557
12.2009
12.0338
11.8535
11.6593
11.4502
11.2254
10.9837
10.7242
10.446
10.1478
9.82874
9.48759
9.12326
8.73466
8.32074
7.88048
7.41294
6.91722
6.39259
5.83842
5.2543
4.64005
3.99576
3.32188
2.61922
1.88909
1.13321
0.376948
13.1229
13.1453
13.1679
13.1908
13.2138
13.2368
13.2599
13.283
13.3059
13.3288
13.3514
13.3739
13.396
13.4177
13.4391
13.46
13.4803
13.5001
13.5193
13.5379
13.5557
13.5728
13.5891
13.6046
13.6193
13.6332
13.6463
13.6586
13.6702
13.6812
13.6917
13.7019
13.712
13.722
13.732
13.742
13.7521
13.7623
13.7726
13.7831
13.7937
13.8044
13.8154
13.8264
13.8377
13.8491
13.8607
13.8725
13.8844
13.8965
13.9087
13.9211
13.9336
13.9463
13.9591
13.972
13.985
13.9981
14.0113
14.0246
14.0379
14.0514
14.0649
14.0784
14.092
14.1056
14.1193
14.1329
14.1466
14.1603
14.174
14.1877
14.2014
14.215
14.2286
14.2422
14.2558
14.2693
14.2827
14.2961
14.3094
14.3226
14.3358
14.3488
14.3618
14.3746
14.3874
14.4
14.4124
14.4247
14.4369
14.4489
14.4607
14.4723
14.4837
14.4949
14.5058
14.5165
14.5269
14.5369
14.5467
14.5562
14.5652
14.5739
14.5821
14.5899
14.5972
14.604
14.6102
14.6158
14.6208
14.625
14.6285
14.6312
14.633
14.6339
14.6337
14.6325
14.6301
14.6264
14.6213
14.6148
14.6067
14.5968
14.5852
14.5715
14.5557
14.5376
14.517
14.4938
14.4676
14.4384
14.4058
14.3697
14.3297
14.2855
14.2368
14.1833
14.1247
14.0605
13.9903
13.9137
13.8302
13.7393
13.6404
13.533
13.4165
13.2902
13.1535
13.0055
12.8456
12.6729
12.4865
12.2856
12.0692
11.8363
11.5858
11.3168
11.028
10.7183
10.3867
10.0317
9.6523
9.24718
8.81516
8.35509
7.86585
7.34638
6.79573
6.21308
5.5978
4.94945
4.26787
3.55324
2.80606
2.02736
1.21855
0.406395
13.7782
13.8019
13.8259
13.85
13.8741
13.8982
13.9222
13.9462
13.97
13.9936
14.0169
14.0399
14.0625
14.0846
14.1063
14.1274
14.1479
14.1678
14.1869
14.2054
14.2231
14.2399
14.256
14.2712
14.2856
14.2991
14.3119
14.3239
14.3352
14.3461
14.3567
14.3671
14.3774
14.3877
14.398
14.4084
14.4189
14.4295
14.4403
14.4512
14.4623
14.4736
14.485
14.4966
14.5085
14.5205
14.5326
14.545
14.5575
14.5702
14.5831
14.5961
14.6092
14.6225
14.6359
14.6494
14.663
14.6768
14.6906
14.7045
14.7184
14.7325
14.7466
14.7607
14.7749
14.7891
14.8033
14.8175
14.8318
14.846
14.8603
14.8745
14.8887
14.9029
14.917
14.9311
14.9451
14.9591
14.973
14.9869
15.0006
15.0143
15.0279
15.0414
15.0547
15.0679
15.081
15.094
15.1068
15.1194
15.1319
15.1441
15.1562
15.168
15.1797
15.191
15.2021
15.2129
15.2234
15.2335
15.2434
15.2528
15.2618
15.2704
15.2785
15.2861
15.2932
15.2996
15.3055
15.3107
15.3151
15.3188
15.3216
15.3236
15.3246
15.3245
15.3233
15.3209
15.3171
15.312
15.3054
15.2971
15.2871
15.2752
15.2612
15.245
15.2265
15.2054
15.1816
15.1548
15.1248
15.0914
15.0543
15.0132
14.9679
14.9179
14.8629
14.8027
14.7366
14.6645
14.5857
14.4998
14.4062
14.3044
14.1939
14.0739
13.9438
13.8028
13.6503
13.4853
13.3071
13.1147
12.9071
12.6835
12.4427
12.1836
11.905
11.6059
11.2849
10.9408
10.5722
10.1779
9.75645
9.30656
8.8269
8.3162
7.77322
7.19681
6.58595
5.93975
5.25756
4.53894
3.78378
2.99232
2.16524
1.30368
0.435792
14.4056
14.4304
14.4555
14.4806
14.5057
14.5308
14.5559
14.5808
14.6055
14.63
14.6542
14.678
14.7014
14.7244
14.7468
14.7686
14.7898
14.8104
14.8302
14.8492
14.8675
14.8849
14.9015
14.9172
14.932
14.946
14.9591
14.9715
14.9833
14.9946
15.0055
15.0162
15.0268
15.0374
15.048
15.0587
15.0695
15.0804
15.0915
15.1027
15.1142
15.1258
15.1376
15.1496
15.1618
15.1742
15.1868
15.1996
15.2125
15.2257
15.239
15.2525
15.2661
15.2799
15.2938
15.3078
15.3219
15.3362
15.3505
15.3649
15.3794
15.394
15.4086
15.4233
15.438
15.4528
15.4676
15.4824
15.4972
15.5119
15.5267
15.5415
15.5563
15.571
15.5857
15.6003
15.6149
15.6294
15.6438
15.6582
15.6725
15.6867
15.7008
15.7148
15.7286
15.7423
15.7559
15.7694
15.7827
15.7958
15.8087
15.8214
15.8339
15.8462
15.8582
15.87
15.8815
15.8927
15.9036
15.9141
15.9243
15.9341
15.9434
15.9524
15.9608
15.9687
15.976
15.9828
15.9889
15.9943
15.9989
16.0028
16.0058
16.0079
16.0089
16.0089
16.0078
16.0054
16.0016
15.9964
15.9897
15.9813
15.9711
15.9589
15.9446
15.9281
15.9091
15.8876
15.8632
15.8357
15.805
15.7708
15.7327
15.6906
15.644
15.5927
15.5364
15.4745
15.4067
15.3326
15.2516
15.1633
15.0672
14.9626
14.8489
14.7254
14.5915
14.4464
14.2894
14.1194
13.9358
13.7374
13.5234
13.2926
13.044
12.7764
12.4885
12.1791
11.847
11.4906
11.1086
10.6996
10.2621
9.79455
9.29555
8.76365
8.19742
7.59553
6.95673
6.27992
5.56417
4.80879
4.01338
3.17788
2.30267
1.38857
0.465124
15.053
15.079
15.1051
15.1312
15.1574
15.1834
15.2092
15.2349
15.2602
15.2853
15.3099
15.3341
15.3578
15.381
15.4036
15.4254
15.4466
15.467
15.4867
15.5055
15.5234
15.5405
15.5567
15.572
15.5864
15.5999
15.6127
15.6249
15.6365
15.6478
15.6588
15.6698
15.6806
15.6915
15.7025
15.7136
15.7248
15.7362
15.7478
15.7595
15.7715
15.7836
15.796
15.8086
15.8214
15.8344
15.8476
15.861
15.8746
15.8884
15.9023
15.9164
15.9307
15.9451
15.9596
15.9742
15.989
16.0039
16.0188
16.0338
16.0489
16.0641
16.0793
16.0946
16.1099
16.1252
16.1405
16.1559
16.1712
16.1866
16.2019
16.2172
16.2324
16.2477
16.2628
16.2779
16.293
16.308
16.3229
16.3377
16.3524
16.367
16.3814
16.3958
16.41
16.4241
16.438
16.4518
16.4653
16.4787
16.4919
16.5049
16.5176
16.53
16.5422
16.5541
16.5657
16.577
16.5879
16.5985
16.6086
16.6183
16.6275
16.6362
16.6444
16.6521
16.6591
16.6654
16.671
16.6759
16.6799
16.6831
16.6853
16.6865
16.6865
16.6854
16.683
16.6793
16.674
16.6672
16.6586
16.6482
16.6358
16.6212
16.6043
16.585
16.5629
16.5379
16.5098
16.4784
16.4433
16.4043
16.3612
16.3135
16.2609
16.2031
16.1396
16.0701
15.9941
15.911
15.8204
15.7216
15.6142
15.4974
15.3706
15.233
15.0838
14.9223
14.7475
14.5585
14.3543
14.1339
13.8961
13.6398
13.3638
13.0668
12.7474
12.4042
12.0357
11.6406
11.2171
10.7637
10.2788
9.76068
9.20785
8.61867
7.9916
7.32517
6.61805
5.86906
5.07723
4.24187
3.36263
2.43956
1.47317
0.494378
15.696
15.7231
15.7502
15.7773
15.8042
15.831
15.8575
15.8837
15.9096
15.9351
15.9601
15.9845
16.0084
16.0316
16.0542
16.076
16.097
16.1172
16.1366
16.155
16.1726
16.1892
16.2049
16.2197
16.2337
16.2469
16.2594
16.2714
16.2831
16.2944
16.3056
16.3168
16.328
16.3393
16.3506
16.3621
16.3738
16.3857
16.3978
16.4101
16.4226
16.4354
16.4483
16.4615
16.4749
16.4886
16.5024
16.5164
16.5306
16.5451
16.5596
16.5744
16.5893
16.6043
16.6194
16.6347
16.6501
16.6655
16.6811
16.6967
16.7124
16.7282
16.744
16.7598
16.7757
16.7915
16.8074
16.8233
16.8392
16.855
16.8709
16.8867
16.9024
16.9181
16.9338
16.9493
16.9648
16.9802
16.9956
17.0108
17.0259
17.0409
17.0557
17.0704
17.085
17.0994
17.1136
17.1276
17.1415
17.1551
17.1685
17.1816
17.1945
17.2071
17.2194
17.2314
17.2431
17.2544
17.2652
17.2757
17.2857
17.2953
17.3043
17.3128
17.3207
17.328
17.3346
17.3404
17.3455
17.3497
17.353
17.3553
17.3566
17.3567
17.3557
17.3533
17.3495
17.3442
17.3372
17.3285
17.3179
17.3053
17.2904
17.2732
17.2534
17.2308
17.2053
17.1766
17.1444
17.1085
17.0686
17.0244
16.9756
16.9218
16.8625
16.7975
16.7263
16.6484
16.5632
16.4703
16.3691
16.2589
16.139
16.0089
15.8676
15.7145
15.5486
15.369
15.1748
14.9648
14.7381
14.4935
14.2297
13.9454
13.6393
13.3101
12.956
12.5758
12.1676
11.7299
11.2608
10.7588
10.2219
9.64846
9.03664
8.38471
7.69099
6.9539
6.17201
5.34407
4.46911
3.54645
2.57584
1.55744
0.523538
16.3059
16.334
16.3621
16.3901
16.4179
16.4456
16.473
16.5
16.5267
16.5529
16.5787
16.6039
16.6284
16.6523
16.6755
16.698
16.7196
16.7403
16.7602
16.7791
16.7972
16.8142
16.8304
16.8456
16.86
16.8735
16.8864
16.8988
16.9107
16.9224
16.934
16.9454
16.9569
16.9684
16.9801
16.9919
17.0039
17.0161
17.0285
17.0411
17.054
17.0671
17.0804
17.094
17.1078
17.1219
17.1361
17.1506
17.1653
17.1802
17.1952
17.2104
17.2258
17.2413
17.257
17.2727
17.2886
17.3046
17.3207
17.3368
17.3531
17.3693
17.3857
17.402
17.4184
17.4348
17.4512
17.4677
17.4841
17.5005
17.5168
17.5331
17.5494
17.5656
17.5818
17.5979
17.6139
17.6298
17.6456
17.6614
17.677
17.6924
17.7078
17.723
17.738
17.7529
17.7675
17.782
17.7963
17.8104
17.8242
17.8378
17.8511
17.8641
17.8768
17.8892
17.9012
17.9129
17.9241
17.9349
17.9453
17.9551
17.9645
17.9733
17.9814
17.9889
17.9957
18.0018
18.0071
18.0115
18.0149
18.0174
18.0187
18.019
18.0179
18.0156
18.0117
18.0064
17.9993
17.9905
17.9797
17.9668
17.9516
17.934
17.9138
17.8908
17.8647
17.8354
17.8025
17.7658
17.725
17.6798
17.6299
17.5748
17.5142
17.4477
17.3748
17.295
17.2078
17.1126
17.0089
16.896
16.7732
16.6398
16.4949
16.3379
16.1677
15.9834
15.784
15.5684
15.3356
15.0842
14.813
14.5207
14.2057
13.8668
13.5021
13.1102
12.6893
12.2375
11.7532
11.2343
10.6789
10.0851
9.451
8.77455
8.0539
7.28721
6.4728
5.60913
4.69494
3.72923
2.71141
1.64133
0.552588
16.9374
16.9664
16.9953
17.024
17.0525
17.0807
17.1086
17.136
17.163
17.1895
17.2154
17.2406
17.2652
17.289
17.312
17.3342
17.3555
17.3758
17.3953
17.4138
17.4313
17.4478
17.4634
17.4782
17.4921
17.5054
17.5181
17.5303
17.5423
17.5541
17.5659
17.5776
17.5895
17.6014
17.6135
17.6258
17.6383
17.651
17.664
17.6772
17.6907
17.7044
17.7184
17.7326
17.7471
17.7617
17.7766
17.7918
17.8071
17.8226
17.8383
17.8541
17.8701
17.8863
17.9025
17.9189
17.9354
17.952
17.9687
17.9854
18.0022
18.0191
18.036
18.0529
18.0698
18.0868
18.1037
18.1206
18.1376
18.1544
18.1713
18.1881
18.2048
18.2215
18.2381
18.2546
18.2711
18.2874
18.3036
18.3197
18.3356
18.3515
18.3671
18.3826
18.3979
18.4131
18.428
18.4428
18.4573
18.4715
18.4855
18.4992
18.5126
18.5257
18.5385
18.5509
18.5629
18.5745
18.5857
18.5963
18.6065
18.6161
18.6252
18.6336
18.6414
18.6484
18.6547
18.6602
18.6647
18.6683
18.6709
18.6724
18.6727
18.6717
18.6693
18.6655
18.66
18.6529
18.6439
18.6329
18.6198
18.6043
18.5864
18.5658
18.5423
18.5157
18.4857
18.4521
18.4147
18.373
18.3268
18.2758
18.2195
18.1575
18.0895
18.0149
17.9333
17.8441
17.7467
17.6406
17.525
17.3993
17.2627
17.1144
16.9534
16.779
16.5902
16.3857
16.1647
15.9258
15.6678
15.3893
15.0891
14.7655
14.417
14.042
13.6386
13.2052
12.7397
12.2402
11.7048
11.1313
10.5175
9.86142
9.16083
8.41362
7.61773
6.7712
5.87222
4.9192
3.91083
2.84619
1.72478
0.581513
17.5626
17.5923
17.6218
17.6512
17.6802
17.7088
17.7371
17.7648
17.792
17.8186
17.8445
17.8696
17.894
17.9176
17.9403
17.9621
17.983
18.0029
18.0218
18.0397
18.0567
18.0727
18.0878
18.1021
18.1157
18.1287
18.1413
18.1536
18.1657
18.1777
18.1898
18.2019
18.2141
18.2265
18.2391
18.2519
18.2649
18.2782
18.2918
18.3056
18.3197
18.3341
18.3487
18.3635
18.3786
18.394
18.4095
18.4253
18.4413
18.4574
18.4737
18.4902
18.5068
18.5236
18.5405
18.5575
18.5746
18.5918
18.609
18.6263
18.6437
18.6611
18.6786
18.696
18.7135
18.7309
18.7484
18.7658
18.7832
18.8006
18.8179
18.8351
18.8523
18.8694
18.8864
18.9034
18.9202
18.9369
18.9535
18.9699
18.9862
19.0023
19.0183
19.0341
19.0497
19.065
19.0802
19.0951
19.1098
19.1242
19.1383
19.1521
19.1656
19.1788
19.1915
19.2039
19.2158
19.2273
19.2383
19.2488
19.2587
19.2681
19.2768
19.2848
19.292
19.2985
19.3042
19.3089
19.3126
19.3153
19.3169
19.3173
19.3163
19.314
19.3101
19.3046
19.2973
19.2882
19.277
19.2637
19.2479
19.2297
19.2087
19.1847
19.1576
19.127
19.0927
19.0545
19.012
18.9648
18.9127
18.8552
18.7919
18.7224
18.6462
18.5628
18.4716
18.3721
18.2636
18.1454
18.0169
17.8771
17.7254
17.5607
17.3822
17.1888
16.9794
16.753
16.5081
16.2437
15.9582
15.6502
15.3181
14.9603
14.5751
14.1605
13.7148
13.2359
12.7217
12.17
11.5786
10.9452
10.2675
9.54321
8.76986
7.9452
7.06698
6.13312
5.14172
4.09113
2.98009
1.80775
0.610294
18.1807
18.211
18.2411
18.271
18.3004
18.3293
18.3578
18.3856
18.4129
18.4394
18.4652
18.4902
18.5143
18.5375
18.5598
18.5812
18.6015
18.6208
18.6392
18.6565
18.6729
18.6883
18.703
18.7169
18.7302
18.7431
18.7557
18.7681
18.7804
18.7927
18.8051
18.8176
18.8302
18.8431
18.8562
18.8696
18.8832
18.8971
18.9113
18.9258
18.9405
18.9555
18.9708
18.9863
19.002
19.018
19.0342
19.0507
19.0673
19.0841
19.101
19.1181
19.1354
19.1527
19.1702
19.1878
19.2055
19.2233
19.2411
19.259
19.2769
19.2948
19.3128
19.3308
19.3488
19.3667
19.3847
19.4026
19.4204
19.4383
19.456
19.4737
19.4913
19.5088
19.5262
19.5435
19.5607
19.5778
19.5947
19.6114
19.628
19.6444
19.6607
19.6767
19.6925
19.7081
19.7235
19.7386
19.7534
19.7679
19.7821
19.796
19.8095
19.8226
19.8353
19.8476
19.8594
19.8707
19.8815
19.8917
19.9013
19.9103
19.9185
19.926
19.9327
19.9385
19.9434
19.9473
19.9501
19.9518
19.9522
19.9513
19.9489
19.945
19.9395
19.9321
19.9229
19.9115
19.8979
19.8819
19.8633
19.8419
19.8175
19.7899
19.7587
19.7238
19.6848
19.6414
19.5933
19.5401
19.4814
19.4168
19.3459
19.2681
19.183
19.0899
18.9882
18.8774
18.7567
18.6253
18.4825
18.3274
18.1591
17.9765
17.7787
17.5646
17.3328
17.0823
16.8115
16.5191
16.2035
15.8631
15.4962
15.101
14.6755
14.2178
13.7257
13.197
12.6294
12.0205
11.3679
10.669
9.92138
9.12233
8.26934
7.35991
6.39165
5.36234
4.27
3.11302
1.89016
0.638913
18.7598
18.791
18.8219
18.8525
18.8826
18.9123
18.9414
18.9699
18.9978
19.0249
19.0513
19.0768
19.1015
19.1252
19.148
19.1698
19.1906
19.2103
19.229
19.2467
19.2634
19.2792
19.2942
19.3084
19.3221
19.3352
19.3481
19.3608
19.3733
19.3859
19.3985
19.4113
19.4243
19.4374
19.4508
19.4645
19.4785
19.4927
19.5072
19.5221
19.5372
19.5526
19.5682
19.5841
19.6003
19.6167
19.6334
19.6502
19.6673
19.6846
19.702
19.7196
19.7373
19.7552
19.7731
19.7912
19.8094
19.8277
19.846
19.8644
19.8828
19.9012
19.9197
19.9382
19.9567
19.9751
19.9936
20.012
20.0304
20.0487
20.0669
20.0851
20.1032
20.1212
20.1391
20.1569
20.1745
20.192
20.2094
20.2266
20.2437
20.2605
20.2772
20.2937
20.3099
20.3259
20.3417
20.3572
20.3724
20.3873
20.4019
20.4161
20.43
20.4435
20.4566
20.4692
20.4813
20.4929
20.504
20.5145
20.5244
20.5336
20.542
20.5498
20.5567
20.5627
20.5677
20.5717
20.5747
20.5764
20.5769
20.576
20.5737
20.5698
20.5642
20.5567
20.5473
20.5358
20.522
20.5057
20.4868
20.465
20.4402
20.412
20.3802
20.3446
20.3049
20.2607
20.2117
20.1574
20.0976
20.0318
19.9594
19.8801
19.7932
19.6983
19.5946
19.4815
19.3583
19.2242
19.0784
18.92
18.7481
18.5616
18.3595
18.1406
17.9038
17.6476
17.3706
17.0715
16.7485
16.4
16.0242
15.6193
15.1831
14.7137
14.2087
13.6658
13.0827
12.4567
11.7852
11.0656
10.295
9.47072
8.58988
7.64974
6.64758
5.58087
4.44729
3.24486
1.97198
0.667352
19.3613
19.3929
19.4242
19.455
19.4854
19.5152
19.5443
19.5728
19.6005
19.6274
19.6535
19.6787
19.7029
19.7261
19.7484
19.7695
19.7897
19.8088
19.8268
19.8438
19.86
19.8752
19.8898
19.9037
19.9172
19.9303
19.9432
19.956
19.9689
19.9818
19.9948
20.008
20.0215
20.0352
20.0492
20.0634
20.078
20.0929
20.1081
20.1235
20.1393
20.1554
20.1717
20.1883
20.2051
20.2222
20.2395
20.257
20.2747
20.2926
20.3106
20.3288
20.3472
20.3656
20.3842
20.4029
20.4216
20.4404
20.4593
20.4782
20.4972
20.5161
20.5351
20.5541
20.573
20.592
20.6109
20.6297
20.6485
20.6673
20.6859
20.7045
20.723
20.7414
20.7596
20.7777
20.7957
20.8135
20.8312
20.8487
20.866
20.8831
20.9
20.9167
20.9331
20.9493
20.9652
20.9808
20.9961
21.011
21.0256
21.0399
21.0537
21.0671
21.08
21.0925
21.1044
21.1158
21.1265
21.1367
21.1461
21.1548
21.1628
21.1699
21.176
21.1812
21.1854
21.1885
21.1903
21.1909
21.19
21.1877
21.1838
21.1781
21.1705
21.161
21.1493
21.1353
21.1187
21.0995
21.0773
21.052
21.0234
20.9911
20.9548
20.9144
20.8693
20.8194
20.7642
20.7032
20.6361
20.5624
20.4816
20.3931
20.2962
20.1905
20.0752
19.9496
19.8128
19.6641
19.5026
19.3271
19.1369
18.9306
18.7071
18.4652
18.2036
17.9206
17.6149
17.2847
16.9283
16.5439
16.1294
15.6829
15.202
14.6844
14.1277
13.5294
12.8866
12.1967
11.4568
10.6638
9.81472
8.90655
7.93621
6.9007
5.79715
4.62288
3.37554
2.05314
0.695592
19.9537
19.9856
20.0171
20.0482
20.0786
20.1084
20.1374
20.1657
20.1931
20.2197
20.2454
20.27
20.2937
20.3164
20.3379
20.3584
20.3779
20.3962
20.4136
20.43
20.4456
20.4604
20.4746
20.4883
20.5017
20.5149
20.528
20.541
20.5542
20.5675
20.581
20.5947
20.6087
20.623
20.6376
20.6525
20.6677
20.6832
20.6991
20.7152
20.7317
20.7484
20.7654
20.7826
20.8001
20.8178
20.8358
20.8539
20.8723
20.8908
20.9094
20.9282
20.9472
20.9662
20.9854
21.0046
21.0239
21.0433
21.0627
21.0821
21.1015
21.121
21.1405
21.1599
21.1793
21.1987
21.2181
21.2373
21.2566
21.2757
21.2947
21.3137
21.3325
21.3512
21.3698
21.3882
21.4065
21.4246
21.4426
21.4603
21.4778
21.4952
21.5122
21.5291
21.5456
21.5619
21.5779
21.5936
21.6089
21.6239
21.6385
21.6526
21.6664
21.6796
21.6924
21.7046
21.7163
21.7273
21.7377
21.7474
21.7563
21.7645
21.7717
21.7781
21.7835
21.7878
21.7909
21.7929
21.7935
21.7927
21.7903
21.7864
21.7807
21.773
21.7633
21.7515
21.7372
21.7204
21.7009
21.6784
21.6526
21.6235
21.5906
21.5538
21.5126
21.4668
21.4159
21.3597
21.2977
21.2294
21.1543
21.072
20.9819
20.8833
20.7756
20.6581
20.5301
20.3908
20.2393
20.0746
19.8958
19.7018
19.4914
19.2635
19.0167
18.7497
18.4609
18.1488