/*--------------------------------*- C++ -*----------------------------------*\
| =========                 |                                                 |
| \\      /  F ield         | OpenFOAM: The Open Source CFD Toolbox           |
|  \\    /   O peration     | Version:  2512                                  |
|   \\  /    A nd           | Website:  www.openfoam.com                      |
|    \\/     M anipulation  |                                                 |
\*---------------------------------------------------------------------------*/
FoamFile
{
    version     2.0;
    format      ascii;
    arch        "LSB;label=32;scalar=64";
    class       surfaceScalarField;
    location    "0.1";
    object      phi;
}
// * * * * * * * * * * * * * * * * * * * * * * * * * * * * * * * * * * * * * //

dimensions      [1 0 -1 0 0 0 0];

oriented        oriented;

internalField   nonuniform List<scalar> 
16433
(
0.00254532
0.00254478
-4.37093e-07
0.00254399
-3.54852e-07
0.00254328
-5.49213e-07
0.00254258
-6.12972e-07
0.00254188
-6.50627e-07
0.00254117
-7.033e-07
0.00254047
-7.35308e-07
0.00253976
-7.66309e-07
0.00253905
-8.07503e-07
0.00253835
-8.41798e-07
0.00253764
-8.73089e-07
0.00253693
-9.03949e-07
0.00253622
-9.32642e-07
0.0025355
-9.61018e-07
0.00253479
-9.89424e-07
0.00253408
-1.01713e-06
0.00253336
-1.0443e-06
0.00253264
-1.07112e-06
0.00253192
-1.09819e-06
0.0025312
-1.12536e-06
0.00253048
-1.1533e-06
0.00252976
-1.18181e-06
0.00252904
-1.21052e-06
0.00252831
-1.24107e-06
0.00252759
-1.27143e-06
0.00252686
-1.30308e-06
0.00252613
-1.34037e-06
0.0025254
-1.36635e-06
0.00252467
-1.41611e-06
0.00252393
-1.43739e-06
0.00252319
-1.51053e-06
0.00252245
-1.51839e-06
0.00252169
-1.63694e-06
0.0025209
-1.58395e-06
0.00252006
-1.65773e-06
0.00251938
-1.40508e-06
0.00251871
-1.12896e-06
0.00251801
-1.05994e-06
0.00251731
-1.05763e-06
0.00251661
-1.03898e-06
0.0025159
-1.02659e-06
0.0025152
-1.02641e-06
0.00251449
-1.0304e-06
0.00251377
-1.03566e-06
0.00251306
-1.04193e-06
0.00251235
-1.04882e-06
0.00251163
-1.05593e-06
0.00251092
-1.06307e-06
0.0025102
-1.07008e-06
0.00250948
-1.07688e-06
0.00250876
-1.0834e-06
0.00250805
-1.08962e-06
0.00250732
-1.09549e-06
0.0025066
-1.10103e-06
0.00250588
-1.10622e-06
0.00250516
-1.11108e-06
0.00250443
-1.11565e-06
0.00250371
-1.11995e-06
0.00250298
-1.12398e-06
0.00250226
-1.12774e-06
0.00250153
-1.13128e-06
0.0025008
-1.13461e-06
0.00250008
-1.13775e-06
0.00249935
-1.14071e-06
0.00249862
-1.14349e-06
0.00249788
-1.14612e-06
0.00249715
-1.14861e-06
0.00249642
-1.15098e-06
0.00249569
-1.15322e-06
0.00249495
-1.15537e-06
0.00249422
-1.15742e-06
0.00249348
-1.15938e-06
0.00249275
-1.16125e-06
0.00249201
-1.16305e-06
0.00249127
-1.16479e-06
0.00249053
-1.16648e-06
0.0024898
-1.16812e-06
0.00248906
-1.16971e-06
0.00248831
-1.17126e-06
0.00248757
-1.17279e-06
0.00248683
-1.1743e-06
0.00248609
-1.17579e-06
0.00248535
-1.17726e-06
0.0024846
-1.17873e-06
0.00248386
-1.1802e-06
0.00248311
-1.18167e-06
0.00248237
-1.18316e-06
0.00248162
-1.18466e-06
0.00248087
-1.18618e-06
0.00248013
-1.18772e-06
0.00247938
-1.1893e-06
0.00247863
-1.19092e-06
0.00247788
-1.1926e-06
0.00247713
-1.19433e-06
0.00247638
-1.19612e-06
0.00247563
-1.19799e-06
0.00247487
-1.19994e-06
0.00247412
-1.20198e-06
0.00247337
-1.20414e-06
0.00247261
-1.20641e-06
0.00247186
-1.20881e-06
0.00247111
-1.21135e-06
0.00247035
-1.21406e-06
0.00246959
-1.21697e-06
0.00246884
-1.22007e-06
0.00246808
-1.22341e-06
0.00246732
-1.22697e-06
0.00246657
-1.2308e-06
0.00246581
-1.23492e-06
0.00246505
-1.23938e-06
0.00246429
-1.24418e-06
0.00246353
-1.24935e-06
0.00246277
-1.25497e-06
0.00246201
-1.26103e-06
0.00246125
-1.26767e-06
0.00246049
-1.27484e-06
0.00245972
-1.28261e-06
0.00245896
-1.29105e-06
0.0024582
-1.3003e-06
0.00245743
-1.3103e-06
0.00245667
-1.32126e-06
0.00245591
-1.33311e-06
0.00245514
-1.34612e-06
0.00245438
-1.36029e-06
0.00245361
-1.37573e-06
0.00245284
-1.39259e-06
0.00245208
-1.411e-06
0.00245131
-1.43112e-06
0.00245054
-1.45321e-06
0.00244978
-1.47741e-06
0.00244901
-1.5034e-06
0.00244824
-1.53163e-06
0.00244747
-1.56275e-06
0.0024467
-1.59697e-06
0.00244593
-1.63455e-06
0.00244516
-1.67615e-06
0.00244439
-1.72225e-06
0.00244362
-1.77131e-06
0.00244285
-1.82427e-06
0.00244208
-1.88201e-06
0.00244131
-1.94574e-06
0.00244054
-2.01571e-06
0.00243977
-2.09228e-06
0.002439
-2.17597e-06
0.00243822
-2.26719e-06
0.00243745
-2.36667e-06
0.00243668
-2.47548e-06
0.0024359
-2.59461e-06
0.00243513
-2.72489e-06
0.00243436
-2.86729e-06
0.00243358
-3.02278e-06
0.00243281
-3.19259e-06
0.00243203
-3.37834e-06
0.00243126
-3.58152e-06
0.00243048
-3.80371e-06
0.00242971
-4.0465e-06
0.00242893
-4.31167e-06
0.00242815
-4.60138e-06
0.00242738
-4.91816e-06
0.0024266
-5.2638e-06
0.00242582
-5.6425e-06
0.00242504
-6.05236e-06
0.00242427
-6.50763e-06
0.00242349
-6.9827e-06
0.00242271
-7.54271e-06
0.00242196
-8.06302e-06
-8.77834e-06
0.0025446
0.00254404
-3.5941e-07
0.00254329
-4.24253e-07
0.00254257
-5.20631e-07
0.00254187
-5.82633e-07
0.00254117
-6.36285e-07
0.00254047
-6.6099e-07
0.00253976
-6.91251e-07
0.00253905
-7.33507e-07
0.00253834
-7.68239e-07
0.00253763
-8.00125e-07
0.00253692
-8.31059e-07
0.00253621
-8.59182e-07
0.0025355
-8.87508e-07
0.00253479
-9.15962e-07
0.00253407
-9.43458e-07
0.00253336
-9.70503e-07
0.00253264
-9.97207e-07
0.00253192
-1.02405e-06
0.0025312
-1.05117e-06
0.00253048
-1.07883e-06
0.00252976
-1.10709e-06
0.00252903
-1.13566e-06
0.00252831
-1.16563e-06
0.00252758
-1.19607e-06
0.00252686
-1.22704e-06
0.00252613
-1.2634e-06
0.0025254
-1.29053e-06
0.00252466
-1.33746e-06
0.00252393
-1.35895e-06
0.00252319
-1.42623e-06
0.00252244
-1.43041e-06
0.00252168
-1.52858e-06
0.00252091
-1.48224e-06
0.00252011
-1.50838e-06
0.00251939
-1.34702e-06
0.00251871
-1.11266e-06
0.00251801
-1.02879e-06
0.00251731
-1.01918e-06
0.00251661
-1.00169e-06
0.0025159
-9.87522e-07
0.00251519
-9.85201e-07
0.00251448
-9.88169e-07
0.00251377
-9.92901e-07
0.00251306
-9.98798e-07
0.00251235
-1.00545e-06
0.00251163
-1.01243e-06
0.00251092
-1.01946e-06
0.0025102
-1.0264e-06
0.00250948
-1.03315e-06
0.00250876
-1.03963e-06
0.00250804
-1.04581e-06
0.00250732
-1.05166e-06
0.0025066
-1.05718e-06
0.00250588
-1.06236e-06
0.00250516
-1.06722e-06
0.00250443
-1.07179e-06
0.00250371
-1.07606e-06
0.00250298
-1.08008e-06
0.00250226
-1.08386e-06
0.00250153
-1.08738e-06
0.0025008
-1.09069e-06
0.00250007
-1.09381e-06
0.00249934
-1.09676e-06
0.00249861
-1.09953e-06
0.00249788
-1.10215e-06
0.00249715
-1.10462e-06
0.00249642
-1.10698e-06
0.00249569
-1.10921e-06
0.00249495
-1.11134e-06
0.00249422
-1.11337e-06
0.00249348
-1.11532e-06
0.00249275
-1.11718e-06
0.00249201
-1.11897e-06
0.00249127
-1.1207e-06
0.00249053
-1.12237e-06
0.00248979
-1.12399e-06
0.00248905
-1.12557e-06
0.00248831
-1.12711e-06
0.00248757
-1.12863e-06
0.00248683
-1.13012e-06
0.00248609
-1.13159e-06
0.00248535
-1.13306e-06
0.0024846
-1.13451e-06
0.00248386
-1.13596e-06
0.00248311
-1.13742e-06
0.00248237
-1.13889e-06
0.00248162
-1.14038e-06
0.00248087
-1.14188e-06
0.00248012
-1.14341e-06
0.00247938
-1.14498e-06
0.00247863
-1.14658e-06
0.00247788
-1.14824e-06
0.00247713
-1.14996e-06
0.00247638
-1.15174e-06
0.00247563
-1.15359e-06
0.00247487
-1.15553e-06
0.00247412
-1.15757e-06
0.00247337
-1.15971e-06
0.00247261
-1.16196e-06
0.00247186
-1.16435e-06
0.00247111
-1.16688e-06
0.00247035
-1.16957e-06
0.00246959
-1.17245e-06
0.00246884
-1.17555e-06
0.00246808
-1.17886e-06
0.00246732
-1.18241e-06
0.00246657
-1.18625e-06
0.00246581
-1.19037e-06
0.00246505
-1.19477e-06
0.00246429
-1.19957e-06
0.00246353
-1.20472e-06
0.00246277
-1.21031e-06
0.00246201
-1.2164e-06
0.00246125
-1.22297e-06
0.00246048
-1.23016e-06
0.00245972
-1.2379e-06
0.00245896
-1.24634e-06
0.0024582
-1.25553e-06
0.00245743
-1.26556e-06
0.00245667
-1.2764e-06
0.0024559
-1.28839e-06
0.00245514
-1.30127e-06
0.00245437
-1.31541e-06
0.00245361
-1.33087e-06
0.00245284
-1.34767e-06
0.00245208
-1.366e-06
0.00245131
-1.38596e-06
0.00245054
-1.40767e-06
0.00244977
-1.43124e-06
0.002449
-1.45742e-06
0.00244823
-1.48635e-06
0.00244747
-1.5179e-06
0.0024467
-1.55209e-06
0.00244593
-1.58957e-06
0.00244516
-1.63092e-06
0.00244439
-1.67647e-06
0.00244362
-1.72544e-06
0.00244285
-1.77847e-06
0.00244207
-1.8363e-06
0.0024413
-1.8999e-06
0.00244053
-1.96962e-06
0.00243976
-2.04584e-06
0.00243898
-2.12912e-06
0.00243821
-2.22028e-06
0.00243743
-2.31998e-06
0.00243666
-2.42881e-06
0.00243589
-2.54768e-06
0.00243511
-2.67754e-06
0.00243433
-2.81951e-06
0.00243356
-2.97486e-06
0.00243278
-3.14469e-06
0.002432
-3.33028e-06
0.00243123
-3.53309e-06
0.00243045
-3.75473e-06
0.00242967
-3.99707e-06
0.00242889
-4.26199e-06
0.00242811
-4.55142e-06
0.00242733
-4.86777e-06
0.00242655
-5.21289e-06
0.00242577
-5.59079e-06
0.00242499
-6.00072e-06
0.0024242
-6.45426e-06
0.00242342
-6.93478e-06
0.00242263
-7.48234e-06
0.00242187
-8.03553e-06
0.00242113
-8.68563e-06
0.00242025
-9.57902e-06
0.00241948
-1.02845e-05
0.00241868
-1.10935e-05
0.00241789
-1.20047e-05
0.00241709
-1.29984e-05
0.0024163
-1.40838e-05
0.0024155
-1.52706e-05
0.0024147
-1.6566e-05
0.0024139
-1.79777e-05
0.00241309
-1.9517e-05
0.00241228
-2.11918e-05
0.00241147
-2.30073e-05
0.00241066
-2.50415e-05
0.00240984
-2.69722e-05
0.00240903
-3.00069e-05
0.00240821
-3.09278e-05
-3.63344e-05
0.00254386
0.00254332
-4.46045e-07
0.00254255
-3.79177e-07
0.00254186
-5.17423e-07
0.00254117
-5.72533e-07
0.00254046
-5.826e-07
0.00253975
-6.17819e-07
0.00253905
-6.64301e-07
0.00253834
-6.95562e-07
0.00253763
-7.27113e-07
0.00253692
-7.58233e-07
0.00253621
-7.85686e-07
0.0025355
-8.13971e-07
0.00253478
-8.42466e-07
0.00253407
-8.69887e-07
0.00253335
-8.96736e-07
0.00253264
-9.23193e-07
0.00253192
-9.49873e-07
0.0025312
-9.76813e-07
0.00253048
-1.00429e-06
0.00252975
-1.03227e-06
0.00252903
-1.06054e-06
0.00252831
-1.09015e-06
0.00252758
-1.12045e-06
0.00252685
-1.15067e-06
0.00252612
-1.18625e-06
0.00252539
-1.21341e-06
0.00252466
-1.25792e-06
0.00252392
-1.28026e-06
0.00252318
-1.34125e-06
0.00252244
-1.34506e-06
0.00252168
-1.42567e-06
0.00252092
-1.38252e-06
0.00252013
-1.38632e-06
0.0025194
-1.27816e-06
0.00251871
-1.08447e-06
0.00251802
-9.94176e-07
0.00251731
-9.78935e-07
0.00251661
-9.62549e-07
0.0025159
-9.47532e-07
0.00251519
-9.43636e-07
0.00251448
-9.45769e-07
0.00251377
-9.50065e-07
0.00251306
-9.55658e-07
0.00251235
-9.62094e-07
0.00251163
-9.68908e-07
0.00251091
-9.75893e-07
0.0025102
-9.82769e-07
0.00250948
-9.89459e-07
0.00250876
-9.95913e-07
0.00250804
-1.00207e-06
0.00250732
-1.00789e-06
0.0025066
-1.01339e-06
0.00250588
-1.01858e-06
0.00250516
-1.02339e-06
0.00250443
-1.02794e-06
0.00250371
-1.03223e-06
0.00250298
-1.03622e-06
0.00250226
-1.03996e-06
0.00250153
-1.04347e-06
0.0025008
-1.04677e-06
0.00250007
-1.04989e-06
0.00249934
-1.05284e-06
0.00249861
-1.05559e-06
0.00249788
-1.05819e-06
0.00249715
-1.06065e-06
0.00249642
-1.06298e-06
0.00249569
-1.06521e-06
0.00249495
-1.06732e-06
0.00249422
-1.06935e-06
0.00249348
-1.07128e-06
0.00249275
-1.07312e-06
0.00249201
-1.07489e-06
0.00249127
-1.07661e-06
0.00249053
-1.07828e-06
0.00248979
-1.07987e-06
0.00248905
-1.08143e-06
0.00248831
-1.08295e-06
0.00248757
-1.08446e-06
0.00248683
-1.08594e-06
0.00248609
-1.0874e-06
0.00248534
-1.08884e-06
0.0024846
-1.09028e-06
0.00248386
-1.09172e-06
0.00248311
-1.09317e-06
0.00248237
-1.09462e-06
0.00248162
-1.09609e-06
0.00248087
-1.09758e-06
0.00248012
-1.09909e-06
0.00247938
-1.10064e-06
0.00247863
-1.10223e-06
0.00247788
-1.10387e-06
0.00247713
-1.10557e-06
0.00247638
-1.10734e-06
0.00247562
-1.10918e-06
0.00247487
-1.1111e-06
0.00247412
-1.11312e-06
0.00247337
-1.11524e-06
0.00247261
-1.1175e-06
0.00247186
-1.11985e-06
0.0024711
-1.12236e-06
0.00247035
-1.12503e-06
0.00246959
-1.12791e-06
0.00246884
-1.131e-06
0.00246808
-1.13432e-06
0.00246732
-1.13782e-06
0.00246656
-1.14159e-06
0.00246581
-1.14566e-06
0.00246505
-1.15011e-06
0.00246429
-1.15489e-06
0.00246353
-1.16e-06
0.00246277
-1.16564e-06
0.00246201
-1.17159e-06
0.00246124
-1.17818e-06
0.00246048
-1.18531e-06
0.00245972
-1.19308e-06
0.00245896
-1.2014e-06
0.00245819
-1.21062e-06
0.00245743
-1.2206e-06
0.00245667
-1.23147e-06
0.0024559
-1.24327e-06
0.00245514
-1.25618e-06
0.00245437
-1.2703e-06
0.0024536
-1.28565e-06
0.00245284
-1.30242e-06
0.00245207
-1.32076e-06
0.0024513
-1.34081e-06
0.00245054
-1.36281e-06
0.00244977
-1.38709e-06
0.002449
-1.41313e-06
0.00244823
-1.4411e-06
0.00244746
-1.4718e-06
0.00244669
-1.50593e-06
0.00244592
-1.54347e-06
0.00244515
-1.58475e-06
0.00244438
-1.63e-06
0.00244361
-1.67888e-06
0.00244284
-1.73189e-06
0.00244207
-1.78973e-06
0.00244129
-1.85318e-06
0.00244052
-1.92272e-06
0.00243975
-1.99879e-06
0.00243897
-2.08194e-06
0.0024382
-2.17278e-06
0.00243742
-2.27204e-06
0.00243665
-2.38051e-06
0.00243587
-2.49912e-06
0.00243509
-2.62876e-06
0.00243432
-2.77049e-06
0.00243354
-2.92539e-06
0.00243276
-3.09466e-06
0.00243198
-3.27972e-06
0.0024312
-3.48205e-06
0.00243042
-3.70326e-06
0.00242964
-3.94503e-06
0.00242886
-4.20921e-06
0.00242807
-4.49787e-06
0.00242729
-4.81338e-06
0.0024265
-5.15779e-06
0.00242572
-5.53471e-06
0.00242493
-5.94442e-06
0.00242414
-6.39526e-06
0.00242336
-6.87989e-06
0.00242256
-7.41813e-06
0.00242179
-7.99898e-06
0.00242101
-8.63758e-06
0.00242017
-9.46813e-06
0.00241937
-1.02148e-05
0.00241857
-1.10224e-05
0.00241776
-1.19293e-05
0.00241696
-1.29225e-05
0.00241615
-1.40058e-05
0.00241533
-1.51896e-05
0.00241452
-1.64818e-05
0.0024137
-1.78901e-05
0.00241288
-1.94258e-05
0.00241205
-2.10967e-05
0.00241122
-2.29078e-05
0.00241038
-2.49384e-05
0.00240954
-2.68641e-05
0.0024087
-2.98948e-05
0.00240785
-3.08126e-05
-3.62078e-05
0.00254331
-5.09273e-07
0.00254256
-2.61779e-07
0.00254185
-4.377e-07
0.00254116
-5.08341e-07
0.00254046
-5.10338e-07
0.00253975
-5.43839e-07
0.00253904
-5.90455e-07
0.00253833
-6.22374e-07
0.00253763
-6.55123e-07
0.00253692
-6.85836e-07
0.00253621
-7.1218e-07
0.00253549
-7.40615e-07
0.00253478
-7.69231e-07
0.00253407
-7.96306e-07
0.00253335
-8.22961e-07
0.00253263
-8.49257e-07
0.00253191
-8.75658e-07
0.00253119
-9.02485e-07
0.00253047
-9.29665e-07
0.00252975
-9.57379e-07
0.00252903
-9.85496e-07
0.0025283
-1.01456e-06
0.00252757
-1.04455e-06
0.00252685
-1.07461e-06
0.00252612
-1.10887e-06
0.00252539
-1.13681e-06
0.00252465
-1.17831e-06
0.00252392
-1.20154e-06
0.00252318
-1.25536e-06
0.00252243
-1.26105e-06
0.00252167
-1.32406e-06
0.00252092
-1.29072e-06
0.00252015
-1.27813e-06
0.00251942
-1.20279e-06
0.00251872
-1.04733e-06
0.00251802
-9.5846e-07
0.00251731
-9.37399e-07
0.00251661
-9.21481e-07
0.0025159
-9.06826e-07
0.00251519
-9.01825e-07
0.00251448
-9.03191e-07
0.00251377
-9.07097e-07
0.00251306
-9.12437e-07
0.00251234
-9.18706e-07
0.00251163
-9.25437e-07
0.00251091
-9.32311e-07
0.0025102
-9.39144e-07
0.00250948
-9.45812e-07
0.00250876
-9.52232e-07
0.00250804
-9.58356e-07
0.00250732
-9.64161e-07
0.0025066
-9.69634e-07
0.00250588
-9.74779e-07
0.00250516
-9.79617e-07
0.00250443
-9.84144e-07
0.00250371
-9.88393e-07
0.00250298
-9.92394e-07
0.00250226
-9.96135e-07
0.00250153
-9.99635e-07
0.0025008
-1.00291e-06
0.00250007
-1.00599e-06
0.00249934
-1.00892e-06
0.00249861
-1.01166e-06
0.00249788
-1.01425e-06
0.00249715
-1.01669e-06
0.00249642
-1.01901e-06
0.00249569
-1.02122e-06
0.00249495
-1.02332e-06
0.00249422
-1.02532e-06
0.00249348
-1.02724e-06
0.00249275
-1.02907e-06
0.00249201
-1.03083e-06
0.00249127
-1.03252e-06
0.00249053
-1.03416e-06
0.00248979
-1.03575e-06
0.00248905
-1.03729e-06
0.00248831
-1.03881e-06
0.00248757
-1.04029e-06
0.00248683
-1.04176e-06
0.00248609
-1.0432e-06
0.00248534
-1.04463e-06
0.0024846
-1.04606e-06
0.00248386
-1.04748e-06
0.00248311
-1.04891e-06
0.00248236
-1.05035e-06
0.00248162
-1.0518e-06
0.00248087
-1.05327e-06
0.00248012
-1.05477e-06
0.00247938
-1.0563e-06
0.00247863
-1.05788e-06
0.00247788
-1.0595e-06
0.00247713
-1.06118e-06
0.00247638
-1.06293e-06
0.00247562
-1.06476e-06
0.00247487
-1.06667e-06
0.00247412
-1.06867e-06
0.00247337
-1.07079e-06
0.00247261
-1.073e-06
0.00247186
-1.07535e-06
0.0024711
-1.07785e-06
0.00247035
-1.0805e-06
0.00246959
-1.08336e-06
0.00246884
-1.08642e-06
0.00246808
-1.08966e-06
0.00246732
-1.09316e-06
0.00246656
-1.09699e-06
0.00246581
-1.10101e-06
0.00246505
-1.10542e-06
0.00246429
-1.11019e-06
0.00246353
-1.11528e-06
0.00246277
-1.12078e-06
0.00246201
-1.12681e-06
0.00246124
-1.13337e-06
0.00246048
-1.14051e-06
0.00245972
-1.14811e-06
0.00245896
-1.1565e-06
0.00245819
-1.16572e-06
0.00245743
-1.17553e-06
0.00245666
-1.18643e-06
0.0024559
-1.1982e-06
0.00245514
-1.21112e-06
0.00245437
-1.22503e-06
0.0024536
-1.24045e-06
0.00245284
-1.25714e-06
0.00245207
-1.27535e-06
0.0024513
-1.29518e-06
0.00245053
-1.31682e-06
0.00244976
-1.34035e-06
0.00244899
-1.36613e-06
0.00244823
-1.39473e-06
0.00244746
-1.42638e-06
0.00244669
-1.46046e-06
0.00244592
-1.49768e-06
0.00244515
-1.53858e-06
0.00244437
-1.58338e-06
0.0024436
-1.63201e-06
0.00244283
-1.68488e-06
0.00244206
-1.74257e-06
0.00244128
-1.8058e-06
0.00244051
-1.87504e-06
0.00243974
-1.95079e-06
0.00243896
-2.03361e-06
0.00243818
-2.12412e-06
0.00243741
-2.22304e-06
0.00243663
-2.33113e-06
0.00243585
-2.4493e-06
0.00243507
-2.57845e-06
0.0024343
-2.71963e-06
0.00243352
-2.87399e-06
0.00243274
-3.04271e-06
0.00243195
-3.22713e-06
0.00243117
-3.42875e-06
0.00243039
-3.64913e-06
0.0024296
-3.89003e-06
0.00242882
-4.15331e-06
0.00242803
-4.44099e-06
0.00242724
-4.75541e-06
0.00242646
-5.09874e-06
0.00242566
-5.4742e-06
0.00242487
-5.88327e-06
0.00242408
-6.33151e-06
0.00242329
-6.81867e-06
0.00242249
-7.35142e-06
0.0024217
-7.9443e-06
0.00242091
-8.57664e-06
0.00242008
-9.36601e-06
0.00241926
-1.01311e-05
0.00241845
-1.09408e-05
0.00241764
-1.18441e-05
0.00241682
-1.28351e-05
0.00241599
-1.39153e-05
0.00241517
-1.50949e-05
0.00241434
-1.63826e-05
0.0024135
-1.77863e-05
0.00241266
-1.93169e-05
0.00241182
-2.09826e-05
0.00241096
-2.27882e-05
0.00241011
-2.48127e-05
0.00240924
-2.67331e-05
0.00240837
-2.97562e-05
0.0024075
-3.06705e-05
-3.60526e-05
0.00254314
0.00254261
-2.95639e-07
0.00254186
-3.19742e-07
0.00254115
-4.24607e-07
0.00254044
-4.3129e-07
0.00253974
-4.7905e-07
0.00253904
-5.2279e-07
0.00253833
-5.48287e-07
0.00253762
-5.82853e-07
0.00253691
-6.13405e-07
0.0025362
-6.38538e-07
0.00253549
-6.67238e-07
0.00253478
-6.95892e-07
0.00253406
-7.22833e-07
0.00253335
-7.49238e-07
0.00253263
-7.75251e-07
0.00253191
-8.01385e-07
0.00253119
-8.2804e-07
0.00253047
-8.54988e-07
0.00252975
-8.8239e-07
0.00252902
-9.10185e-07
0.0025283
-9.38884e-07
0.00252757
-9.68576e-07
0.00252684
-9.98159e-07
0.00252611
-1.03134e-06
0.00252538
-1.05961e-06
0.00252465
-1.09846e-06
0.00252391
-1.12251e-06
0.00252317
-1.17008e-06
0.00252243
-1.178e-06
0.00252168
-1.22686e-06
0.00252093
-1.20152e-06
0.00252017
-1.18197e-06
0.00251943
-1.12653e-06
0.00251873
-1.00257e-06
0.00251802
-9.19269e-07
0.00251732
-8.9424e-07
0.00251661
-8.79028e-07
0.0025159
-8.6514e-07
0.00251519
-8.59583e-07
0.00251448
-8.60394e-07
0.00251377
-8.64021e-07
0.00251306
-8.6918e-07
0.00251234
-8.75316e-07
0.00251163
-8.81953e-07
0.00251091
-8.88782e-07
0.0025102
-8.9557e-07
0.00250948
-9.02198e-07
0.00250876
-9.08593e-07
0.00250804
-9.14692e-07
0.00250732
-9.20469e-07
0.0025066
-9.25924e-07
0.00250588
-9.31058e-07
0.00250515
-9.35878e-07
0.00250443
-9.4041e-07
0.00250371
-9.4463e-07
0.00250298
-9.48584e-07
0.00250226
-9.52292e-07
0.00250153
-9.55772e-07
0.0025008
-9.59048e-07
0.00250007
-9.62158e-07
0.00249934
-9.65039e-07
0.00249861
-9.67752e-07
0.00249788
-9.70312e-07
0.00249715
-9.72736e-07
0.00249642
-9.75044e-07
0.00249569
-9.77236e-07
0.00249495
-9.79322e-07
0.00249422
-9.81312e-07
0.00249348
-9.83212e-07
0.00249274
-9.8502e-07
0.00249201
-9.8676e-07
0.00249127
-9.88441e-07
0.00249053
-9.90067e-07
0.00248979
-9.91637e-07
0.00248905
-9.93163e-07
0.00248831
-9.94659e-07
0.00248757
-9.96129e-07
0.00248683
-9.97577e-07
0.00248609
-9.99005e-07
0.00248534
-1.00042e-06
0.0024846
-1.00183e-06
0.00248386
-1.00324e-06
0.00248311
-1.00465e-06
0.00248236
-1.00607e-06
0.00248162
-1.0075e-06
0.00248087
-1.00896e-06
0.00248012
-1.01044e-06
0.00247937
-1.01196e-06
0.00247863
-1.01352e-06
0.00247788
-1.01512e-06
0.00247713
-1.01678e-06
0.00247638
-1.01851e-06
0.00247562
-1.02032e-06
0.00247487
-1.02222e-06
0.00247412
-1.0242e-06
0.00247337
-1.0263e-06
0.00247261
-1.0285e-06
0.00247186
-1.03082e-06
0.0024711
-1.03328e-06
0.00247035
-1.0359e-06
0.00246959
-1.03876e-06
0.00246884
-1.04183e-06
0.00246808
-1.04509e-06
0.00246732
-1.04851e-06
0.00246656
-1.05224e-06
0.0024658
-1.05633e-06
0.00246505
-1.06065e-06
0.00246429
-1.06537e-06
0.00246353
-1.07042e-06
0.00246277
-1.07605e-06
0.002462
-1.08192e-06
0.00246124
-1.08843e-06
0.00246048
-1.09545e-06
0.00245972
-1.10321e-06
0.00245895
-1.11147e-06
0.00245819
-1.12047e-06
0.00245743
-1.13051e-06
0.00245666
-1.14113e-06
0.0024559
-1.15294e-06
0.00245513
-1.16565e-06
0.00245437
-1.17974e-06
0.0024536
-1.19485e-06
0.00245283
-1.21151e-06
0.00245207
-1.22967e-06
0.0024513
-1.24953e-06
0.00245053
-1.27134e-06
0.00244976
-1.29512e-06
0.002449
-1.32112e-06
0.00244823
-1.34926e-06
0.00244746
-1.37963e-06
0.00244668
-1.41335e-06
0.00244591
-1.4506e-06
0.00244514
-1.4914e-06
0.00244437
-1.53597e-06
0.0024436
-1.58441e-06
0.00244282
-1.63711e-06
0.00244205
-1.69462e-06
0.00244128
-1.75757e-06
0.0024405
-1.82649e-06
0.00243973
-1.90187e-06
0.00243895
-1.98429e-06
0.00243817
-2.07437e-06
0.00243739
-2.17282e-06
0.00243662
-2.28042e-06
0.00243584
-2.39804e-06
0.00243506
-2.5266e-06
0.00243428
-2.66714e-06
0.0024335
-2.82079e-06
0.00243271
-2.98873e-06
0.00243193
-3.17232e-06
0.00243114
-3.37301e-06
0.00243036
-3.59239e-06
0.00242957
-3.83219e-06
0.00242878
-4.09428e-06
0.00242799
-4.38069e-06
0.0024272
-4.69369e-06
0.00242641
-5.0356e-06
0.00242561
-5.4093e-06
0.00242482
-5.8172e-06
0.00242402
-6.26287e-06
0.00242322
-6.75081e-06
0.00242242
-7.27985e-06
0.00242162
-7.87545e-06
0.00242082
-8.50697e-06
0.00241998
-9.26456e-06
0.00241916
-1.0037e-05
0.00241834
-1.08497e-05
0.00241751
-1.17485e-05
0.00241668
-1.27356e-05
0.00241584
-1.38117e-05
0.002415
-1.49863e-05
0.00241416
-1.62685e-05
0.00241331
-1.76662e-05
0.00241245
-1.91906e-05
0.00241158
-2.08496e-05
0.00241071
-2.26483e-05
0.00240983
-2.46649e-05
0.00240895
-2.65787e-05
0.00240805
-2.95917e-05
0.00240715
-3.05019e-05
-3.58679e-05
0.00254245
0.00254191
-3.46479e-07
0.00254114
-2.86437e-07
0.00254044
-3.6085e-07
0.00253974
-4.1142e-07
0.00253903
-4.50913e-07
0.00253833
-4.76879e-07
0.00253762
-5.12531e-07
0.00253691
-5.41128e-07
0.0025362
-5.6474e-07
0.00253549
-5.942e-07
0.00253477
-6.22836e-07
0.00253406
-6.49239e-07
0.00253334
-6.75595e-07
0.00253263
-7.01154e-07
0.00253191
-7.2715e-07
0.00253119
-7.5354e-07
0.00253047
-7.80198e-07
0.00252974
-8.07444e-07
0.00252902
-8.34803e-07
0.00252829
-8.63106e-07
0.00252757
-8.92425e-07
0.00252684
-9.21759e-07
0.00252611
-9.5378e-07
0.00252538
-9.82415e-07
0.00252464
-1.0188e-06
0.00252391
-1.04353e-06
0.00252317
-1.08525e-06
0.00252243
-1.09565e-06
0.00252168
-1.13325e-06
0.00252093
-1.11542e-06
0.00252018
-1.09315e-06
0.00251944
-1.04988e-06
0.00251873
-9.52298e-07
0.00251803
-8.77442e-07
0.00251732
-8.50143e-07
0.00251661
-8.35254e-07
0.0025159
-8.22547e-07
0.00251519
-8.1691e-07
0.00251448
-8.17349e-07
0.00251377
-8.20779e-07
0.00251306
-8.2583e-07
0.00251234
-8.31886e-07
0.00251163
-8.38472e-07
0.00251091
-8.45255e-07
0.0025102
-8.52021e-07
0.00250948
-8.58633e-07
0.00250876
-8.65006e-07
0.00250804
-8.71083e-07
0.00250732
-8.76837e-07
0.0025066
-8.82254e-07
0.00250588
-8.87357e-07
0.00250515
-8.92177e-07
0.00250443
-8.96655e-07
0.00250371
-9.00881e-07
0.00250298
-9.04834e-07
0.00250226
-9.08526e-07
0.00250153
-9.11989e-07
0.0025008
-9.15235e-07
0.00250007
-9.18285e-07
0.00249934
-9.21165e-07
0.00249861
-9.23869e-07
0.00249788
-9.26409e-07
0.00249715
-9.28799e-07
0.00249642
-9.31102e-07
0.00249568
-9.33272e-07
0.00249495
-9.35337e-07
0.00249422
-9.3731e-07
0.00249348
-9.39198e-07
0.00249274
-9.40988e-07
0.00249201
-9.42711e-07
0.00249127
-9.4437e-07
0.00249053
-9.45974e-07
0.00248979
-9.47526e-07
0.00248905
-9.49033e-07
0.00248831
-9.50514e-07
0.00248757
-9.51969e-07
0.00248683
-9.534e-07
0.00248609
-9.54812e-07
0.00248534
-9.56211e-07
0.0024846
-9.57602e-07
0.00248386
-9.58992e-07
0.00248311
-9.60386e-07
0.00248236
-9.61788e-07
0.00248162
-9.63205e-07
0.00248087
-9.64644e-07
0.00248012
-9.6611e-07
0.00247937
-9.67608e-07
0.00247863
-9.69147e-07
0.00247788
-9.70734e-07
0.00247713
-9.72375e-07
0.00247638
-9.74087e-07
0.00247562
-9.75882e-07
0.00247487
-9.77758e-07
0.00247412
-9.79728e-07
0.00247337
-9.81809e-07
0.00247261
-9.83981e-07
0.00247186
-9.86282e-07
0.0024711
-9.88729e-07
0.00247035
-9.91301e-07
0.00246959
-9.94157e-07
0.00246884
-9.97168e-07
0.00246808
-1.00038e-06
0.00246732
-1.00385e-06
0.00246656
-1.00756e-06
0.0024658
-1.01151e-06
0.00246504
-1.01587e-06
0.00246429
-1.02061e-06
0.00246353
-1.02556e-06
0.00246276
-1.0311e-06
0.002462
-1.03705e-06
0.00246124
-1.04343e-06
0.00246048
-1.05051e-06
0.00245972
-1.05806e-06
0.00245895
-1.06633e-06
0.00245819
-1.07541e-06
0.00245743
-1.08516e-06
0.00245666
-1.09589e-06
0.0024559
-1.10756e-06
0.00245513
-1.12028e-06
0.00245437
-1.13411e-06
0.0024536
-1.14932e-06
0.00245283
-1.1658e-06
0.00245206
-1.18386e-06
0.0024513
-1.20353e-06
0.00245053
-1.22499e-06
0.00244976
-1.24839e-06
0.00244899
-1.274e-06
0.00244822
-1.30212e-06
0.00244745
-1.33318e-06
0.00244668
-1.36707e-06
0.00244591
-1.40385e-06
0.00244514
-1.44421e-06
0.00244436
-1.48835e-06
0.00244359
-1.53644e-06
0.00244282
-1.58884e-06
0.00244204
-1.64606e-06
0.00244127
-1.70866e-06
0.00244049
-1.77717e-06
0.00243971
-1.8521e-06
0.00243894
-1.93403e-06
0.00243816
-2.02359e-06
0.00243738
-2.12148e-06
0.0024366
-2.22846e-06
0.00243582
-2.34541e-06
0.00243504
-2.47325e-06
0.00243426
-2.613e-06
0.00243347
-2.76578e-06
0.00243269
-2.93278e-06
0.0024319
-3.11534e-06
0.00243112
-3.31491e-06
0.00243033
-3.53306e-06
0.00242954
-3.77153e-06
0.00242875
-4.03216e-06
0.00242795
-4.317e-06
0.00242716
-4.62829e-06
0.00242636
-4.96841e-06
0.00242556
-5.34004e-06
0.00242476
-5.74622e-06
0.00242396
-6.18927e-06
0.00242315
-6.67637e-06
0.00242234
-7.20243e-06
0.00242153
-7.79641e-06
0.00242072
-8.42747e-06
0.00241989
-9.16147e-06
0.00241905
-9.93394e-06
0.00241822
-1.0748e-05
0.00241738
-1.16423e-05
0.00241654
-1.26244e-05
0.00241569
-1.36954e-05
0.00241484
-1.48639e-05
0.00241398
-1.61395e-05
0.00241311
-1.753e-05
0.00241224
-1.90468e-05
0.00241135
-2.06977e-05
0.00241046
-2.24879e-05
0.00240956
-2.44951e-05
0.00240865
-2.64009e-05
0.00240773
-2.94014e-05
0.0024068
-3.03067e-05
-3.56534e-05
0.0025419
-4.29073e-07
0.00254116
-1.76974e-07
0.00254041
-2.47774e-07
0.00253974
-3.65082e-07
0.00253903
-3.82532e-07
0.00253832
-4.00987e-07
0.00253762
-4.42969e-07
0.00253691
-4.68873e-07
0.0025362
-4.90697e-07
0.00253548
-5.2114e-07
0.00253477
-5.49728e-07
0.00253406
-5.75868e-07
0.00253334
-6.01949e-07
0.00253262
-6.27172e-07
0.0025319
-6.52739e-07
0.00253118
-6.79026e-07
0.00253046
-7.05521e-07
0.00252974
-7.32119e-07
0.00252902
-7.59341e-07
0.00252829
-7.87353e-07
0.00252756
-8.16191e-07
0.00252684
-8.44957e-07
0.00252611
-8.76219e-07
0.00252538
-9.04969e-07
0.00252464
-9.39271e-07
0.00252391
-9.64235e-07
0.00252317
-1.00138e-06
0.00252243
-1.01396e-06
0.00252168
-1.04313e-06
0.00252093
-1.03126e-06
0.00252019
-1.0096e-06
0.00251945
-9.75136e-07
0.00251874
-8.97984e-07
0.00251803
-8.32549e-07
0.00251732
-8.04666e-07
0.00251661
-7.9043e-07
0.0025159
-7.79081e-07
0.00251519
-7.73727e-07
0.00251448
-7.74066e-07
0.00251377
-7.77406e-07
0.00251306
-7.82418e-07
0.00251234
-7.88439e-07
0.00251163
-7.94999e-07
0.00251091
-8.01767e-07
0.00251019
-8.08511e-07
0.00250948
-8.15101e-07
0.00250876
-8.21464e-07
0.00250804
-8.27516e-07
0.00250732
-8.33232e-07
0.0025066
-8.38642e-07
0.00250588
-8.43733e-07
0.00250515
-8.48511e-07
0.00250443
-8.52989e-07
0.00250371
-8.57171e-07
0.00250298
-8.61089e-07
0.00250225
-8.64761e-07
0.00250153
-8.68203e-07
0.0025008
-8.71427e-07
0.00250007
-8.74466e-07
0.00249934
-8.77315e-07
0.00249861
-8.7999e-07
0.00249788
-8.82512e-07
0.00249715
-8.84902e-07
0.00249642
-8.87167e-07
0.00249568
-8.89323e-07
0.00249495
-8.91364e-07
0.00249422
-8.93319e-07
0.00249348
-8.95201e-07
0.00249274
-8.96955e-07
0.00249201
-8.98658e-07
0.00249127
-9.00301e-07
0.00249053
-9.01889e-07
0.00248979
-9.0342e-07
0.00248905
-9.04907e-07
0.00248831
-9.06373e-07
0.00248757
-9.07812e-07
0.00248683
-9.09223e-07
0.00248609
-9.10618e-07
0.00248534
-9.12e-07
0.0024846
-9.13373e-07
0.00248386
-9.14745e-07
0.00248311
-9.16121e-07
0.00248236
-9.17506e-07
0.00248162
-9.18906e-07
0.00248087
-9.20326e-07
0.00248012
-9.21772e-07
0.00247937
-9.23252e-07
0.00247863
-9.24772e-07
0.00247788
-9.26339e-07
0.00247713
-9.27957e-07
0.00247637
-9.2965e-07
0.00247562
-9.31427e-07
0.00247487
-9.33283e-07
0.00247412
-9.35232e-07
0.00247337
-9.37306e-07
0.00247261
-9.39439e-07
0.00247186
-9.41702e-07
0.0024711
-9.44134e-07
0.00247035
-9.46708e-07
0.00246959
-9.49496e-07
0.00246883
-9.5251e-07
0.00246808
-9.55707e-07
0.00246732
-9.5908e-07
0.00246656
-9.62764e-07
0.0024658
-9.66809e-07
0.00246504
-9.71021e-07
0.00246428
-9.75751e-07
0.00246352
-9.80657e-07
0.00246276
-9.86094e-07
0.002462
-9.91972e-07
0.00246124
-9.98463e-07
0.00246048
-1.00542e-06
0.00245972
-1.01284e-06
0.00245895
-1.02111e-06
0.00245819
-1.03012e-06
0.00245742
-1.03976e-06
0.00245666
-1.05046e-06
0.00245589
-1.06204e-06
0.00245513
-1.07464e-06
0.00245436
-1.08837e-06
0.0024536
-1.10344e-06
0.00245283
-1.11988e-06
0.00245206
-1.13775e-06
0.00245129
-1.15736e-06
0.00245053
-1.17881e-06
0.00244976
-1.2022e-06
0.00244899
-1.22781e-06
0.00244822
-1.25567e-06
0.00244745
-1.28612e-06
0.00244668
-1.31931e-06
0.0024459
-1.35604e-06
0.00244513
-1.39619e-06
0.00244436
-1.44004e-06
0.00244358
-1.48782e-06
0.00244281
-1.5399e-06
0.00244203
-1.59677e-06
0.00244126
-1.65896e-06
0.00244048
-1.72701e-06
0.0024397
-1.80143e-06
0.00243893
-1.8828e-06
0.00243815
-1.97174e-06
0.00243737
-2.06897e-06
0.00243659
-2.17524e-06
0.00243581
-2.2914e-06
0.00243502
-2.41838e-06
0.00243424
-2.5572e-06
0.00243345
-2.70895e-06
0.00243267