/*--------------------------------*- C++ -*----------------------------------*\
| =========                 |                                                 |
| \\      /  F ield         | OpenFOAM: The Open Source CFD Toolbox           |
|  \\    /   O peration     | Version:  2512                                  |
|   \\  /    A nd           | Website:  www.openfoam.com                      |
|    \\/     M anipulation  |                                                 |
\*---------------------------------------------------------------------------*/
FoamFile
{
    version     2.0;
    format      ascii;
    arch        "LSB;label=32;scalar=64";
    class       surfaceScalarField;
    location    "0.1";
    object      phiB;
}
// * * * * * * * * * * * * * * * * * * * * * * * * * * * * * * * * * * * * * //

dimensions      [1 2 -2 0 0 -1 0];

oriented        oriented;

internalField   nonuniform List<scalar> 
16433
(
-1.69228e-10
-1.69182e-10
0.00192
-1.69736e-10
0.00192
-1.70295e-10
0.00192
-1.70924e-10
0.00192
-1.71562e-10
0.00192
-1.72142e-10
0.00192
-1.72715e-10
0.00192
-1.7328e-10
0.00192
-1.73767e-10
0.00192
-1.74181e-10
0.00192
-1.74542e-10
0.00192
-1.74845e-10
0.00192
-1.7509e-10
0.00192
-1.75271e-10
0.00192
-1.75381e-10
0.00192
-1.75418e-10
0.00192
-1.75384e-10
0.00192
-1.75282e-10
0.00192
-1.75113e-10
0.00192
-1.74874e-10
0.00192
-1.74564e-10
0.00192
-1.74185e-10
0.00192
-1.73735e-10
0.00192
-1.7322e-10
0.00192
-1.72644e-10
0.00192
-1.72004e-10
0.00192
-1.71312e-10
0.00192
-1.70586e-10
0.00192
-1.69811e-10
0.00192
-1.69031e-10
0.00192
-1.68224e-10
0.00192
-1.67421e-10
0.00192
-1.66475e-10
0.00192
-1.65664e-10
0.00192
-1.6504e-10
0.00192
-1.65625e-10
0.00192
-1.66963e-10
0.00192
-1.68064e-10
0.00192
-1.68749e-10
0.00192
-1.69247e-10
0.00192
-1.69646e-10
0.00192
-1.69946e-10
0.00192
-1.70161e-10
0.00192
-1.70311e-10
0.00192
-1.7041e-10
0.00192
-1.70467e-10
0.00192
-1.7049e-10
0.00192
-1.70489e-10
0.00192
-1.70464e-10
0.00192
-1.70423e-10
0.00192
-1.7037e-10
0.00192
-1.70308e-10
0.00192
-1.70238e-10
0.00192
-1.70162e-10
0.00192
-1.70082e-10
0.00192
-1.69999e-10
0.00192
-1.69914e-10
0.00192
-1.69828e-10
0.00192
-1.69742e-10
0.00192
-1.69656e-10
0.00192
-1.6957e-10
0.00192
-1.69486e-10
0.00192
-1.69403e-10
0.00192
-1.6932e-10
0.00192
-1.69238e-10
0.00192
-1.69158e-10
0.00192
-1.6908e-10
0.00192
-1.69004e-10
0.00192
-1.68929e-10
0.00192
-1.68857e-10
0.00192
-1.68786e-10
0.00192
-1.68719e-10
0.00192
-1.68653e-10
0.00192
-1.68589e-10
0.00192
-1.68527e-10
0.00192
-1.68468e-10
0.00192
-1.6841e-10
0.00192
-1.68356e-10
0.00192
-1.68305e-10
0.00192
-1.68258e-10
0.00192
-1.68214e-10
0.00192
-1.68173e-10
0.00192
-1.68137e-10
0.00192
-1.68105e-10
0.00192
-1.68077e-10
0.00192
-1.68054e-10
0.00192
-1.68036e-10
0.00192
-1.68024e-10
0.00192
-1.68018e-10
0.00192
-1.68018e-10
0.00192
-1.68024e-10
0.00192
-1.68038e-10
0.00192
-1.68059e-10
0.00192
-1.68088e-10
0.00192
-1.68126e-10
0.00192
-1.68173e-10
0.00192
-1.68231e-10
0.00192
-1.68298e-10
0.00192
-1.68378e-10
0.00192
-1.6847e-10
0.00192
-1.68575e-10
0.00192
-1.68694e-10
0.00192
-1.68829e-10
0.00192
-1.6898e-10
0.00192
-1.69149e-10
0.00192
-1.69337e-10
0.00192
-1.69545e-10
0.00192
-1.69774e-10
0.00192
-1.70027e-10
0.00192
-1.70304e-10
0.00192
-1.70607e-10
0.00192
-1.70938e-10
0.00192
-1.713e-10
0.00192
-1.71693e-10
0.00192
-1.72121e-10
0.00192
-1.72586e-10
0.00192
-1.73089e-10
0.00192
-1.73635e-10
0.00192
-1.74225e-10
0.00192
-1.74862e-10
0.00192
-1.75549e-10
0.00192
-1.7629e-10
0.00192
-1.77088e-10
0.00192
-1.77947e-10
0.00192
-1.78869e-10
0.00192
-1.7986e-10
0.00192
-1.80923e-10
0.00192
-1.82063e-10
0.00192
-1.83283e-10
0.00192
-1.8459e-10
0.00192
-1.85987e-10
0.00192
-1.8748e-10
0.00192
-1.89073e-10
0.00192
-1.90774e-10
0.00192
-1.9259e-10
0.00192
-1.94528e-10
0.00192
-1.96597e-10
0.00192
-1.988e-10
0.00192
-2.0114e-10
0.00192
-2.03622e-10
0.00192
-2.06254e-10
0.00192
-2.09042e-10
0.00192
-2.11997e-10
0.00192
-2.15126e-10
0.00192
-2.18437e-10
0.00192
-2.21935e-10
0.00192
-2.25631e-10
0.00192
-2.29531e-10
0.00192
-2.33644e-10
0.00192
-2.37978e-10
0.00192
-2.42543e-10
0.00192
-2.47346e-10
0.00192
-2.52397e-10
0.00192
-2.57707e-10
0.00192
-2.63288e-10
0.00192
-2.69148e-10
0.00192
-2.75302e-10
0.00192
-2.81764e-10
0.00192
-2.88546e-10
0.00192
-2.95665e-10
0.00192
-3.0314e-10
0.00192
-3.10985e-10
0.00192
-3.19224e-10
0.00192
-3.27876e-10
0.00192
-3.36918e-10
0.00192
-3.46412e-10
0.00192
0.00192
-4.81571e-10
-4.81719e-10
0.00192
-4.82166e-10
0.00192
-4.82686e-10
0.00192
-4.83145e-10
0.00192
-4.83531e-10
0.00192
-4.83935e-10
0.00192
-4.8433e-10
0.00192
-4.84634e-10
0.00192
-4.8487e-10
0.00192
-4.85057e-10
0.00192
-4.85187e-10
0.00192
-4.85261e-10
0.00192
-4.85272e-10
0.00192
-4.8521e-10
0.00192
-4.85074e-10
0.00192
-4.84867e-10
0.00192
-4.84593e-10
0.00192
-4.84251e-10
0.00192
-4.83838e-10
0.00192
-4.83354e-10
0.00192
-4.82797e-10
0.00192
-4.82171e-10
0.00192
-4.81476e-10
0.00192
-4.80719e-10
0.00192
-4.79896e-10
0.00192
-4.79017e-10
0.00192
-4.78098e-10
0.00192
-4.77127e-10
0.00192
-4.76132e-10
0.00192
-4.75088e-10
0.00192
-4.74013e-10
0.00192
-4.72781e-10
0.00192
-4.71641e-10
0.00192
-4.70695e-10
0.00192
-4.70783e-10
0.00192
-4.71821e-10
0.00192
-4.72827e-10
0.00192
-4.73438e-10
0.00192
-4.73838e-10
0.00192
-4.74137e-10
0.00192
-4.74339e-10
0.00192
-4.74453e-10
0.00192
-4.745e-10
0.00192
-4.74494e-10
0.00192
-4.74443e-10
0.00192
-4.74361e-10
0.00192
-4.74251e-10
0.00192
-4.74117e-10
0.00192
-4.73967e-10
0.00192
-4.73803e-10
0.00192
-4.73628e-10
0.00192
-4.73446e-10
0.00192
-4.73257e-10
0.00192
-4.7306e-10
0.00192
-4.72863e-10
0.00192
-4.72659e-10
0.00192
-4.72455e-10
0.00192
-4.7225e-10
0.00192
-4.7204e-10
0.00192
-4.71832e-10
0.00192
-4.71623e-10
0.00192
-4.71413e-10
0.00192
-4.71204e-10
0.00192
-4.70993e-10
0.00192
-4.70783e-10
0.00192
-4.70574e-10
0.00192
-4.70365e-10
0.00192
-4.70157e-10
0.00192
-4.69949e-10
0.00192
-4.69744e-10
0.00192
-4.69539e-10
0.00192
-4.69334e-10
0.00192
-4.69131e-10
0.00192
-4.68929e-10
0.00192
-4.68728e-10
0.00192
-4.68529e-10
0.00192
-4.68332e-10
0.00192
-4.68137e-10
0.00192
-4.67945e-10
0.00192
-4.67756e-10
0.00192
-4.67569e-10
0.00192
-4.67386e-10
0.00192
-4.67206e-10
0.00192
-4.67029e-10
0.00192
-4.66857e-10
0.00192
-4.6669e-10
0.00192
-4.66527e-10
0.00192
-4.66369e-10
0.00192
-4.66217e-10
0.00192
-4.66071e-10
0.00192
-4.65931e-10
0.00192
-4.65798e-10
0.00192
-4.65673e-10
0.00192
-4.65556e-10
0.00192
-4.65446e-10
0.00192
-4.65347e-10
0.00192
-4.65257e-10
0.00192
-4.65178e-10
0.00192
-4.65111e-10
0.00192
-4.65056e-10
0.00192
-4.65014e-10
0.00192
-4.64986e-10
0.00192
-4.64974e-10
0.00192
-4.64978e-10
0.00192
-4.65e-10
0.00192
-4.65041e-10
0.00192
-4.65102e-10
0.00192
-4.65184e-10
0.00192
-4.6529e-10
0.00192
-4.6542e-10
0.00192
-4.65576e-10
0.00192
-4.65761e-10
0.00192
-4.65975e-10
0.00192
-4.66221e-10
0.00192
-4.66501e-10
0.00192
-4.66817e-10
0.00192
-4.67173e-10
0.00192
-4.67569e-10
0.00192
-4.68009e-10
0.00192
-4.68495e-10
0.00192
-4.69031e-10
0.00192
-4.69619e-10
0.00192
-4.70262e-10
0.00192
-4.70965e-10
0.00192
-4.71729e-10
0.00192
-4.72559e-10
0.00192
-4.73458e-10
0.00192
-4.74431e-10
0.00192
-4.7548e-10
0.00192
-4.76611e-10
0.00192
-4.77829e-10
0.00192
-4.79136e-10
0.00192
-4.8054e-10
0.00192
-4.82045e-10
0.00192
-4.83657e-10
0.00192
-4.85381e-10
0.00192
-4.87222e-10
0.00192
-4.89182e-10
0.00192
-4.91267e-10
0.00192
-4.9348e-10
0.00192
-4.95826e-10
0.00192
-4.98313e-10
0.00192
-5.00945e-10
0.00192
-5.03727e-10
0.00192
-5.06663e-10
0.00192
-5.09759e-10
0.00192
-5.1302e-10
0.00192
-5.16449e-10
0.00192
-5.20053e-10
0.00192
-5.23835e-10
0.00192
-5.27799e-10
0.00192
-5.31949e-10
0.00192
-5.36292e-10
0.00192
-5.40831e-10
0.00192
-5.45571e-10
0.00192
-5.50517e-10
0.00192
-5.55677e-10
0.00192
-5.61054e-10
0.00192
-5.66655e-10
0.00192
-5.72491e-10
0.00192
-5.78564e-10
0.00192
-5.84889e-10
0.00192
-5.91479e-10
0.00192
-5.98316e-10
0.00192
-6.05477e-10
0.00192
-6.12946e-10
0.00192
-6.21277e-10
0.00192
-6.30346e-10
0.00192
-6.39848e-10
0.00192
-6.49834e-10
0.00192
-6.60474e-10
0.00192
-6.71901e-10
0.00192
-6.84232e-10
0.00192
-6.97613e-10
0.00192001
-7.12208e-10
0.00192001
-7.28214e-10
0.00192001
-7.4582e-10
0.00192001
-7.65302e-10
0.00192001
-7.86818e-10
0.00192001
-8.10806e-10
0.00192001
-8.37258e-10
0.00192001
-8.66718e-10
0.00192001
0.00192001
-7.93532e-10
-7.93827e-10
0.00192
-7.94347e-10
0.00192
-7.94648e-10
0.00192
-7.94852e-10
0.00192
-7.95097e-10
0.00192
-7.95321e-10
0.00192
-7.95444e-10
0.00192
-7.95506e-10
0.00192
-7.95521e-10
0.00192
-7.95477e-10
0.00192
-7.95383e-10
0.00192
-7.95224e-10
0.00192
-7.94989e-10
0.00192
-7.9468e-10
0.00192
-7.94302e-10
0.00192
-7.93855e-10
0.00192
-7.93341e-10
0.00192
-7.92753e-10
0.00192
-7.92093e-10
0.00192
-7.91359e-10
0.00192
-7.90556e-10
0.00192
-7.89681e-10
0.00192
-7.88742e-10
0.00192
-7.87735e-10
0.00192
-7.86667e-10
0.00192
-7.85553e-10
0.00192
-7.84383e-10
0.00192
-7.8317e-10
0.00192
-7.8189e-10
0.00192
-7.80551e-10
0.00192
-7.79056e-10
0.00192
-7.77647e-10
0.00192
-7.76468e-10
0.00192
-7.76156e-10
0.00192
-7.76833e-10
0.00192
-7.77663e-10
0.00192
-7.7817e-10
0.00192
-7.78459e-10
0.00192
-7.78648e-10
0.00192
-7.78744e-10
0.00192
-7.78753e-10
0.00192
-7.78691e-10
0.00192
-7.7858e-10
0.00192
-7.7842e-10
0.00192
-7.78229e-10
0.00192
-7.7801e-10
0.00192
-7.77766e-10
0.00192
-7.77506e-10
0.00192
-7.77232e-10
0.00192
-7.76944e-10
0.00192
-7.76649e-10
0.00192
-7.76346e-10
0.00192
-7.76033e-10
0.00192
-7.75721e-10
0.00192
-7.754e-10
0.00192
-7.75076e-10
0.00192
-7.74751e-10
0.00192
-7.7442e-10
0.00192
-7.74088e-10
0.00192
-7.73755e-10
0.00192
-7.73418e-10
0.00192
-7.73081e-10
0.00192
-7.72742e-10
0.00192
-7.72402e-10
0.00192
-7.72062e-10
0.00192
-7.71721e-10
0.00192
-7.71379e-10
0.00192
-7.71036e-10
0.00192
-7.70694e-10
0.00192
-7.70352e-10
0.00192
-7.70009e-10
0.00192
-7.69667e-10
0.00192
-7.69325e-10
0.00192
-7.68983e-10
0.00192
-7.68642e-10
0.00192
-7.68302e-10
0.00192
-7.67964e-10
0.00192
-7.67627e-10
0.00192
-7.67292e-10
0.00192
-7.66958e-10
0.00192
-7.66628e-10
0.00192
-7.66301e-10
0.00192
-7.65976e-10
0.00192
-7.65654e-10
0.00192
-7.65337e-10
0.00192
-7.65023e-10
0.00192
-7.64713e-10
0.00192
-7.64409e-10
0.00192
-7.64111e-10
0.00192
-7.63817e-10
0.00192
-7.6353e-10
0.00192
-7.6325e-10
0.00192
-7.62977e-10
0.00192
-7.62711e-10
0.00192
-7.62454e-10
0.00192
-7.62206e-10
0.00192
-7.61969e-10
0.00192
-7.61741e-10
0.00192
-7.61525e-10
0.00192
-7.61322e-10
0.00192
-7.61131e-10
0.00192
-7.60955e-10
0.00192
-7.60794e-10
0.00192
-7.6065e-10
0.00192
-7.60523e-10
0.00192
-7.60414e-10
0.00192
-7.60326e-10
0.00192
-7.60259e-10
0.00192
-7.60215e-10
0.00192
-7.60195e-10
0.00192
-7.60201e-10
0.00192
-7.60235e-10
0.00192
-7.60297e-10
0.00192
-7.60391e-10
0.00192
-7.60519e-10
0.00192
-7.60683e-10
0.00192
-7.60884e-10
0.00192
-7.61125e-10
0.00192
-7.61408e-10
0.00192
-7.61735e-10
0.00192
-7.62111e-10
0.00192
-7.62537e-10
0.00192
-7.63016e-10
0.00192
-7.63551e-10
0.00192
-7.64145e-10
0.00192
-7.64801e-10
0.00192
-7.65522e-10
0.00192
-7.66312e-10
0.00192
-7.67175e-10
0.00192
-7.68114e-10
0.00192
-7.69131e-10
0.00192
-7.70232e-10
0.00192
-7.71421e-10
0.00192
-7.72702e-10
0.00192
-7.74077e-10
0.00192
-7.7555e-10
0.00192
-7.77126e-10
0.00192
-7.78807e-10
0.00192
-7.80594e-10
0.00192
-7.8249e-10
0.00192
-7.845e-10
0.00192
-7.86625e-10
0.00192
-7.88869e-10
0.00192
-7.91233e-10
0.00192
-7.9372e-10
0.00192
-7.96332e-10
0.00192
-7.99068e-10
0.00192
-8.01929e-10
0.00192
-8.04917e-10
0.00192
-8.08029e-10
0.00192
-8.11266e-10
0.00192
-8.14627e-10
0.00192
-8.18111e-10
0.00192
-8.21714e-10
0.00192
-8.25436e-10
0.00192
-8.29276e-10
0.00192
-8.3323e-10
0.00192
-8.37296e-10
0.00192
-8.41474e-10
0.00192
-8.45757e-10
0.00192
-8.50151e-10
0.00192
-8.54658e-10
0.00192
-8.59278e-10
0.00192
-8.64078e-10
0.00192
-8.69091e-10
0.00192
-8.74341e-10
0.00192
-8.80078e-10
0.00192
-8.86154e-10
0.00192
-8.92482e-10
0.00192
-8.99157e-10
0.00192
-9.06292e-10
0.00192
-9.13987e-10
0.00192
-9.22361e-10
0.00192001
-9.31555e-10
0.00192001
-9.41738e-10
0.00192001
-9.53074e-10
0.00192001
-9.65809e-10
0.00192001
-9.80072e-10
0.00192001
-9.96253e-10
0.00192001
-1.01428e-09
0.00192001
-1.03454e-09
0.00192001
0.00192001
-1.10542e-09
0.00192
-1.10589e-09
0.00192
-1.10606e-09
0.00192
-1.1061e-09
0.00192
-1.1062e-09
0.00192
-1.10625e-09
0.00192
-1.10619e-09
0.00192
-1.10608e-09
0.00192
-1.10593e-09
0.00192
-1.10572e-09
0.00192
-1.10545e-09
0.00192
-1.10513e-09
0.00192
-1.10472e-09
0.00192
-1.10424e-09
0.00192
-1.10369e-09
0.00192
-1.10307e-09
0.00192
-1.10238e-09
0.00192
-1.10162e-09
0.00192
-1.10078e-09
0.00192
-1.09987e-09
0.00192
-1.09889e-09
0.00192
-1.09784e-09
0.00192
-1.09671e-09
0.00192
-1.09552e-09
0.00192
-1.09427e-09
0.00192
-1.09296e-09
0.00192
-1.09158e-09
0.00192
-1.09015e-09
0.00192
-1.08864e-09
0.00192
-1.08705e-09
0.00192
-1.08533e-09
0.00192
-1.08368e-09
0.00192
-1.08231e-09
0.00192
-1.08168e-09
0.00192
-1.08198e-09
0.00192
-1.08258e-09
0.00192
-1.08295e-09
0.00192
-1.08312e-09
0.00192
-1.08318e-09
0.00192
-1.08316e-09
0.00192
-1.08306e-09
0.00192
-1.08289e-09
0.00192
-1.08267e-09
0.00192
-1.0824e-09
0.00192
-1.0821e-09
0.00192
-1.08177e-09
0.00192
-1.08141e-09
0.00192
-1.08104e-09
0.00192
-1.08066e-09
0.00192
-1.08026e-09
0.00192
-1.07985e-09
0.00192
-1.07943e-09
0.00192
-1.079e-09
0.00192
-1.07858e-09
0.00192
-1.07814e-09
0.00192
-1.07769e-09
0.00192
-1.07725e-09
0.00192
-1.07679e-09
0.00192
-1.07634e-09
0.00192
-1.07588e-09
0.00192
-1.07542e-09
0.00192
-1.07495e-09
0.00192
-1.07449e-09
0.00192
-1.07402e-09
0.00192
-1.07355e-09
0.00192
-1.07307e-09
0.00192
-1.0726e-09
0.00192
-1.07212e-09
0.00192
-1.07164e-09
0.00192
-1.07116e-09
0.00192
-1.07068e-09
0.00192
-1.0702e-09
0.00192
-1.06972e-09
0.00192
-1.06923e-09
0.00192
-1.06875e-09
0.00192
-1.06827e-09
0.00192
-1.06778e-09
0.00192
-1.0673e-09
0.00192
-1.06682e-09
0.00192
-1.06634e-09
0.00192
-1.06587e-09
0.00192
-1.06539e-09
0.00192
-1.06492e-09
0.00192
-1.06445e-09
0.00192
-1.06398e-09
0.00192
-1.06351e-09
0.00192
-1.06305e-09
0.00192
-1.0626e-09
0.00192
-1.06214e-09
0.00192
-1.0617e-09
0.00192
-1.06126e-09
0.00192
-1.06082e-09
0.00192
-1.06039e-09
0.00192
-1.05997e-09
0.00192
-1.05955e-09
0.00192
-1.05915e-09
0.00192
-1.05875e-09
0.00192
-1.05836e-09
0.00192
-1.05799e-09
0.00192
-1.05762e-09
0.00192
-1.05727e-09
0.00192
-1.05692e-09
0.00192
-1.0566e-09
0.00192
-1.05629e-09
0.00192
-1.05599e-09
0.00192
-1.05571e-09
0.00192
-1.05545e-09
0.00192
-1.05521e-09
0.00192
-1.05499e-09
0.00192
-1.0548e-09
0.00192
-1.05462e-09
0.00192
-1.05447e-09
0.00192
-1.05435e-09
0.00192
-1.05426e-09
0.00192
-1.0542e-09
0.00192
-1.05417e-09
0.00192
-1.05417e-09
0.00192
-1.05421e-09
0.00192
-1.05429e-09
0.00192
-1.05441e-09
0.00192
-1.05457e-09
0.00192
-1.05477e-09
0.00192
-1.05503e-09
0.00192
-1.05533e-09
0.00192
-1.05568e-09
0.00192
-1.05609e-09
0.00192
-1.05656e-09
0.00192
-1.05709e-09
0.00192
-1.05768e-09
0.00192
-1.05833e-09
0.00192
-1.05905e-09
0.00192
-1.05985e-09
0.00192
-1.06072e-09
0.00192
-1.06166e-09
0.00192
-1.06268e-09
0.00192
-1.06378e-09
0.00192
-1.06497e-09
0.00192
-1.06624e-09
0.00192
-1.06759e-09
0.00192
-1.06903e-09
0.00192
-1.07056e-09
0.00192
-1.07217e-09
0.00192
-1.07387e-09
0.00192
-1.07565e-09
0.00192
-1.07752e-09
0.00192
-1.07947e-09
0.00192
-1.08151e-09
0.00192
-1.08361e-09
0.00192
-1.0858e-09
0.00192
-1.08805e-09
0.00192
-1.09036e-09
0.00192
-1.09272e-09
0.00192
-1.09514e-09
0.00192
-1.09759e-09
0.00192
-1.10007e-09
0.00192
-1.10258e-09
0.00192
-1.10509e-09
0.00192
-1.10761e-09
0.00192
-1.11011e-09
0.00192
-1.11259e-09
0.00192
-1.11503e-09
0.00192
-1.11744e-09
0.00192
-1.11981e-09
0.00192
-1.12219e-09
0.00192
-1.12461e-09
0.00192
-1.12688e-09
0.00192
-1.12932e-09
0.00192
-1.13191e-09
0.00192
-1.13452e-09
0.00192
-1.13718e-09
0.00192
-1.13998e-09
0.00192
-1.14298e-09
0.00192
-1.1463e-09
0.00192001
-1.15003e-09
0.00192001
-1.15433e-09
0.00192001
-1.15933e-09
0.00192001
-1.16524e-09
0.00192001
-1.17217e-09
0.00192001
-1.18047e-09
0.00192001
-1.19e-09
0.00192001
-1.20108e-09
0.00192001
0.00192001
-1.41725e-09
-1.41726e-09
0.00192
-1.41734e-09
0.00192
-1.4173e-09
0.00192
-1.41725e-09
0.00192
-1.41712e-09
0.00192
-1.41688e-09
0.00192
-1.41661e-09
0.00192
-1.41629e-09
0.00192
-1.4159e-09
0.00192
-1.41548e-09
0.00192
-1.41498e-09
0.00192
-1.4144e-09
0.00192
-1.41375e-09
0.00192
-1.41303e-09
0.00192
-1.41223e-09
0.00192
-1.41137e-09
0.00192
-1.41044e-09
0.00192
-1.40943e-09
0.00192
-1.40834e-09
0.00192
-1.40718e-09
0.00192
-1.40594e-09
0.00192
-1.40464e-09
0.00192
-1.40326e-09
0.00192
-1.40182e-09
0.00192
-1.40031e-09
0.00192
-1.39874e-09
0.00192
-1.39709e-09
0.00192
-1.39536e-09
0.00192
-1.39353e-09
0.00192
-1.3916e-09
0.00192
-1.38975e-09
0.00192
-1.38821e-09
0.00192
-1.3873e-09
0.00192
-1.38725e-09
0.00192
-1.38758e-09
0.00192
-1.38778e-09
0.00192
-1.38781e-09
0.00192
-1.38774e-09
0.00192
-1.3876e-09
0.00192
-1.38739e-09
0.00192
-1.3871e-09
0.00192
-1.38676e-09
0.00192
-1.38638e-09
0.00192
-1.38597e-09
0.00192
-1.38553e-09
0.00192
-1.38506e-09
0.00192
-1.38458e-09
0.00192
-1.38408e-09
0.00192
-1.38357e-09
0.00192
-1.38305e-09
0.00192
-1.38252e-09
0.00192
-1.38197e-09
0.00192
-1.38143e-09
0.00192
-1.38087e-09
0.00192
-1.38031e-09
0.00192
-1.37974e-09
0.00192
-1.37917e-09
0.00192
-1.37859e-09
0.00192
-1.37801e-09
0.00192
-1.37742e-09
0.00192
-1.37683e-09
0.00192
-1.37623e-09
0.00192
-1.37563e-09
0.00192
-1.37503e-09
0.00192
-1.37442e-09
0.00192
-1.37381e-09
0.00192
-1.3732e-09
0.00192
-1.37258e-09
0.00192
-1.37197e-09
0.00192
-1.37135e-09
0.00192
-1.37073e-09
0.00192
-1.37011e-09
0.00192
-1.36948e-09
0.00192
-1.36886e-09
0.00192
-1.36823e-09
0.00192
-1.3676e-09
0.00192
-1.36698e-09
0.00192
-1.36635e-09
0.00192
-1.36573e-09
0.00192
-1.3651e-09
0.00192
-1.36448e-09
0.00192
-1.36386e-09
0.00192
-1.36323e-09
0.00192
-1.36262e-09
0.00192
-1.362e-09
0.00192
-1.36139e-09
0.00192
-1.36078e-09
0.00192
-1.36017e-09
0.00192
-1.35957e-09
0.00192
-1.35898e-09
0.00192
-1.35838e-09
0.00192
-1.3578e-09
0.00192
-1.35722e-09
0.00192
-1.35665e-09
0.00192
-1.35608e-09
0.00192
-1.35553e-09
0.00192
-1.35498e-09
0.00192
-1.35444e-09
0.00192
-1.35391e-09
0.00192
-1.35339e-09
0.00192
-1.35289e-09
0.00192
-1.35239e-09
0.00192
-1.35191e-09
0.00192
-1.35145e-09
0.00192
-1.351e-09
0.00192
-1.35057e-09
0.00192
-1.35015e-09
0.00192
-1.34976e-09
0.00192
-1.34938e-09
0.00192
-1.34903e-09
0.00192
-1.3487e-09
0.00192
-1.34839e-09
0.00192
-1.34811e-09
0.00192
-1.34785e-09
0.00192
-1.34763e-09
0.00192
-1.34743e-09
0.00192
-1.34727e-09
0.00192
-1.34714e-09
0.00192
-1.34704e-09
0.00192
-1.34699e-09
0.00192
-1.34697e-09
0.00192
-1.347e-09
0.00192
-1.34707e-09
0.00192
-1.34718e-09
0.00192
-1.34734e-09
0.00192
-1.34755e-09
0.00192
-1.34781e-09
0.00192
-1.34812e-09
0.00192
-1.34848e-09
0.00192
-1.34891e-09
0.00192
-1.34939e-09
0.00192
-1.34993e-09
0.00192
-1.35054e-09
0.00192
-1.3512e-09
0.00192
-1.35192e-09
0.00192
-1.35271e-09
0.00192
-1.35357e-09
0.00192
-1.35448e-09
0.00192
-1.35546e-09
0.00192
-1.35649e-09
0.00192
-1.35758e-09
0.00192
-1.35873e-09
0.00192
-1.35992e-09
0.00192
-1.36116e-09
0.00192
-1.36245e-09
0.00192
-1.36377e-09
0.00192
-1.36511e-09
0.00192
-1.36648e-09
0.00192
-1.36785e-09
0.00192
-1.36923e-09
0.00192
-1.37059e-09
0.00192
-1.37192e-09
0.00192
-1.37321e-09
0.00192
-1.37444e-09
0.00192
-1.3756e-09
0.00192
-1.37666e-09
0.00192
-1.3776e-09
0.00192
-1.37841e-09
0.00192
-1.37907e-09
0.00192
-1.37954e-09
0.00192
-1.37983e-09
0.00192
-1.37993e-09
0.00192
-1.37984e-09
0.00192
-1.37956e-09
0.00192
-1.37889e-09
0.00192
-1.37805e-09
0.00192
-1.37713e-09
0.00192
-1.37598e-09
0.00192
-1.37459e-09
0.00192
-1.373e-09
0.00192
-1.37128e-09
0.00192
-1.36948e-09
0.00192001
-1.3677e-09
0.00192001
-1.36605e-09
0.00192001
-1.36464e-09
0.00192001
-1.36367e-09
0.00192001
-1.36319e-09
0.00192001
-1.36354e-09
0.00192001
-1.36453e-09
0.00192001
-1.36645e-09
0.00192001
0.00192001
-1.72855e-09
-1.72845e-09
0.00192
-1.7284e-09
0.00192
-1.72823e-09
0.00192
-1.72791e-09
0.00192
-1.72751e-09
0.00192
-1.72708e-09
0.00192
-1.72659e-09
0.00192
-1.72604e-09
0.00192
-1.72545e-09
0.00192
-1.72478e-09
0.00192
-1.72403e-09
0.00192
-1.72321e-09
0.00192
-1.72232e-09
0.00192
-1.72135e-09
0.00192
-1.72032e-09
0.00192
-1.71921e-09
0.00192
-1.71802e-09
0.00192
-1.71676e-09
0.00192
-1.71542e-09
0.00192
-1.71401e-09
0.00192
-1.71252e-09
0.00192
-1.71096e-09
0.00192
-1.70933e-09
0.00192
-1.70762e-09
0.00192
-1.70585e-09
0.00192
-1.70399e-09
0.00192
-1.70204e-09
0.00192
-1.7e-09
0.00192
-1.69788e-09
0.00192
-1.69585e-09
0.00192
-1.69413e-09
0.00192
-1.69298e-09
0.00192
-1.6926e-09
0.00192
-1.69265e-09
0.00192
-1.69267e-09
0.00192
-1.69254e-09
0.00192
-1.69233e-09
0.00192
-1.69206e-09
0.00192
-1.69172e-09
0.00192
-1.69132e-09
0.00192
-1.69086e-09
0.00192
-1.69037e-09
0.00192
-1.68984e-09
0.00192
-1.68929e-09
0.00192
-1.68871e-09
0.00192
-1.68811e-09
0.00192
-1.6875e-09
0.00192
-1.68688e-09
0.00192
-1.68624e-09
0.00192
-1.6856e-09
0.00192
-1.68494e-09
0.00192
-1.68428e-09
0.00192
-1.6836e-09
0.00192
-1.68292e-09
0.00192
-1.68224e-09
0.00192
-1.68154e-09
0.00192
-1.68084e-09
0.00192
-1.68013e-09
0.00192
-1.67941e-09
0.00192
-1.6787e-09
0.00192
-1.67797e-09
0.00192
-1.67724e-09
0.00192
-1.67651e-09
0.00192
-1.67577e-09
0.00192
-1.67503e-09
0.00192
-1.67428e-09
0.00192
-1.67353e-09
0.00192
-1.67277e-09
0.00192
-1.67201e-09
0.00192
-1.67125e-09
0.00192
-1.67049e-09
0.00192
-1.66973e-09
0.00192
-1.66896e-09
0.00192
-1.66819e-09
0.00192
-1.66742e-09
0.00192
-1.66665e-09
0.00192
-1.66588e-09
0.00192
-1.66511e-09
0.00192
-1.66433e-09
0.00192
-1.66356e-09
0.00192
-1.66279e-09
0.00192
-1.66202e-09
0.00192
-1.66125e-09
0.00192
-1.66048e-09
0.00192
-1.65972e-09
0.00192
-1.65896e-09
0.00192
-1.6582e-09
0.00192
-1.65744e-09
0.00192
-1.65669e-09
0.00192
-1.65595e-09
0.00192
-1.6552e-09
0.00192
-1.65447e-09
0.00192
-1.65374e-09
0.00192
-1.65301e-09
0.00192
-1.6523e-09
0.00192
-1.65159e-09
0.00192
-1.65089e-09
0.00192
-1.65019e-09
0.00192
-1.64951e-09
0.00192
-1.64884e-09
0.00192
-1.64818e-09
0.00192
-1.64753e-09
0.00192
-1.6469e-09
0.00192
-1.64627e-09
0.00192
-1.64567e-09
0.00192
-1.64508e-09
0.00192
-1.64451e-09
0.00192
-1.64395e-09
0.00192
-1.64342e-09
0.00192
-1.6429e-09
0.00192
-1.6424e-09
0.00192
-1.64193e-09
0.00192
-1.64148e-09
0.00192
-1.64106e-09
0.00192
-1.64067e-09
0.00192
-1.6403e-09
0.00192
-1.63996e-09
0.00192
-1.63965e-09
0.00192
-1.63938e-09
0.00192
-1.63914e-09
0.00192
-1.63893e-09
0.00192
-1.63876e-09
0.00192
-1.63863e-09
0.00192
-1.63854e-09
0.00192
-1.63848e-09
0.00192
-1.63847e-09
0.00192
-1.63851e-09
0.00192
-1.63858e-09
0.00192
-1.6387e-09
0.00192
-1.63887e-09
0.00192
-1.63908e-09
0.00192
-1.63934e-09
0.00192
-1.63963e-09
0.00192
-1.63998e-09
0.00192
-1.64037e-09
0.00192
-1.6408e-09
0.00192
-1.64127e-09
0.00192
-1.64177e-09
0.00192
-1.6423e-09
0.00192
-1.64287e-09
0.00192
-1.64345e-09
0.00192
-1.64405e-09
0.00192
-1.64466e-09
0.00192
-1.64527e-09
0.00192
-1.64586e-09
0.00192
-1.64644e-09
0.00192
-1.64698e-09
0.00192
-1.64747e-09
0.00192
-1.64789e-09
0.00192
-1.64823e-09
0.00192
-1.64847e-09
0.00192
-1.64859e-09
0.00192
-1.64855e-09
0.00192
-1.64835e-09
0.00192
-1.64794e-09
0.00192
-1.6473e-09
0.00192
-1.64641e-09
0.00192
-1.64522e-09
0.00192
-1.64371e-09
0.00192
-1.64186e-09
0.00192
-1.63965e-09
0.00192
-1.63704e-09
0.00192
-1.63403e-09
0.00192
-1.63041e-09
0.00192
-1.62631e-09
0.00192
-1.62185e-09
0.00192
-1.61691e-09
0.00192
-1.61143e-09
0.00192
-1.60542e-09
0.00192
-1.59892e-09
0.00192
-1.59196e-09
0.00192001
-1.58462e-09
0.00192001
-1.57696e-09
0.00192001
-1.56909e-09
0.00192001
-1.56116e-09
0.00192001
-1.55321e-09
0.00192001
-1.54554e-09
0.00192001
-1.53794e-09
0.00192001
-1.5307e-09
0.00192001
0.00192001
-2.03954e-09
0.00192
-2.03942e-09
0.00192
-2.03913e-09
0.00192
-2.03862e-09
0.00192
-2.03807e-09
0.00192
-2.0375e-09
0.00192
-2.03683e-09
0.00192
-2.03612e-09
0.00192
-2.03537e-09
0.00192
-2.03454e-09
0.00192
-2.03361e-09
0.00192
-2.03262e-09
0.00192
-2.03156e-09
0.00192
-2.03042e-09
0.00192
-2.02922e-09
0.00192
-2.02793e-09
0.00192
-2.02657e-09
0.00192
-2.02513e-09
0.00192
-2.02362e-09
0.00192
-2.02202e-09
0.00192
-2.02036e-09
0.00192
-2.01861e-09
0.00192
-2.01679e-09
0.00192
-2.01489e-09
0.00192
-2.01292e-09
0.00192
-2.01085e-09
0.00192
-2.0087e-09
0.00192
-2.00646e-09
0.00192
-2.00416e-09
0.00192
-2.00196e-09
0.00192
-2.00008e-09
0.00192
-1.99871e-09
0.00192
-1.99803e-09
0.00192
-1.9978e-09
0.00192
-1.9976e-09
0.00192
-1.99731e-09
0.00192
-1.99695e-09
0.00192
-1.99654e-09
0.00192
-1.99607e-09
0.00192
-1.99554e-09
0.00192
-1.99497e-09
0.00192
-1.99436e-09
0.00192
-1.99372e-09
0.00192
-1.99305e-09
0.00192
-1.99236e-09
0.00192
-1.99165e-09
0.00192
-1.99093e-09
0.00192
-1.99019e-09
0.00192
-1.98944e-09
0.00192
-1.98868e-09
0.00192
-1.9879e-09
0.00192
-1.98712e-09
0.00192
-1.98633e-09
0.00192
-1.98553e-09
0.00192
-1.98473e-09
0.00192
-1.98391e-09
0.00192
-1.98308e-09
0.00192
-1.98225e-09
0.00192
-1.98141e-09
0.00192
-1.98056e-09
0.00192
-1.97971e-09
0.00192
-1.97885e-09
0.00192
-1.97798e-09
0.00192
-1.97711e-09
0.00192
-1.97624e-09
0.00192
-1.97535e-09
0.00192
-1.97447e-09
0.00192
-1.97358e-09
0.00192
-1.97268e-09
0.00192
-1.97178e-09
0.00192
-1.97088e-09
0.00192
-1.96997e-09
0.00192
-1.96906e-09
0.00192
-1.96815e-09
0.00192
-1.96724e-09
0.00192
-1.96632e-09
0.00192
-1.9654e-09
0.00192
-1.96448e-09
0.00192
-1.96356e-09
0.00192
-1.96264e-09
0.00192
-1.96172e-09
0.00192
-1.9608e-09
0.00192
-1.95988e-09
0.00192
-1.95897e-09
0.00192
-1.95805e-09
0.00192
-1.95713e-09
0.00192
-1.95622e-09
0.00192
-1.95531e-09
0.00192
-1.95441e-09
0.00192
-1.9535e-09
0.00192
-1.9526e-09
0.00192
-1.95171e-09
0.00192
-1.95082e-09
0.00192
-1.94994e-09
0.00192
-1.94906e-09
0.00192
-1.94819e-09
0.00192
-1.94733e-09
0.00192
-1.94647e-09
0.00192
-1.94562e-09
0.00192
-1.94478e-09
0.00192
-1.94396e-09
0.00192
-1.94314e-09
0.00192
-1.94233e-09
0.00192
-1.94154e-09
0.00192
-1.94076e-09
0.00192
-1.93999e-09
0.00192
-1.93924e-09
0.00192
-1.93851e-09
0.00192
-1.93779e-09
0.00192
-1.93709e-09
0.00192
-1.9364e-09
0.00192
-1.93574e-09
0.00192
-1.9351e-09
0.00192
-1.93448e-09
0.00192
-1.93388e-09
0.00192
-1.93331e-09
0.00192
-1.93276e-09
0.00192
-1.93223e-09
0.00192
-1.93174e-09
0.00192
-1.93127e-09
0.00192
-1.93083e-09
0.00192
-1.93042e-09
0.00192
-1.93004e-09
0.00192
-1.92969e-09
0.00192
-1.92938e-09
0.00192
-1.92909e-09
0.00192
-1.92884e-09
0.00192
-1.92862e-09
0.00192
-1.92843e-09
0.00192
-1.92828e-09
0.00192
-1.92815e-09
0.00192
-1.92806e-09
0.00192
-1.92799e-09
0.00192
-1.92795e-09
0.00192
-1.92793e-09
0.00192
-1.92793e-09
0.00192
-1.92795e-09
0.00192
-1.92798e-09
0.00192
-1.92801e-09
0.00192
-1.92803e-09
0.00192
-1.92805e-09
0.00192
-1.92804e-09
0.00192
-1.92801e-09
0.00192
-1.92793e-09
0.00192
-1.9278e-09
0.00192
-1.92759e-09
0.00192
-1.9273e-09
0.00192
-1.92689e-09
0.00192
-1.92636e-09
0.00192
-1.92567e-09
0.00192
-1.92481e-09
0.00192
-1.92373e-09
0.00192
-1.92242e-09
0.00192
-1.92084e-09
0.00192
-1.91895e-09
0.00192
-1.91672e-09
0.00192
-1.91411e-09
0.00192
-1.91106e-09
0.00192
-1.90755e-09
0.00192
-1.90354e-09
0.00192
-1.89899e-09
0.00192
-1.89385e-09
0.00192
-1.88806e-09
0.00192
-1.88147e-09
0.00192
-1.87412e-09
0.00192
-1.86611e-09
0.00192
-1.85734e-09
0.00192
-1.84774e-09
0.00192
-1.83728e-09
0.00192
-1.82596e-09
0.00192
-1.8138e-09
0.00192001
-1.80084e-09
0.00192001
-1.78713e-09
0.00192001
-1.77273e-09
0.00192001
-1.75779e-09
0.00192001
-1.7423e-09
0.00192001
-1.72655e-09
0.00192001
-1.71031e-09
0.00192001
-1.6939e-09
0.00192001
0.00192001
-2.35092e-09
-2.35031e-09
0.00192
-2.34992e-09
0.00192
-2.34925e-09
0.00192
-2.34857e-09
0.00192
-2.34785e-09
0.00192
-2.34702e-09
0.00192
-2.34615e-09
0.00192
-2.34524e-09
0.00192
-2.34424e-09
0.00192
-2.34315e-09
0.00192
-2.34198e-09
0.00192
-2.34075e-09
0.00192
-2.33945e-09
0.00192
-2.33807e-09
0.00192
-2.33661e-09
0.00192
-2.33508e-09
0.00192
-2.33346e-09
0.00192
-2.33177e-09
0.00192
-2.33e-09
0.00192
-2.32815e-09
0.00192
-2.32622e-09
0.00192
-2.32421e-09
0.00192
-2.32213e-09
0.00192
-2.31996e-09
0.00192
-2.31769e-09
0.00192
-2.31534e-09
0.00192
-2.31291e-09
0.00192
-2.31045e-09
0.00192
-2.30809e-09
0.00192
-2.30605e-09
0.00192
-2.30447e-09
0.00192
-2.30351e-09
0.00192
-2.303e-09
0.00192
-2.30258e-09
0.00192
-2.30211e-09
0.00192
-2.3016e-09
0.00192
-2.30104e-09
0.00192
-2.30044e-09
0.00192
-2.29979e-09
0.00192
-2.29909e-09
0.00192
-2.29836e-09
0.00192
-2.2976e-09
0.00192
-2.29682e-09
0.00192
-2.29601e-09
0.00192
-2.29519e-09
0.00192
-2.29435e-09
0.00192
-2.2935e-09
0.00192
-2.29264e-09
0.00192
-2.29176e-09
0.00192
-2.29087e-09
0.00192
-2.28997e-09
0.00192
-2.28906e-09
0.00192
-2.28814e-09
0.00192
-2.28722e-09
0.00192
-2.28628e-09
0.00192
-2.28533e-09
0.00192
-2.28437e-09
0.00192
-2.2834e-09
0.00192
-2.28243e-09
0.00192
-2.28145e-09
0.00192
-2.28046e-09
0.00192
-2.27946e-09
0.00192
-2.27846e-09
0.00192
-2.27745e-09
0.00192
-2.27643e-09
0.00192
-2.2754e-09
0.00192
-2.27438e-09
0.00192
-2.27334e-09
0.00192
-2.2723e-09
0.00192
-2.27126e-09
0.00192
-2.27022e-09
0.00192
-2.26916e-09
0.00192
-2.26811e-09
0.00192
-2.26705e-09
0.00192
-2.26599e-09
0.00192
-2.26492e-09
0.00192
-2.26386e-09
0.00192
-2.26279e-09
0.00192
-2.26172e-09
0.00192
-2.26065e-09
0.00192
-2.25958e-09
0.00192
-2.25851e-09
0.00192
-2.25744e-09
0.00192
-2.25638e-09
0.00192
-2.25531e-09
0.00192
-2.25424e-09
0.00192
-2.25318e-09
0.00192
-2.25212e-09
0.00192
-2.25106e-09
0.00192
-2.25e-09
0.00192
-2.24895e-09
0.00192
-2.2479e-09
0.00192
-2.24686e-09
0.00192
-2.24582e-09
0.00192
-2.24479e-09
0.00192
-2.24376e-09
0.00192
-2.24274e-09
0.00192
-2.24173e-09
0.00192
-2.24072e-09
0.00192
-2.23973e-09
0.00192
-2.23874e-09
0.00192
-2.23776e-09
0.00192
-2.23679e-09
0.00192
-2.23584e-09
0.00192
-2.2349e-09
0.00192
-2.23397e-09
0.00192
-2.23305e-09
0.00192
-2.23215e-09
0.00192
-2.23126e-09
0.00192
-2.23039e-09
0.00192
-2.22953e-09
0.00192
-2.22869e-09
0.00192
-2.22787e-09
0.00192
-2.22707e-09
0.00192
-2.22629e-09
0.00192
-2.22553e-09
0.00192
-2.22479e-09
0.00192
-2.22407e-09
0.00192
-2.22337e-09
0.00192
-2.2227e-09
0.00192
-2.22204e-09
0.00192
-2.22141e-09
0.00192
-2.22081e-09
0.00192
-2.22022e-09
0.00192
-2.21966e-09
0.00192
-2.21912e-09
0.00192
-2.2186e-09
0.00192
-2.21811e-09
0.00192
-2.21763e-09