/*--------------------------------*- C++ -*----------------------------------*\
| =========                 |                                                 |
| \\      /  F ield         | OpenFOAM: The Open Source CFD Toolbox           |
|  \\    /   O peration     | Version:  2512                                  |
|   \\  /    A nd           | Website:  www.openfoam.com                      |
|    \\/     M anipulation  |                                                 |
\*---------------------------------------------------------------------------*/
FoamFile
{
    version     2.0;
    format      ascii;
    arch        "LSB;label=32;scalar=64";
    class       volVectorField;
    location    "0.1";
    object      U;
}
// * * * * * * * * * * * * * * * * * * * * * * * * * * * * * * * * * * * * * //

dimensions      [0 1 -1 0 0 0 0];

internalField   nonuniform List<vector> 
8334
(
(0.0613897 -5.52127e-06 2.10021e-17)
(0.061369 -2.22515e-06 5.99758e-18)
(0.0613506 -3.86319e-06 2.30874e-17)
(0.0613334 -5.08581e-06 -1.00003e-17)
(0.0613168 -5.47072e-06 -5.22471e-18)
(0.0612998 -5.64051e-06 -9.53821e-18)
(0.0612828 -6.0392e-06 3.52606e-18)
(0.0612659 -6.34775e-06 -1.72072e-17)
(0.0612489 -6.59206e-06 1.29558e-17)
(0.0612318 -6.89032e-06 1.79438e-18)
(0.0612148 -7.18332e-06 2.11928e-17)
(0.0611977 -7.46258e-06 -1.04846e-17)
(0.0611806 -7.73447e-06 -5.24063e-18)
(0.0611635 -7.98876e-06 -9.67511e-18)
(0.0611463 -8.23877e-06 3.56044e-18)
(0.0611291 -8.48975e-06 -1.7485e-17)
(0.0611119 -8.73507e-06 1.32491e-17)
(0.0610946 -8.97943e-06 1.72021e-18)
(0.0610774 -9.22145e-06 2.22493e-17)
(0.0610601 -9.46726e-06 -1.19877e-17)
(0.0610427 -9.71491e-06 -1.89467e-18)
(0.0610254 -9.97187e-06 -3.34381e-19)
(0.061008 -1.02366e-05 2.30954e-18)
(0.0609905 -1.05047e-05 -3.75487e-18)
(0.0609731 -1.07937e-05 -4.16262e-18)
(0.0609556 -1.10782e-05 -6.52037e-18)
(0.0609381 -1.13829e-05 1.29609e-18)
(0.0609205 -1.17359e-05 -8.85831e-18)
(0.0609029 -1.19846e-05 8.00936e-18)
(0.0608852 -1.24426e-05 8.95733e-18)
(0.0608676 -1.26339e-05 7.9474e-18)
(0.0608497 -1.31999e-05 -1.013e-18)
(0.060832 -1.32501e-05 -3.23072e-18)
(0.0608138 -1.40953e-05 -6.3672e-18)
(0.0607951 -1.3802e-05 1.39103e-18)
(0.0607764 -1.43384e-05 -9.49738e-18)
(0.0607569 -1.20718e-05 9.43715e-18)
(0.0607397 -9.45391e-06 5.97492e-18)
(0.0607241 -8.8853e-06 1.20813e-17)
(0.0607078 -8.86332e-06 -2.55065e-18)
(0.0606907 -8.70577e-06 5.96492e-18)
(0.0606736 -8.61037e-06 -4.92582e-18)
(0.0606566 -8.61477e-06 -1.84475e-17)
(0.0606395 -8.6504e-06 -4.33321e-18)
(0.0606224 -8.69576e-06 9.6268e-18)
(0.0606052 -8.74995e-06 -5.54618e-18)
(0.060588 -8.80897e-06 1.68543e-17)
(0.0605708 -8.87031e-06 3.48009e-18)
(0.0605535 -8.93208e-06 1.08718e-17)
(0.0605362 -8.99295e-06 -7.67111e-19)
(0.060519 -9.05174e-06 -2.00155e-17)
(0.0605016 -9.10802e-06 1.69217e-18)
(0.0604843 -9.16159e-06 1.10614e-18)
(0.0604669 -9.21231e-06 4.48855e-18)
(0.0604496 -9.25988e-06 2.29156e-17)
(0.0604322 -9.30413e-06 -4.91794e-18)
(0.0604147 -9.34532e-06 2.6239e-17)
(0.0603973 -9.38398e-06 -4.90216e-18)
(0.0603798 -9.42022e-06 4.2593e-18)
(0.0603624 -9.45452e-06 -1.15397e-17)
(0.0603449 -9.48703e-06 -1.69265e-17)
(0.0603273 -9.51727e-06 -1.17001e-17)
(0.0603098 -9.54542e-06 1.70289e-18)
(0.0602922 -9.57186e-06 -6.88596e-18)
(0.0602747 -9.59678e-06 1.11841e-17)
(0.0602571 -9.62028e-06 4.16571e-18)
(0.0602394 -9.64243e-06 5.87769e-18)
(0.0602218 -9.66331e-06 -9.89108e-18)
(0.0602042 -9.68313e-06 6.93455e-18)
(0.0601865 -9.70194e-06 1.74558e-17)
(0.0601688 -9.71983e-06 1.12021e-17)
(0.0601511 -9.73685e-06 6.79278e-19)
(0.0601334 -9.75308e-06 6.48849e-18)
(0.0601156 -9.76856e-06 -1.21853e-17)
(0.0600979 -9.78337e-06 1.71258e-17)
(0.0600801 -9.7976e-06 -9.76663e-19)
(0.0600623 -9.81119e-06 3.47929e-18)
(0.0600445 -9.82436e-06 -8.52986e-18)
(0.0600267 -9.83726e-06 6.65792e-18)
(0.0600088 -9.84989e-06 8.07415e-18)
(0.0599909 -9.8622e-06 3.58873e-18)
(0.0599731 -9.87434e-06 1.20454e-17)
(0.0599552 -9.88635e-06 -9.07241e-18)
(0.0599373 -9.89827e-06 -1.07523e-17)
(0.0599193 -9.91015e-06 -6.22327e-18)
(0.0599014 -9.92202e-06 -4.90276e-18)
(0.0598834 -9.93392e-06 5.85273e-19)
(0.0598654 -9.9459e-06 1.8121e-19)
(0.0598475 -9.95803e-06 -4.85587e-18)
(0.0598294 -9.97035e-06 -3.69888e-20)
(0.0598114 -9.98289e-06 -2.27249e-18)
(0.0597934 -9.99575e-06 -2.92089e-18)
(0.0597753 -1.0009e-05 8.74807e-18)
(0.0597573 -1.00226e-05 -2.36483e-19)
(0.0597392 -1.00368e-05 -6.72819e-18)
(0.0597211 -1.00515e-05 -9.70305e-18)
(0.059703 -1.00669e-05 -2.89963e-18)
(0.0596849 -1.00828e-05 -7.1079e-18)
(0.0596667 -1.00995e-05 2.79828e-18)
(0.0596486 -1.01172e-05 3.71016e-18)
(0.0596304 -1.01356e-05 -1.76542e-19)
(0.0596122 -1.01553e-05 1.96922e-18)
(0.059594 -1.01765e-05 -1.97223e-18)
(0.0595758 -1.0199e-05 -1.52492e-18)
(0.0595576 -1.02231e-05 2.59841e-18)
(0.0595394 -1.02492e-05 2.39771e-17)
(0.0595211 -1.02775e-05 1.70755e-17)
(0.0595029 -1.0308e-05 8.92651e-18)
(0.0594846 -1.03411e-05 1.46119e-17)
(0.0594663 -1.03767e-05 8.78349e-19)
(0.059448 -1.04143e-05 -2.58232e-18)
(0.0594297 -1.04548e-05 -1.63286e-17)
(0.0594114 -1.04983e-05 6.48374e-18)
(0.0593931 -1.05459e-05 -1.36743e-17)
(0.0593747 -1.05989e-05 -1.18518e-17)
(0.0593564 -1.06557e-05 -5.30172e-18)
(0.059338 -1.07179e-05 1.17044e-17)
(0.0593196 -1.07849e-05 1.58576e-17)
(0.0593013 -1.08576e-05 2.43651e-18)
(0.0592829 -1.09364e-05 1.31049e-17)
(0.0592645 -1.10239e-05 -8.36402e-18)
(0.059246 -1.11181e-05 -3.91081e-18)
(0.0592276 -1.1222e-05 -9.69415e-18)
(0.0592092 -1.13339e-05 -6.04743e-18)
(0.0591907 -1.14563e-05 -1.68601e-17)
(0.0591723 -1.15912e-05 7.67243e-18)
(0.0591538 -1.17379e-05 -1.50535e-17)
(0.0591353 -1.18965e-05 -9.40804e-18)
(0.0591168 -1.20695e-05 -7.35374e-18)
(0.0590984 -1.22589e-05 -3.80426e-18)
(0.0590799 -1.24699e-05 2.37749e-17)
(0.0590614 -1.2716e-05 -4.03649e-18)
(0.0590429 -1.29994e-05 -2.86065e-18)
(0.0590243 -1.33089e-05 2.41436e-17)
(0.0590058 -1.36318e-05 -7.76683e-18)
(0.0589872 -1.39686e-05 1.47885e-17)
(0.0589687 -1.43191e-05 1.93084e-18)
(0.0589501 -1.46772e-05 -8.7966e-18)
(0.0589315 -1.50229e-05 4.29783e-18)
(0.0589129 -1.53863e-05 -8.68385e-18)
(0.0588944 -1.58108e-05 1.51903e-17)
(0.0588758 -1.63089e-05 3.91006e-18)
(0.0588572 -1.68725e-05 1.35671e-17)
(0.0588386 -1.74955e-05 4.8516e-18)
(0.05882 -1.81734e-05 5.37877e-18)
(0.0588013 -1.89051e-05 -1.37095e-19)
(0.0587827 -1.96974e-05 -3.78918e-18)
(0.0587641 -2.05715e-05 -9.13867e-19)
(0.0587454 -2.1546e-05 -6.88546e-18)
(0.0587268 -2.26256e-05 5.24286e-18)
(0.0587081 -2.38149e-05 -5.37378e-18)
(0.0586894 -2.51164e-05 1.79715e-17)
(0.0586708 -2.65334e-05 2.82129e-18)
(0.0586521 -2.80901e-05 2.0461e-17)
(0.0586334 -2.98065e-05 5.86753e-18)
(0.0586147 -3.16975e-05 2.08468e-17)
(0.058596 -3.3776e-05 -7.77297e-18)
(0.0585773 -3.60462e-05 -1.03611e-17)
(0.0585586 -3.85249e-05 -4.25525e-18)
(0.0585399 -4.12441e-05 -5.40066e-19)
(0.0585211 -4.42222e-05 -6.82728e-19)
(0.0585024 -4.74966e-05 5.44648e-18)
(0.0584836 -5.10497e-05 -8.33453e-18)
(0.0584649 -5.50091e-05 1.69158e-17)
(0.0584461 -5.9103e-05 -1.71048e-17)
(0.0584274 -6.40326e-05 -7.36852e-18)
(0.0584088 -6.82228e-05 1.05126e-17)
(0.0583904 -7.39867e-05 7.86791e-20)
(0.0613706 -6.70396e-06 7.68946e-18)
(0.06135 -1.35062e-06 1.40244e-17)
(0.0613328 -4.14212e-06 4.66558e-18)
(0.0613166 -5.00047e-06 3.3219e-19)
(0.0612999 -5.46899e-06 1.60203e-21)
(0.0612828 -5.96471e-06 1.85798e-18)
(0.0612659 -6.18048e-06 -4.45691e-18)
(0.0612489 -6.45329e-06 2.82957e-18)
(0.0612318 -6.85457e-06 5.47439e-18)
(0.0612147 -7.15283e-06 1.29598e-17)
(0.0611976 -7.40882e-06 4.18499e-18)
(0.0611805 -7.66574e-06 2.57606e-19)
(0.0611634 -7.90742e-06 -8.49449e-20)
(0.0611462 -8.14983e-06 1.89856e-18)
(0.061129 -8.39241e-06 -4.49861e-18)
(0.0611118 -8.62918e-06 3.01269e-18)
(0.0610946 -8.86115e-06 4.78297e-18)
(0.0610773 -9.08996e-06 1.42439e-17)
(0.06106 -9.32084e-06 3.18691e-18)
(0.0610426 -9.55346e-06 -1.46446e-19)
(0.0610253 -9.79225e-06 3.13769e-18)
(0.0610079 -1.00355e-05 1.70139e-18)
(0.0609904 -1.02812e-05 2.99837e-18)
(0.060973 -1.05423e-05 -1.31118e-20)
(0.0609555 -1.08056e-05 1.93528e-18)
(0.060938 -1.10762e-05 5.04076e-18)
(0.0609204 -1.13976e-05 -3.21842e-20)
(0.0609028 -1.16267e-05 2.57459e-18)
(0.0608851 -1.20445e-05 7.18318e-18)
(0.0608675 -1.22111e-05 4.55487e-18)
(0.0608496 -1.28329e-05 4.37069e-18)
(0.0608319 -1.28634e-05 4.84727e-19)
(0.0608136 -1.38125e-05 2.06427e-18)
(0.060795 -1.34547e-05 4.93121e-18)
(0.0607768 -1.38784e-05 -2.03978e-19)
(0.0607577 -1.20428e-05 2.6567e-18)
(0.0607401 -9.82509e-06 6.77615e-18)
(0.0607241 -9.18751e-06 5.83058e-18)
(0.0607077 -9.15261e-06 2.00507e-18)
(0.0606907 -8.99635e-06 3.24857e-18)
(0.0606736 -8.88225e-06 7.69128e-18)
(0.0606566 -8.87384e-06 -1.96632e-18)
(0.0606395 -8.90525e-06 -1.96986e-18)
(0.0606223 -8.94907e-06 5.56636e-18)
(0.0606052 -9.0022e-06 3.03409e-18)
(0.060588 -9.0614e-06 4.6759e-18)
(0.0605707 -9.12273e-06 3.86218e-18)
(0.0605535 -9.18462e-06 5.51241e-18)
(0.0605362 -9.2451e-06 9.98585e-18)
(0.0605189 -9.30364e-06 -2.99303e-18)
(0.0605016 -9.35992e-06 1.48152e-18)
(0.0604843 -9.41368e-06 1.81147e-18)
(0.0604669 -9.46469e-06 3.98168e-18)
(0.0604495 -9.51291e-06 1.00175e-17)
(0.0604321 -9.55837e-06 8.74646e-19)
(0.0604147 -9.60079e-06 9.46971e-18)
(0.0603973 -9.64082e-06 6.64759e-18)
(0.0603798 -9.67842e-06 7.10565e-18)
(0.0603623 -9.71338e-06 2.11283e-18)
(0.0603448 -9.7459e-06 -3.89134e-18)
(0.0603273 -9.77682e-06 -1.97849e-18)
(0.0603098 -9.80621e-06 9.16678e-19)
(0.0602922 -9.83406e-06 -1.92024e-18)
(0.0602746 -9.86043e-06 2.98844e-18)
(0.060257 -9.88498e-06 8.32639e-18)
(0.0602394 -9.90802e-06 8.41772e-18)
(0.0602218 -9.92989e-06 -2.55811e-19)
(0.0602041 -9.95076e-06 8.06417e-19)
(0.0601865 -9.97065e-06 1.01394e-17)
(0.0601688 -9.98965e-06 5.78895e-18)
(0.0601511 -1.00078e-05 2.7933e-18)
(0.0601333 -1.00253e-05 5.26902e-18)
(0.0601156 -1.0042e-05 3.45244e-19)
(0.0600978 -1.00581e-05 8.29409e-18)
(0.0600801 -1.00738e-05 5.24258e-18)
(0.0600623 -1.00891e-05 4.72189e-18)
(0.0600445 -1.01037e-05 1.33295e-18)
(0.0600266 -1.01178e-05 -5.39235e-19)
(0.0600088 -1.01316e-05 5.46693e-18)
(0.0599909 -1.01452e-05 2.2354e-18)
(0.059973 -1.01587e-05 1.12624e-17)
(0.0599551 -1.01719e-05 4.20923e-18)
(0.0599372 -1.0185e-05 -3.21275e-19)
(0.0599193 -1.0198e-05 -1.28917e-18)
(0.0599014 -1.0211e-05 2.20828e-18)
(0.0598834 -1.0224e-05 -2.55503e-19)
(0.0598654 -1.02371e-05 2.52316e-18)
(0.0598474 -1.02504e-05 -3.31233e-19)
(0.0598294 -1.02637e-05 5.3454e-18)
(0.0598114 -1.02773e-05 4.20193e-18)
(0.0597934 -1.02912e-05 1.2731e-18)
(0.0597753 -1.03054e-05 4.96135e-18)
(0.0597572 -1.032e-05 6.83223e-18)
(0.0597392 -1.03351e-05 -2.01491e-18)
(0.0597211 -1.03507e-05 -2.03484e-18)
(0.059703 -1.0367e-05 -7.19443e-19)
(0.0596848 -1.0384e-05 2.99971e-18)
(0.0596667 -1.04018e-05 4.53364e-18)
(0.0596485 -1.04205e-05 5.04884e-18)
(0.0596304 -1.04404e-05 2.27304e-18)
(0.0596122 -1.04611e-05 5.28536e-18)
(0.059594 -1.0483e-05 -6.54632e-20)
(0.0595758 -1.05063e-05 1.72518e-18)
(0.0595576 -1.05315e-05 -8.07532e-19)
(0.0595393 -1.05584e-05 1.15729e-17)
(0.0595211 -1.0587e-05 1.23841e-17)
(0.0595028 -1.06168e-05 7.32553e-18)
(0.0594846 -1.06482e-05 8.36084e-18)
(0.0594663 -1.06824e-05 7.41667e-18)
(0.059448 -1.07199e-05 1.14034e-19)
(0.0594297 -1.07609e-05 -4.98646e-18)
(0.0594114 -1.08049e-05 2.39281e-18)
(0.059393 -1.08529e-05 3.81048e-18)
(0.0593747 -1.09034e-05 -1.47639e-19)
(0.0593564 -1.09592e-05 -1.98949e-18)
(0.059338 -1.10194e-05 2.9903e-18)
(0.0593196 -1.10852e-05 1.19347e-17)
(0.0593012 -1.11564e-05 1.8033e-18)
(0.0592828 -1.12348e-05 8.46091e-18)
(0.0592644 -1.1319e-05 7.87681e-19)
(0.059246 -1.14117e-05 3.28728e-18)
(0.0592276 -1.15118e-05 3.89824e-18)
(0.0592091 -1.16221e-05 -1.61039e-18)
(0.0591907 -1.1743e-05 -5.89264e-18)
(0.0591722 -1.18737e-05 2.87539e-18)
(0.0591538 -1.20172e-05 2.54342e-18)
(0.0591353 -1.21749e-05 8.56422e-19)
(0.0591168 -1.23485e-05 -6.13611e-20)
(0.0590983 -1.25391e-05 -3.52088e-18)
(0.0590798 -1.27461e-05 1.34567e-17)
(0.0590612 -1.29568e-05 2.53432e-18)
(0.0590427 -1.31664e-05 -2.51431e-18)
(0.0590242 -1.33892e-05 1.01933e-17)
(0.0590056 -1.3644e-05 4.50714e-18)
(0.0589871 -1.39361e-05 7.45778e-18)
(0.0589685 -1.42667e-05 6.32308e-18)
(0.05895 -1.4636e-05 -1.22769e-18)
(0.0589314 -1.50315e-05 6.11284e-18)
(0.0589128 -1.54586e-05 -4.08222e-18)
(0.0588942 -1.59218e-05 4.77841e-18)
(0.0588756 -1.64302e-05 3.01327e-18)
(0.058857 -1.69881e-05 1.09825e-17)
(0.0588383 -1.76037e-05 6.93421e-18)
(0.0588197 -1.82901e-05 5.75465e-18)
(0.058801 -1.90607e-05 2.75872e-18)
(0.0587824 -1.992e-05 3.76959e-18)
(0.0587637 -2.08604e-05 -1.96758e-21)
(0.058745 -2.18799e-05 -7.35132e-19)
(0.0587263 -2.29883e-05 3.66005e-18)
(0.0587076 -2.42004e-05 2.75116e-18)
(0.0586889 -2.55326e-05 8.94894e-18)
(0.0586702 -2.70011e-05 4.24453e-18)
(0.0586515 -2.86101e-05 8.56746e-18)
(0.0586327 -3.03656e-05 7.24227e-18)
(0.058614 -3.22814e-05 8.88091e-18)
(0.0585952 -3.43744e-05 3.441e-18)
(0.0585764 -3.66703e-05 -2.49098e-18)
(0.0585576 -3.91898e-05 2.97726e-18)
(0.0585388 -4.19457e-05 3.35603e-18)
(0.05852 -4.49503e-05 2.42931e-18)
(0.0585011 -4.82398e-05 4.44825e-18)
(0.0584823 -5.18002e-05 6.38304e-19)
(0.0584634 -5.57519e-05 6.67521e-18)
(0.0584445 -5.9916e-05 -1.06024e-18)
(0.0584257 -6.47207e-05 -4.63768e-18)
(0.0584068 -6.94911e-05 9.06562e-18)
(0.0583887 -7.54426e-05 4.76807e-18)
(0.0583697 -8.10511e-05 3.05946e-18)
(0.0583493 -8.72693e-05 7.76588e-18)
(0.0583301 -9.46368e-05 4.44759e-18)
(0.0583112 -0.000102655 9.23261e-18)
(0.0582922 -0.000111319 -1.59539e-18)
(0.058273 -0.000120776 3.62732e-18)
(0.0582537 -0.000131102 5.58252e-18)
(0.0582346 -0.000142363 5.60325e-18)
(0.0582149 -0.000154635 -1.83589e-18)
(0.0581964 -0.000168016 2.98191e-18)
(0.0581749 -0.000182572 6.22075e-18)
(0.0581595 -0.000198357 5.83619e-18)
(0.0581325 -0.000216035 3.96804e-18)
(0.0581247 -0.000232821 -2.10021e-18)
(0.0580895 -0.000259162 4.89662e-18)
(0.0580856 -0.00026716 2.39822e-18)
(0.0580493 -0.000313938 2.30969e-18)
(0.0613514 -6.1625e-06 1.48963e-17)
(0.061332 -3.84506e-06 1.26862e-17)
(0.0613162 -4.30473e-06 4.43567e-18)
(0.0612994 -5.04942e-06 6.94285e-18)
(0.0612826 -5.4649e-06 1.77829e-18)
(0.0612658 -5.70403e-06 6.48488e-18)
(0.0612487 -5.98312e-06 6.49905e-18)
(0.0612316 -6.33069e-06 1.78705e-17)
(0.0612146 -6.63519e-06 1.47539e-17)
(0.0611976 -6.93711e-06 1.23481e-17)
(0.0611805 -7.22113e-06 4.55199e-18)
(0.0611633 -7.46732e-06 7.03211e-18)
(0.0611462 -7.71678e-06 1.82371e-18)
(0.061129 -7.96859e-06 6.66125e-18)
(0.0611117 -8.21037e-06 6.48123e-18)
(0.0610945 -8.44633e-06 1.73117e-17)
(0.0610772 -8.68026e-06 1.53693e-17)
(0.0610599 -8.91548e-06 1.23046e-17)
(0.0610426 -9.15265e-06 4.09213e-18)
(0.0610252 -9.39461e-06 7.91299e-18)
(0.0610078 -9.64201e-06 1.68093e-18)
(0.0609904 -9.89327e-06 9.00829e-18)
(0.0609729 -1.01526e-05 6.22897e-18)
(0.0609554 -1.04178e-05 1.69976e-17)
(0.0609379 -1.06887e-05 1.25844e-17)
(0.0609203 -1.10028e-05 1.04765e-17)
(0.0609027 -1.1241e-05 4.69594e-18)
(0.060885 -1.16521e-05 9.26987e-18)
(0.0608674 -1.18562e-05 2.70418e-18)
(0.0608495 -1.24378e-05 9.7528e-18)
(0.0608317 -1.24679e-05 6.37299e-18)
(0.0608136 -1.32822e-05 1.69869e-17)
(0.0607951 -1.27914e-05 1.23439e-17)
(0.060777 -1.29433e-05 1.03743e-17)
(0.0607583 -1.18126e-05 4.6234e-18)
(0.0607406 -9.92397e-06 9.35269e-18)
(0.0607242 -9.1207e-06 3.1773e-18)
(0.0607077 -9.01079e-06 8.50892e-18)
(0.0606907 -8.86255e-06 7.04981e-18)
(0.0606736 -8.72963e-06 1.98382e-17)
(0.0606565 -8.69917e-06 1.07454e-17)
(0.0606394 -8.72225e-06 9.04655e-18)
(0.0606223 -8.76266e-06 5.82563e-18)
(0.0606051 -8.81351e-06 8.46532e-18)
(0.0605879 -8.87098e-06 2.67727e-18)
(0.0605707 -8.93139e-06 8.61785e-18)
(0.0605535 -8.99232e-06 7.50415e-18)
(0.0605362 -9.05317e-06 2.0617e-17)
(0.0605189 -9.11272e-06 1.01762e-17)
(0.0605016 -9.16995e-06 1.00619e-17)
(0.0604842 -9.22419e-06 4.5836e-18)
(0.0604669 -9.27533e-06 8.20382e-18)
(0.0604495 -9.32327e-06 4.32074e-18)
(0.0604321 -9.36802e-06 8.08843e-18)
(0.0604147 -9.41053e-06 8.70044e-18)
(0.0603972 -9.45034e-06 1.89992e-17)
(0.0603798 -9.48768e-06 1.32362e-17)
(0.0603623 -9.523e-06 1.09959e-17)
(0.0603448 -9.55598e-06 3.15771e-18)
(0.0603273 -9.58672e-06 6.31444e-18)
(0.0603098 -9.61526e-06 1.54828e-18)
(0.0602922 -9.64192e-06 6.73906e-18)
(0.0602746 -9.667e-06 6.618e-18)
(0.060257 -9.69107e-06 1.88703e-17)
(0.0602394 -9.71408e-06 1.37363e-17)
(0.0602218 -9.7358e-06 9.87224e-18)
(0.0602041 -9.75629e-06 3.62651e-18)
(0.0601865 -9.77571e-06 1.00504e-17)
(0.0601688 -9.79411e-06 2.88803e-18)
(0.0601511 -9.81159e-06 8.5588e-18)
(0.0601333 -9.82827e-06 8.31706e-18)
(0.0601156 -9.84413e-06 1.68434e-17)
(0.0600978 -9.85923e-06 1.30642e-17)
(0.0600801 -9.87371e-06 1.14188e-17)
(0.0600623 -9.88777e-06 5.71332e-18)
(0.0600444 -9.90173e-06 7.84573e-18)
(0.0600266 -9.91563e-06 4.92357e-19)
(0.0600088 -9.92921e-06 9.24526e-18)
(0.0599909 -9.94247e-06 6.93429e-18)
(0.059973 -9.95553e-06 2.04027e-17)
(0.0599551 -9.96842e-06 1.25806e-17)
(0.0599372 -9.98118e-06 9.96579e-18)
(0.0599193 -9.9939e-06 3.66371e-18)
(0.0599013 -1.00066e-05 8.04861e-18)
(0.0598834 -1.00194e-05 8.95311e-19)
(0.0598654 -1.00323e-05 8.79511e-18)
(0.0598474 -1.00453e-05 6.34837e-18)
(0.0598294 -1.00586e-05 1.84103e-17)
(0.0598114 -1.00722e-05 1.22317e-17)
(0.0597933 -1.00862e-05 9.86985e-18)
(0.0597753 -1.01006e-05 5.51576e-18)
(0.0597572 -1.01154e-05 1.00718e-17)
(0.0597391 -1.01309e-05 5.59205e-19)
(0.0597211 -1.0147e-05 7.1122e-18)
(0.0597029 -1.01638e-05 5.9272e-18)
(0.0596848 -1.01814e-05 1.7924e-17)
(0.0596667 -1.01998e-05 1.22392e-17)
(0.0596485 -1.02191e-05 1.16615e-17)
(0.0596304 -1.02393e-05 5.02116e-18)
(0.0596122 -1.02612e-05 9.22948e-18)
(0.059594 -1.02846e-05 1.00883e-18)
(0.0595758 -1.03095e-05 8.46012e-18)
(0.0595576 -1.03359e-05 6.11496e-18)
(0.0595393 -1.0364e-05 1.97097e-17)
(0.0595211 -1.0394e-05 1.45808e-17)
(0.0595028 -1.04273e-05 1.1959e-17)
(0.0594845 -1.04644e-05 6.71953e-18)
(0.0594663 -1.0503e-05 1.02514e-17)
(0.059448 -1.05451e-05 1.30904e-18)
(0.0594297 -1.05898e-05 6.29302e-18)
(0.0594113 -1.06381e-05 6.95368e-18)
(0.059393 -1.06895e-05 1.82254e-17)
(0.0593747 -1.07471e-05 1.10282e-17)
(0.0593563 -1.08095e-05 8.0945e-18)
(0.0593379 -1.08768e-05 4.2181e-18)
(0.0593196 -1.09485e-05 1.14287e-17)
(0.0593012 -1.10279e-05 1.69603e-18)
(0.0592828 -1.11148e-05 1.09954e-17)
(0.0592644 -1.12072e-05 6.0726e-18)
(0.0592459 -1.13101e-05 1.8192e-17)
(0.0592275 -1.14207e-05 1.43488e-17)
(0.0592091 -1.15423e-05 8.36047e-20)
(0.0591906 -1.16725e-05 3.27381e-18)
(0.0591722 -1.18157e-05 5.38259e-18)
(0.0591537 -1.19711e-05 1.72215e-17)
(0.0591352 -1.214e-05 1.09654e-17)
(0.0591167 -1.23239e-05 9.59279e-18)
(0.0590982 -1.25233e-05 2.52986e-18)
(0.0590797 -1.27375e-05 1.16157e-17)
(0.0590612 -1.29702e-05 2.48917e-18)
(0.0590427 -1.32375e-05 6.41673e-18)
(0.0590242 -1.35454e-05 9.48895e-18)
(0.0590056 -1.38753e-05 1.8616e-17)
(0.058987 -1.42243e-05 1.27021e-17)
(0.0589684 -1.46008e-05 1.16233e-17)
(0.0589498 -1.50105e-05 3.91446e-18)
(0.0589312 -1.54498e-05 9.58682e-18)
(0.0589126 -1.5924e-05 -2.13513e-19)
(0.058894 -1.64403e-05 8.44723e-18)
(0.0588754 -1.70065e-05 7.28986e-18)
(0.0588567 -1.76259e-05 2.03979e-17)
(0.0588381 -1.82999e-05 1.28322e-17)
(0.0588194 -1.90284e-05 1.13825e-17)
(0.0588008 -1.98103e-05 5.37361e-18)
(0.0587821 -2.06531e-05 9.15428e-18)
(0.0587634 -2.15736e-05 1.13454e-18)
(0.0587447 -2.25865e-05 7.16919e-18)
(0.0587259 -2.3699e-05 7.87387e-18)
(0.0587072 -2.49158e-05 1.76684e-17)
(0.0586885 -2.62412e-05 1.30072e-17)
(0.0586697 -2.7683e-05 1.05771e-17)
(0.0586509 -2.92603e-05 6.66033e-18)
(0.0586321 -3.09918e-05 9.98011e-18)
(0.0586133 -3.28917e-05 3.65277e-18)
(0.0585944 -3.49724e-05 9.59702e-18)
(0.0585756 -3.72437e-05 6.33584e-18)
(0.0585567 -3.97225e-05 1.7588e-17)
(0.0585378 -4.24356e-05 1.17008e-17)
(0.0585189 -4.54038e-05 9.52554e-18)
(0.0585 -4.866e-05 5.29543e-18)
(0.058481 -5.22003e-05 7.7453e-18)
(0.058462 -5.61046e-05 2.88873e-18)
(0.058443 -6.02759e-05 7.27544e-18)
(0.058424 -6.49515e-05 4.84584e-18)
(0.058405 -6.99298e-05 1.93152e-17)
(0.0583863 -7.53884e-05 1.22756e-17)
(0.0583672 -8.29995e-05 9.87522e-18)
(0.0583472 -8.91033e-05 6.62066e-18)
(0.0583277 -9.58744e-05 9.20503e-18)
(0.0583084 -0.000103678 3.93751e-18)
(0.058289 -0.00011229 7.45348e-18)
(0.0582695 -0.000121714 7.68029e-18)
(0.0582499 -0.000132026 1.86622e-17)
(0.0582304 -0.000143286 1.23863e-17)
(0.0582103 -0.000155555 8.61291e-18)
(0.0581914 -0.00016893 4.71155e-18)
(0.0581695 -0.00018348 9.60442e-18)
(0.0581536 -0.000199246 2.74535e-18)
(0.058126 -0.000216917 9.21981e-18)
(0.0581178 -0.00023368 6.23096e-18)
(0.0580818 -0.00026006 2.02876e-17)
(0.0580776 -0.000268062 8.90515e-18)
(0.0580401 -0.000314945 1.0731e-17)
(0.0613333 -2.93258e-06 -1.80421e-17)
(0.061316 -2.83384e-06 -2.23414e-18)
(0.0612993 -3.9566e-06 -1.35085e-18)
(0.0612825 -4.55888e-06 1.53476e-17)
(0.0612657 -4.41159e-06 -1.47607e-17)
(0.0612486 -4.67085e-06 2.5938e-17)
(0.0612316 -5.11093e-06 -1.82156e-18)
(0.0612145 -5.36999e-06 2.16993e-17)
(0.0611974 -5.6167e-06 -1.80495e-17)
(0.0611804 -5.87865e-06 -2.09222e-18)
(0.0611632 -6.11978e-06 -8.9081e-19)
(0.0611461 -6.36967e-06 1.54072e-17)
(0.0611289 -6.61905e-06 -1.45933e-17)
(0.0611117 -6.858e-06 2.61954e-17)
(0.0610944 -7.09236e-06 -3.05146e-18)
(0.0610771 -7.3238e-06 2.16665e-17)
(0.0610598 -7.55501e-06 -1.86378e-17)
(0.0610425 -7.7894e-06 -2.26401e-18)
(0.0610251 -8.02633e-06 -6.95778e-19)
(0.0610077 -8.26765e-06 1.54518e-17)
(0.0609903 -8.51313e-06 -1.40238e-17)
(0.0609728 -8.76569e-06 2.64196e-17)
(0.0609553 -9.02631e-06 -1.92407e-18)
(0.0609378 -9.28774e-06 2.10361e-17)
(0.0609202 -9.58295e-06 -1.88186e-17)
(0.0609026 -9.82291e-06 -1.85884e-18)
(0.0608849 -1.01851e-05 -2.10015e-20)
(0.0608673 -1.03681e-05 1.56454e-17)
(0.0608494 -1.08589e-05 -1.3663e-17)
(0.0608316 -1.08941e-05 2.62179e-17)
(0.0608135 -1.15059e-05 -2.02132e-18)
(0.0607951 -1.11933e-05 2.08221e-17)
(0.0607771 -1.11512e-05 -1.90887e-17)
(0.0607588 -1.03656e-05 -1.72384e-18)
(0.060741 -8.87343e-06 1.3195e-19)
(0.0607243 -8.11542e-06 1.59024e-17)
(0.0607077 -7.96126e-06 -1.42008e-17)
(0.0606907 -7.82214e-06 2.66001e-17)
(0.0606736 -7.69468e-06 -9.27935e-19)
(0.0606565 -7.65661e-06 2.07705e-17)
(0.0606394 -7.67203e-06 -1.95913e-17)
(0.0606223 -7.70727e-06 -1.8866e-18)
(0.0606051 -7.75419e-06 8.11394e-22)
(0.0605879 -7.80889e-06 1.56886e-17)
(0.0605707 -7.86753e-06 -1.40653e-17)
(0.0605534 -7.92644e-06 2.687e-17)
(0.0605362 -7.98495e-06 -1.50848e-18)
(0.0605189 -8.04224e-06 2.02149e-17)
(0.0605015 -8.09761e-06 -1.95641e-17)
(0.0604842 -8.15069e-06 -2.03063e-18)
(0.0604669 -8.20125e-06 -1.33308e-19)
(0.0604495 -8.24932e-06 1.58828e-17)
(0.0604321 -8.29488e-06 -1.42256e-17)
(0.0604147 -8.33811e-06 2.70327e-17)
(0.0603972 -8.37839e-06 -1.88007e-18)
(0.0603798 -8.41513e-06 2.08504e-17)
(0.0603623 -8.44931e-06 -1.95945e-17)
(0.0603448 -8.48204e-06 -2.67381e-18)
(0.0603273 -8.51276e-06 -6.20401e-19)
(0.0603097 -8.54197e-06 1.53489e-17)
(0.0602922 -8.56925e-06 -1.48697e-17)
(0.0602746 -8.59347e-06 2.68018e-17)
(0.060257 -8.61635e-06 -1.6949e-18)
(0.0602394 -8.63823e-06 2.10115e-17)
(0.0602218 -8.65908e-06 -1.95761e-17)
(0.0602041 -8.67903e-06 -2.88123e-18)
(0.0601864 -8.69803e-06 3.1043e-19)
(0.0601688 -8.71611e-06 1.55785e-17)
(0.060151 -8.73337e-06 -1.4289e-17)
(0.0601333 -8.74994e-06 2.7398e-17)
(0.0601156 -8.76584e-06 -1.847e-18)
(0.0600978 -8.78121e-06 2.09903e-17)
(0.06008 -8.79614e-06 -1.95113e-17)
(0.0600622 -8.81057e-06 -1.88161e-18)
(0.0600444 -8.8247e-06 -4.66881e-20)
(0.0600266 -8.83862e-06 1.49965e-17)
(0.0600088 -8.8522e-06 -1.44144e-17)
(0.0599909 -8.86528e-06 2.68115e-17)
(0.059973 -8.87808e-06 -1.04313e-18)
(0.0599551 -8.89069e-06 2.10908e-17)
(0.0599372 -8.90317e-06 -2.00031e-17)
(0.0599193 -8.91557e-06 -2.55895e-18)
(0.0599013 -8.92791e-06 1.22958e-19)
(0.0598834 -8.94027e-06 1.51833e-17)
(0.0598654 -8.95267e-06 -1.43522e-17)
(0.0598474 -8.96515e-06 2.65361e-17)
(0.0598294 -8.97773e-06 -1.33272e-18)
(0.0598114 -8.99047e-06 2.06926e-17)
(0.0597933 -9.0034e-06 -1.98216e-17)
(0.0597753 -9.0166e-06 -1.95864e-18)
(0.0597572 -9.03013e-06 1.13469e-18)
(0.0597391 -9.04407e-06 1.51475e-17)
(0.059721 -9.05849e-06 -1.45757e-17)
(0.0597029 -9.0735e-06 2.63988e-17)
(0.0596848 -9.08914e-06 -1.65028e-18)
(0.0596667 -9.1055e-06 2.08184e-17)
(0.0596485 -9.12268e-06 -1.99213e-17)
(0.0596303 -9.14051e-06 -1.95465e-18)
(0.0596122 -9.15979e-06 8.19158e-19)
(0.059594 -9.18056e-06 1.5001e-17)
(0.0595758 -9.20287e-06 -1.44928e-17)
(0.0595575 -9.22703e-06 2.71902e-17)
(0.0595393 -9.2532e-06 -1.22563e-18)
(0.0595211 -9.28095e-06 2.12027e-17)
(0.0595028 -9.30996e-06 -1.94927e-17)
(0.0594845 -9.34064e-06 -1.97225e-18)
(0.0594663 -9.37475e-06 1.30782e-18)
(0.059448 -9.4086e-06 1.52437e-17)
(0.0594296 -9.4458e-06 -1.49695e-17)
(0.0594113 -9.48744e-06 2.6926e-17)
(0.059393 -9.53426e-06 -1.21956e-18)
(0.0593747 -9.58367e-06 2.03292e-17)
(0.0593563 -9.63634e-06 -2.1132e-17)
(0.0593379 -9.69321e-06 -2.18065e-18)
(0.0593196 -9.7572e-06 2.22448e-18)
(0.0593012 -9.82606e-06 1.46455e-17)
(0.0592828 -9.89819e-06 -1.07749e-17)
(0.0592643 -9.98076e-06 1.99927e-17)
(0.0592459 -1.0067e-05 1.2365e-17)
(0.0592275 -1.01647e-05 -3.00002e-19)
(0.059209 -1.02681e-05 4.65589e-18)
(0.0591906 -1.03848e-05 -2.42368e-17)
(0.0591721 -1.05087e-05 2.22479e-17)
(0.0591537 -1.06457e-05 -3.61374e-18)
(0.0591352 -1.07955e-05 1.98292e-17)
(0.0591167 -1.09592e-05 -2.12452e-17)
(0.0590981 -1.11394e-05 -3.01051e-18)
(0.0590796 -1.13422e-05 1.94929e-18)
(0.0590611 -1.15835e-05 1.56388e-17)
(0.0590425 -1.18523e-05 -1.4845e-17)
(0.0590239 -1.21277e-05 2.78352e-17)
(0.0590054 -1.24221e-05 -1.10621e-18)
(0.0589868 -1.27507e-05 2.08019e-17)
(0.0589683 -1.31146e-05 -2.05564e-17)
(0.0589497 -1.35133e-05 -2.14612e-18)
(0.058931 -1.39442e-05 1.62839e-18)
(0.0589124 -1.44113e-05 1.49241e-17)
(0.0588938 -1.49196e-05 -1.44882e-17)
(0.0588752 -1.54756e-05 2.73117e-17)
(0.0588565 -1.60838e-05 -5.41769e-19)
(0.0588378 -1.67493e-05 2.06459e-17)
(0.0588191 -1.74792e-05 -2.07264e-17)
(0.0588004 -1.82823e-05 -2.05984e-18)
(0.0587817 -1.9163e-05 1.57354e-18)
(0.058763 -2.01222e-05 1.50989e-17)
(0.0587443 -2.11651e-05 -1.47548e-17)
(0.0587255 -2.23004e-05 2.7591e-17)
(0.0587067 -2.35401e-05 -1.46234e-18)
(0.0586879 -2.48981e-05 2.08709e-17)
(0.0586691 -2.63851e-05 -2.1084e-17)
(0.0586503 -2.80083e-05 -1.56862e-18)
(0.0586314 -2.97778e-05 1.8149e-18)
(0.0586126 -3.17071e-05 1.58169e-17)
(0.0585937 -3.38144e-05 -1.4251e-17)
(0.0585747 -3.61191e-05 2.75396e-17)
(0.0585558 -3.86383e-05 -1.5638e-18)
(0.0585368 -4.1389e-05 2.04402e-17)
(0.0585178 -4.43877e-05 -2.15654e-17)
(0.0584987 -4.76638e-05 -2.25121e-18)
(0.0584797 -5.12277e-05 1.20422e-18)
(0.0584606 -5.51405e-05 1.53726e-17)
(0.0584414 -5.93758e-05 -1.46251e-17)
(0.0584223 -6.40275e-05 2.66081e-17)
(0.0584031 -6.91464e-05 -8.70133e-19)
(0.0583841 -7.46497e-05 2.06947e-17)
(0.0583648 -8.17074e-05 -2.14471e-17)
(0.0583448 -8.8309e-05 -1.53171e-18)
(0.058325 -9.54072e-05 1.95811e-18)
(0.0583054 -0.000103327 1.59467e-17)
(0.0582858 -0.000111967 -1.47092e-17)
(0.058266 -0.000121365 2.76e-17)
(0.0582461 -0.000131622 -1.65621e-18)
(0.0582262 -0.000142819 2.06255e-17)
(0.0582058 -0.000155023 -2.23834e-17)
(0.0581865 -0.000168332 -2.42705e-18)
(0.0581641 -0.000182817 1.90895e-18)
(0.0581478 -0.000198517 1.56071e-17)
(0.0581196 -0.00021612 -1.40551e-17)
(0.058111 -0.000232813 2.58509e-17)
(0.0580741 -0.000259086 4.2112e-18)
(0.0580697 -0.00026704 9.99616e-18)
(0.0580309 -0.000313766 -9.37383e-18)
(0.0613358 -7.20132e-06 -2.6599e-17)
(0.0613156 -8.43608e-07 -7.58141e-18)
(0.0612986 -3.31699e-06 -8.75204e-18)
(0.0612823 -4.12181e-06 2.18341e-17)
(0.0612657 -4.35703e-06 -2.26834e-17)
(0.0612484 -4.7103e-06 3.21875e-17)
(0.0612314 -5.06972e-06 -7.55592e-18)
(0.0612145 -5.35975e-06 2.52733e-17)
(0.0611974 -5.68697e-06 -2.66408e-17)
(0.0611803 -5.95295e-06 -7.5697e-18)
(0.0611632 -6.16463e-06 -8.54572e-18)
(0.061146 -6.40581e-06 2.15791e-17)
(0.0611288 -6.65034e-06 -2.25312e-17)
(0.0611116 -6.88005e-06 3.23265e-17)
(0.0610943 -7.10749e-06 -8.09587e-18)
(0.0610771 -7.33e-06 2.52294e-17)
(0.0610598 -7.557e-06 -2.66233e-17)
(0.0610424 -7.78575e-06 -8.12958e-18)
(0.061025 -8.01966e-06 -8.53255e-18)
(0.0610076 -8.25889e-06 2.17483e-17)
(0.0609902 -8.49888e-06 -2.24609e-17)
(0.0609727 -8.74971e-06 3.27323e-17)
(0.0609552 -9.00974e-06 -7.59212e-18)
(0.0609377 -9.26753e-06 2.4935e-17)
(0.0609201 -9.56305e-06 -2.70587e-17)
(0.0609025 -9.81143e-06 -7.53332e-18)
(0.0608848 -1.01656e-05 -7.83335e-18)
(0.0608671 -1.03774e-05 2.18871e-17)
(0.0608493 -1.08233e-05 -2.21603e-17)
(0.0608315 -1.08888e-05 3.20102e-17)
(0.0608135 -1.13728e-05 -7.73049e-18)
(0.0607952 -1.11212e-05 2.4839e-17)
(0.0607773 -1.09637e-05 -2.72365e-17)
(0.0607592 -1.04006e-05 -7.64224e-18)
(0.0607414 -9.19128e-06 -7.70809e-18)
(0.0607245 -8.42288e-06 2.18449e-17)
(0.0607078 -8.21002e-06 -2.23664e-17)
(0.0606907 -8.07698e-06 3.22681e-17)
(0.0606736 -7.95284e-06 -7.27053e-18)
(0.0606565 -7.90607e-06 2.49483e-17)
(0.0606394 -7.91525e-06 -2.71009e-17)
(0.0606222 -7.94828e-06 -8.35762e-18)
(0.0606051 -7.99419e-06 -7.80559e-18)
(0.0605879 -8.04827e-06 2.17838e-17)
(0.0605706 -8.10634e-06 -2.24449e-17)
(0.0605534 -8.16641e-06 3.28964e-17)
(0.0605361 -8.22595e-06 -7.63259e-18)
(0.0605188 -8.28382e-06 2.43895e-17)
(0.0605015 -8.33947e-06 -2.75079e-17)
(0.0604842 -8.39244e-06 -8.08525e-18)
(0.0604668 -8.44248e-06 -7.69392e-18)
(0.0604495 -8.4894e-06 2.17047e-17)
(0.0604321 -8.53348e-06 -2.25627e-17)
(0.0604146 -8.57472e-06 3.28444e-17)
(0.0603972 -8.61359e-06 -7.15842e-18)
(0.0603798 -8.65087e-06 2.47022e-17)
(0.0603623 -8.68557e-06 -2.79277e-17)
(0.0603448 -8.71759e-06 -8.0234e-18)
(0.0603273 -8.74768e-06 -7.62114e-18)
(0.0603097 -8.77584e-06 2.18581e-17)
(0.0602922 -8.8021e-06 -2.29534e-17)
(0.0602746 -8.82759e-06 3.28085e-17)
(0.060257 -8.85147e-06 -7.41421e-18)
(0.0602394 -8.87367e-06 2.49241e-17)
(0.0602218 -8.89453e-06 -2.79241e-17)
(0.0602041 -8.91462e-06 -8.41095e-18)
(0.0601864 -8.93374e-06 -7.33916e-18)
(0.0601687 -8.95204e-06 2.19304e-17)
(0.060151 -8.96955e-06 -2.25668e-17)