/*--------------------------------*- C++ -*----------------------------------*\
| =========                 |                                                 |
| \\      /  F ield         | OpenFOAM: The Open Source CFD Toolbox           |
|  \\    /   O peration     | Version:  2512                                  |
|   \\  /    A nd           | Website:  www.openfoam.com                      |
|    \\/     M anipulation  |                                                 |
\*---------------------------------------------------------------------------*/
FoamFile
{
    version     2.0;
    format      ascii;
    arch        "LSB;label=32;scalar=64";
    class       volScalarField;
    location    "0.1";
    object      Ux;
}
// * * * * * * * * * * * * * * * * * * * * * * * * * * * * * * * * * * * * * //

dimensions      [0 1 -1 0 0 0 0];

internalField   nonuniform List<scalar> 
8334
(
0.0613897
0.061369
0.0613506
0.0613334
0.0613168
0.0612998
0.0612828
0.0612659
0.0612489
0.0612318
0.0612148
0.0611977
0.0611806
0.0611635
0.0611463
0.0611291
0.0611119
0.0610946
0.0610774
0.0610601
0.0610427
0.0610254
0.061008
0.0609905
0.0609731
0.0609556
0.0609381
0.0609205
0.0609029
0.0608852
0.0608676
0.0608497
0.060832
0.0608138
0.0607951
0.0607764
0.0607569
0.0607397
0.0607241
0.0607078
0.0606907
0.0606736
0.0606566
0.0606395
0.0606224
0.0606052
0.060588
0.0605708
0.0605535
0.0605362
0.060519
0.0605016
0.0604843
0.0604669
0.0604496
0.0604322
0.0604147
0.0603973
0.0603798
0.0603624
0.0603449
0.0603273
0.0603098
0.0602922
0.0602747
0.0602571
0.0602394
0.0602218
0.0602042
0.0601865
0.0601688
0.0601511
0.0601334
0.0601156
0.0600979
0.0600801
0.0600623
0.0600445
0.0600267
0.0600088
0.0599909
0.0599731
0.0599552
0.0599373
0.0599193
0.0599014
0.0598834
0.0598654
0.0598475
0.0598294
0.0598114
0.0597934
0.0597753
0.0597573
0.0597392
0.0597211
0.059703
0.0596849
0.0596667
0.0596486
0.0596304
0.0596122
0.059594
0.0595758
0.0595576
0.0595394
0.0595211
0.0595029
0.0594846
0.0594663
0.059448
0.0594297
0.0594114
0.0593931
0.0593747
0.0593564
0.059338
0.0593196
0.0593013
0.0592829
0.0592645
0.059246
0.0592276
0.0592092
0.0591907
0.0591723
0.0591538
0.0591353
0.0591168
0.0590984
0.0590799
0.0590614
0.0590429
0.0590243
0.0590058
0.0589872
0.0589687
0.0589501
0.0589315
0.0589129
0.0588944
0.0588758
0.0588572
0.0588386
0.05882
0.0588013
0.0587827
0.0587641
0.0587454
0.0587268
0.0587081
0.0586894
0.0586708
0.0586521
0.0586334
0.0586147
0.058596
0.0585773
0.0585586
0.0585399
0.0585211
0.0585024
0.0584836
0.0584649
0.0584461
0.0584274
0.0584088
0.0583904
0.0613706
0.06135
0.0613328
0.0613166
0.0612999
0.0612828
0.0612659
0.0612489
0.0612318
0.0612147
0.0611976
0.0611805
0.0611634
0.0611462
0.061129
0.0611118
0.0610946
0.0610773
0.06106
0.0610426
0.0610253
0.0610079
0.0609904
0.060973
0.0609555
0.060938
0.0609204
0.0609028
0.0608851
0.0608675
0.0608496
0.0608319
0.0608136
0.060795
0.0607768
0.0607577
0.0607401
0.0607241
0.0607077
0.0606907
0.0606736
0.0606566
0.0606395
0.0606223
0.0606052
0.060588
0.0605707
0.0605535
0.0605362
0.0605189
0.0605016
0.0604843
0.0604669
0.0604495
0.0604321
0.0604147
0.0603973
0.0603798
0.0603623
0.0603448
0.0603273
0.0603098
0.0602922
0.0602746
0.060257
0.0602394
0.0602218
0.0602041
0.0601865
0.0601688
0.0601511
0.0601333
0.0601156
0.0600978
0.0600801
0.0600623
0.0600445
0.0600266
0.0600088
0.0599909
0.059973
0.0599551
0.0599372
0.0599193
0.0599014
0.0598834
0.0598654
0.0598474
0.0598294
0.0598114
0.0597934
0.0597753
0.0597572
0.0597392
0.0597211
0.059703
0.0596848
0.0596667
0.0596485
0.0596304
0.0596122
0.059594
0.0595758
0.0595576
0.0595393
0.0595211
0.0595028
0.0594846
0.0594663
0.059448
0.0594297
0.0594114
0.059393
0.0593747
0.0593564
0.059338
0.0593196
0.0593012
0.0592828
0.0592644
0.059246
0.0592276
0.0592091
0.0591907
0.0591722
0.0591538
0.0591353
0.0591168
0.0590983
0.0590798
0.0590612
0.0590427
0.0590242
0.0590056
0.0589871
0.0589685
0.05895
0.0589314
0.0589128
0.0588942
0.0588756
0.058857
0.0588383
0.0588197
0.058801
0.0587824
0.0587637
0.058745
0.0587263
0.0587076
0.0586889
0.0586702
0.0586515
0.0586327
0.058614
0.0585952
0.0585764
0.0585576
0.0585388
0.05852
0.0585011
0.0584823
0.0584634
0.0584445
0.0584257
0.0584068
0.0583887
0.0583697
0.0583493
0.0583301
0.0583112
0.0582922
0.058273
0.0582537
0.0582346
0.0582149
0.0581964
0.0581749
0.0581595
0.0581325
0.0581247
0.0580895
0.0580856
0.0580493
0.0613514
0.061332
0.0613162
0.0612994
0.0612826
0.0612658
0.0612487
0.0612316
0.0612146
0.0611976
0.0611805
0.0611633
0.0611462
0.061129
0.0611117
0.0610945
0.0610772
0.0610599
0.0610426
0.0610252
0.0610078
0.0609904
0.0609729
0.0609554
0.0609379
0.0609203
0.0609027
0.060885
0.0608674
0.0608495
0.0608317
0.0608136
0.0607951
0.060777
0.0607583
0.0607406
0.0607242
0.0607077
0.0606907
0.0606736
0.0606565
0.0606394
0.0606223
0.0606051
0.0605879
0.0605707
0.0605535
0.0605362
0.0605189
0.0605016
0.0604842
0.0604669
0.0604495
0.0604321
0.0604147
0.0603972
0.0603798
0.0603623
0.0603448
0.0603273
0.0603098
0.0602922
0.0602746
0.060257
0.0602394
0.0602218
0.0602041
0.0601865
0.0601688
0.0601511
0.0601333
0.0601156
0.0600978
0.0600801
0.0600623
0.0600444
0.0600266
0.0600088
0.0599909
0.059973
0.0599551
0.0599372
0.0599193
0.0599013
0.0598834
0.0598654
0.0598474
0.0598294
0.0598114
0.0597933
0.0597753
0.0597572
0.0597391
0.0597211
0.0597029
0.0596848
0.0596667
0.0596485
0.0596304
0.0596122
0.059594
0.0595758
0.0595576
0.0595393
0.0595211
0.0595028
0.0594845
0.0594663
0.059448
0.0594297
0.0594113
0.059393
0.0593747
0.0593563
0.0593379
0.0593196
0.0593012
0.0592828
0.0592644
0.0592459
0.0592275
0.0592091
0.0591906
0.0591722
0.0591537
0.0591352
0.0591167
0.0590982
0.0590797
0.0590612
0.0590427
0.0590242
0.0590056
0.058987
0.0589684
0.0589498
0.0589312
0.0589126
0.058894
0.0588754
0.0588567
0.0588381
0.0588194
0.0588008
0.0587821
0.0587634
0.0587447
0.0587259
0.0587072
0.0586885
0.0586697
0.0586509
0.0586321
0.0586133
0.0585944
0.0585756
0.0585567
0.0585378
0.0585189
0.0585
0.058481
0.058462
0.058443
0.058424
0.058405
0.0583863
0.0583672
0.0583472
0.0583277
0.0583084
0.058289
0.0582695
0.0582499
0.0582304
0.0582103
0.0581914
0.0581695
0.0581536
0.058126
0.0581178
0.0580818
0.0580776
0.0580401
0.0613333
0.061316
0.0612993
0.0612825
0.0612657
0.0612486
0.0612316
0.0612145
0.0611974
0.0611804
0.0611632
0.0611461
0.0611289
0.0611117
0.0610944
0.0610771
0.0610598
0.0610425
0.0610251
0.0610077
0.0609903
0.0609728
0.0609553
0.0609378
0.0609202
0.0609026
0.0608849
0.0608673
0.0608494
0.0608316
0.0608135
0.0607951
0.0607771
0.0607588
0.060741
0.0607243
0.0607077
0.0606907
0.0606736
0.0606565
0.0606394
0.0606223
0.0606051
0.0605879
0.0605707
0.0605534
0.0605362
0.0605189
0.0605015
0.0604842
0.0604669
0.0604495
0.0604321
0.0604147
0.0603972
0.0603798
0.0603623
0.0603448
0.0603273
0.0603097
0.0602922
0.0602746
0.060257
0.0602394
0.0602218
0.0602041
0.0601864
0.0601688
0.060151
0.0601333
0.0601156
0.0600978
0.06008
0.0600622
0.0600444
0.0600266
0.0600088
0.0599909
0.059973
0.0599551
0.0599372
0.0599193
0.0599013
0.0598834
0.0598654
0.0598474
0.0598294
0.0598114
0.0597933
0.0597753
0.0597572
0.0597391
0.059721
0.0597029
0.0596848
0.0596667
0.0596485
0.0596303
0.0596122
0.059594
0.0595758
0.0595575
0.0595393
0.0595211
0.0595028
0.0594845
0.0594663
0.059448
0.0594296
0.0594113
0.059393
0.0593747
0.0593563
0.0593379
0.0593196
0.0593012
0.0592828
0.0592643
0.0592459
0.0592275
0.059209
0.0591906
0.0591721
0.0591537
0.0591352
0.0591167
0.0590981
0.0590796
0.0590611
0.0590425
0.0590239
0.0590054
0.0589868
0.0589683
0.0589497
0.058931
0.0589124
0.0588938
0.0588752
0.0588565
0.0588378
0.0588191
0.0588004
0.0587817
0.058763
0.0587443
0.0587255
0.0587067
0.0586879
0.0586691
0.0586503
0.0586314
0.0586126
0.0585937
0.0585747
0.0585558
0.0585368
0.0585178
0.0584987
0.0584797
0.0584606
0.0584414
0.0584223
0.0584031
0.0583841
0.0583648
0.0583448
0.058325
0.0583054
0.0582858
0.058266
0.0582461
0.0582262
0.0582058
0.0581865
0.0581641
0.0581478
0.0581196
0.058111
0.0580741
0.0580697
0.0580309
0.0613358
0.0613156
0.0612986
0.0612823
0.0612657
0.0612484
0.0612314
0.0612145
0.0611974
0.0611803
0.0611632
0.061146
0.0611288
0.0611116
0.0610943
0.0610771
0.0610598
0.0610424
0.061025
0.0610076
0.0609902
0.0609727
0.0609552
0.0609377
0.0609201
0.0609025
0.0608848
0.0608671
0.0608493
0.0608315
0.0608135
0.0607952
0.0607773
0.0607592
0.0607414
0.0607245
0.0607078
0.0606907
0.0606736
0.0606565
0.0606394
0.0606222
0.0606051
0.0605879
0.0605706
0.0605534
0.0605361
0.0605188
0.0605015
0.0604842
0.0604668
0.0604495
0.0604321
0.0604146
0.0603972
0.0603798
0.0603623
0.0603448
0.0603273
0.0603097
0.0602922
0.0602746
0.060257
0.0602394
0.0602218
0.0602041
0.0601864
0.0601687
0.060151
0.0601333
0.0601156
0.0600978
0.06008
0.0600622
0.0600444
0.0600266
0.0600088
0.0599909
0.059973
0.0599551
0.0599372
0.0599193
0.0599013
0.0598834
0.0598654
0.0598474
0.0598294
0.0598114
0.0597933
0.0597753
0.0597572
0.0597391
0.059721
0.0597029
0.0596848
0.0596667
0.0596485
0.0596303
0.0596122
0.059594
0.0595758
0.0595575
0.0595393
0.0595211
0.0595028
0.0594845
0.0594662
0.0594479
0.0594296
0.0594113
0.059393
0.0593746
0.0593563
0.0593379
0.0593195
0.0593011
0.0592827
0.0592643
0.0592459
0.0592274
0.059209
0.0591905
0.0591721
0.0591536
0.0591351
0.0591166
0.0590981
0.0590795
0.059061
0.0590425
0.059024
0.0590054
0.0589868
0.0589682
0.0589496
0.0589309
0.0589123
0.0588936
0.058875
0.0588563
0.0588376
0.0588189
0.0588002
0.0587814
0.0587627
0.0587439
0.0587251
0.0587063
0.0586875
0.0586686
0.0586497
0.0586308
0.0586119
0.0585929
0.0585739
0.0585549
0.0585358
0.0585167
0.0584976
0.0584784
0.0584591
0.0584398
0.0584206
0.0584012
0.0583819
0.0583624
0.0583424
0.0583224
0.0583025
0.0582826
0.0582625
0.0582423
0.0582221
0.0582013
0.0581815
0.0581587
0.058142
0.0581132
0.0581042
0.0580664
0.0580619
0.0580218
0.0613172
0.0612979
0.0612819
0.0612653
0.0612483
0.0612313
0.0612143
0.0611973
0.0611802
0.0611631
0.0611459
0.0611287
0.0611115
0.0610943
0.061077
0.0610597
0.0610423
0.061025
0.0610075
0.0609901
0.0609726
0.0609551
0.0609376
0.06092
0.0609024
0.0608847
0.0608671
0.0608492
0.0608314
0.0608135
0.0607953
0.0607774
0.0607594
0.0607417
0.0607246
0.0607078
0.0606907
0.0606736
0.0606565
0.0606394
0.0606222
0.060605
0.0605878
0.0605706
0.0605534
0.0605361
0.0605188
0.0605015
0.0604842
0.0604668
0.0604494
0.060432
0.0604146
0.0603972
0.0603797
0.0603623
0.0603448
0.0603272
0.0603097
0.0602922
0.0602746
0.060257
0.0602394
0.0602217
0.0602041
0.0601864
0.0601687
0.060151
0.0601333
0.0601156
0.0600978
0.06008
0.0600622
0.0600444
0.0600266
0.0600087
0.0599909
0.059973
0.0599551
0.0599372
0.0599193
0.0599013
0.0598834
0.0598654
0.0598474
0.0598294
0.0598114
0.0597933
0.0597753
0.0597572
0.0597391
0.059721
0.0597029
0.0596848
0.0596667
0.0596485
0.0596303
0.0596121
0.059594
0.0595757
0.0595575
0.0595393
0.059521
0.0595028
0.0594845
0.0594662
0.0594479
0.0594296
0.0594113
0.059393
0.0593746
0.0593563
0.0593379
0.0593195
0.0593011
0.0592827
0.0592643
0.0592459
0.0592274
0.059209
0.0591905
0.059172
0.0591535
0.059135
0.0591165
0.059098
0.0590795
0.0590609
0.0590423
0.0590238
0.0590052
0.0589866
0.058968
0.0589494
0.0589308
0.0589121
0.0588934
0.0588748
0.0588561
0.0588374
0.0588186
0.0587999
0.0587811
0.0587623
0.0587435
0.0587247
0.0587058
0.058687
0.0586681
0.0586491
0.0586302
0.0586112
0.0585921
0.0585731
0.058554
0.0585348
0.0585156
0.0584964
0.0584771
0.0584577
0.0584383
0.0584189
0.0583994
0.0583798
0.0583601
0.05834
0.0583197
0.0582996
0.0582794
0.058259
0.0582385
0.0582179
0.0581967
0.0581766
0.0581534
0.0581362
0.0581068
0.0580975
0.0580588
0.058054
0.0580126
0.0612993
0.0612819
0.0612653
0.061248
0.0612311
0.0612143
0.0611972
0.0611802
0.061163
0.0611458
0.0611287
0.0611114
0.0610942
0.0610769
0.0610596
0.0610423
0.0610249
0.0610075
0.06099
0.0609726
0.0609551
0.0609375
0.0609199
0.0609023
0.0608846
0.060867
0.0608492
0.0608313
0.0608134
0.0607954
0.0607775
0.0607596
0.0607419
0.0607248
0.0607078
0.0606907
0.0606736
0.0606565
0.0606394
0.0606222
0.060605
0.0605878
0.0605706
0.0605534
0.0605361
0.0605188
0.0605015
0.0604842
0.0604668
0.0604494
0.060432
0.0604146
0.0603972
0.0603797
0.0603623
0.0603448
0.0603272
0.0603097
0.0602921
0.0602746
0.060257
0.0602394
0.0602217
0.0602041
0.0601864
0.0601687
0.060151
0.0601333
0.0601156
0.0600978
0.06008
0.0600622
0.0600444
0.0600266
0.0600087
0.0599909
0.059973
0.0599551
0.0599372
0.0599193
0.0599013
0.0598834
0.0598654
0.0598474
0.0598294
0.0598114
0.0597933
0.0597753
0.0597572
0.0597391
0.059721
0.0597029
0.0596848
0.0596666
0.0596485
0.0596303
0.0596121
0.0595939
0.0595757
0.0595575
0.0595393
0.059521
0.0595028
0.0594845
0.0594662
0.0594479
0.0594296
0.0594113
0.0593929
0.0593746
0.0593562
0.0593379
0.0593195
0.0593011
0.0592827
0.0592642
0.0592458
0.0592274
0.0592089
0.0591904
0.059172
0.0591535
0.059135
0.0591165
0.0590979
0.0590794
0.0590609
0.0590423
0.0590237
0.0590051
0.0589865
0.0589679
0.0589493
0.0589306
0.0589119
0.0588933
0.0588746
0.0588559
0.0588371
0.0588184
0.0587996
0.0587808
0.058762
0.0587432
0.0587243
0.0587054
0.0586865
0.0586675
0.0586486
0.0586295
0.0586105
0.0585914
0.0585722
0.0585531
0.0585338
0.0585145
0.0584952
0.0584758
0.0584563
0.0584367
0.0584172
0.0583975
0.0583777
0.0583578
0.0583375
0.0583171
0.0582967
0.0582762
0.0582556
0.0582347
0.0582138
0.0581923
0.0581718
0.0581481
0.0581304
0.0581004
0.0580908
0.0580511
0.0580463
0.0580035
0.0613018
0.0612816
0.0612647
0.0612479
0.0612311
0.061214
0.0611971
0.0611801
0.061163
0.0611458
0.0611286
0.0611114
0.0610941
0.0610769
0.0610595
0.0610422
0.0610248
0.0610074
0.06099
0.0609725
0.060955
0.0609374
0.0609198
0.0609022
0.0608846
0.0608669
0.0608491
0.0608313
0.0608134
0.0607954
0.0607776
0.0607598
0.0607421
0.0607249
0.0607079
0.0606908
0.0606736
0.0606565
0.0606393
0.0606222
0.060605
0.0605878
0.0605706
0.0605533
0.0605361
0.0605188
0.0605015
0.0604841
0.0604668
0.0604494
0.060432
0.0604146
0.0603972
0.0603797
0.0603622
0.0603447
0.0603272
0.0603097
0.0602921
0.0602746
0.060257
0.0602394
0.0602217
0.0602041
0.0601864
0.0601687
0.060151
0.0601333
0.0601156
0.0600978
0.06008
0.0600622
0.0600444
0.0600266
0.0600087
0.0599909
0.059973
0.0599551
0.0599372
0.0599193
0.0599013
0.0598834
0.0598654
0.0598474
0.0598294
0.0598114
0.0597933
0.0597753
0.0597572
0.0597391
0.059721
0.0597029
0.0596848
0.0596666
0.0596485
0.0596303
0.0596121
0.0595939
0.0595757
0.0595575
0.0595393
0.059521
0.0595028
0.0594845
0.0594662
0.0594479
0.0594296
0.0594113
0.0593929
0.0593746
0.0593562
0.0593378
0.0593195
0.0593011
0.0592826
0.0592642
0.0592458
0.0592273
0.0592089
0.0591904
0.0591719
0.0591534
0.0591349
0.0591164
0.0590979
0.0590793
0.0590608
0.0590422
0.0590236
0.059005
0.0589864
0.0589678
0.0589491
0.0589305
0.0589118
0.0588931
0.0588744
0.0588556
0.0588369
0.0588181
0.0587993
0.0587805
0.0587617
0.0587428
0.0587239
0.058705
0.058686
0.058667
0.058648
0.0586289
0.0586098
0.0585906
0.0585714
0.0585522
0.0585328
0.0585134
0.058494
0.0584745
0.0584549
0.0584352
0.0584155
0.0583956
0.0583756
0.0583555
0.0583351
0.0583145
0.0582939
0.0582731
0.0582522
0.058231
0.0582098
0.0581878
0.0581669
0.0581428
0.0581247
0.0580941
0.0580841
0.0580435
0.0580386
0.0579944
0.0612833
0.061264
0.0612474
0.061231
0.0612142
0.061197
0.06118
0.0611629
0.0611457
0.0611285
0.0611113
0.0610941
0.0610768
0.0610595
0.0610421
0.0610247
0.0610073
0.0609899
0.0609724
0.0609549
0.0609374
0.0609198
0.0609022
0.0608845
0.0608668
0.060849
0.0608312
0.0608134
0.0607955
0.0607777
0.0607599
0.0607423
0.060725
0.0607079
0.0606908
0.0606736
0.0606565
0.0606393
0.0606222
0.060605
0.0605878
0.0605705
0.0605533
0.060536
0.0605187
0.0605014
0.0604841
0.0604668
0.0604494
0.060432
0.0604146
0.0603972
0.0603797
0.0603622
0.0603447
0.0603272
0.0603097
0.0602921
0.0602746
0.060257
0.0602394
0.0602217
0.0602041
0.0601864
0.0601687
0.060151
0.0601333
0.0601155
0.0600978
0.06008
0.0600622
0.0600444
0.0600266
0.0600087
0.0599909
0.059973
0.0599551
0.0599372
0.0599193
0.0599013
0.0598833
0.0598654
0.0598474
0.0598294
0.0598114
0.0597933
0.0597753
0.0597572
0.0597391
0.059721
0.0597029
0.0596848
0.0596666
0.0596485
0.0596303
0.0596121
0.0595939
0.0595757
0.0595575
0.0595393
0.059521
0.0595027
0.0594845
0.0594662
0.0594479
0.0594296
0.0594112
0.0593929
0.0593746
0.0593562
0.0593378
0.0593194
0.059301
0.0592826
0.0592642
0.0592458
0.0592273
0.0592088
0.0591904
0.0591719
0.0591534
0.0591349
0.0591163
0.0590978
0.0590793
0.0590607
0.0590421
0.0590235
0.0590049
0.0589863
0.0589676
0.058949
0.0589303
0.0589116
0.0588929
0.0588742
0.0588554
0.0588367
0.0588179
0.058799
0.0587802
0.0587613
0.0587424
0.0587235
0.0587045
0.0586855
0.0586665
0.0586474
0.0586283
0.0586091
0.0585899
0.0585706
0.0585513
0.0585319
0.0585124
0.0584928
0.0584732
0.0584535
0.0584337
0.0584138
0.0583938
0.0583736
0.0583533
0.0583327
0.0583119
0.058291
0.05827
0.0582488
0.0582273
0.0582057
0.0581834
0.0581621
0.0581375
0.058119
0.0580878
0.0580774
0.0580359
0.0580309
0.0579854
0.0612657
0.0612465
0.0612306
0.0612137
0.0611968
0.06118
0.0611628
0.0611456
0.0611284
0.0611113
0.061094
0.0610767
0.0610594
0.0610421
0.0610247
0.0610073
0.0609898
0.0609723
0.0609548
0.0609373
0.0609197
0.0609021
0.0608844
0.0608667
0.060849
0.0608312
0.0608134
0.0607955
0.0607778
0.0607601
0.0607424
0.0607251
0.060708
0.0606908
0.0606736
0.0606565
0.0606393
0.0606221
0.060605
0.0605877
0.0605705
0.0605533
0.060536
0.0605187
0.0605014
0.0604841
0.0604667
0.0604494
0.060432
0.0604146
0.0603971
0.0603797
0.0603622
0.0603447
0.0603272
0.0603097
0.0602921
0.0602745
0.060257
0.0602393
0.0602217
0.0602041
0.0601864
0.0601687
0.060151
0.0601333
0.0601155
0.0600978
0.06008
0.0600622
0.0600444
0.0600266
0.0600087
0.0599909
0.059973
0.0599551
0.0599372
0.0599192
0.0599013
0.0598833
0.0598654
0.0598474
0.0598294
0.0598113
0.0597933
0.0597753
0.0597572
0.0597391
0.059721
0.0597029
0.0596848
0.0596666
0.0596485
0.0596303
0.0596121
0.0595939
0.0595757
0.0595575
0.0595393
0.059521
0.0595027
0.0594845
0.0594662
0.0594479
0.0594296
0.0594112
0.0593929
0.0593745
0.0593562
0.0593378
0.0593194
0.059301
0.0592826
0.0592642
0.0592457
0.0592273
0.0592088
0.0591903
0.0591718
0.0591533
0.0591348
0.0591163
0.0590977
0.0590792
0.0590606
0.059042
0.0590234
0.0590048
0.0589862
0.0589675
0.0589489
0.0589302
0.0589115
0.0588927
0.058874
0.0588552
0.0588364
0.0588176
0.0587988
0.0587799
0.058761
0.0587421
0.0587231
0.0587041
0.0586851
0.058666
0.0586468
0.0586277
0.0586084
0.0585891
0.0585698
0.0585504
0.0585309
0.0585113
0.0584917
0.0584719
0.0584521
0.0584321
0.0584121
0.0583919
0.0583716
0.0583511
0.0583303
0.0583093
0.0582882
0.0582669
0.0582454
0.0582236
0.0582017
0.058179
0.0581573
0.0581323
0.0581134
0.0580816
0.0580708
0.0580284
0.0580232
0.0579764
0.0612481
0.0612306
0.0612136
0.0611968
0.0611798
0.0611627
0.0611455
0.0611284
0.0611112
0.0610939
0.0610767
0.0610593
0.061042
0.0610246
0.0610072
0.0609897
0.0609723
0.0609547
0.0609372
0.0609196
0.060902
0.0608843
0.0608666
0.0608489
0.0608311
0.0608133
0.0607955
0.0607778
0.0607601
0.0607426
0.0607252
0.060708
0.0606908
0.0606736
0.0606565
0.0606393
0.0606221
0.0606049
0.0605877
0.0605705
0.0605533
0.060536
0.0605187
0.0605014
0.0604841
0.0604667
0.0604494
0.060432
0.0604146
0.0603971
0.0603797
0.0603622
0.0603447
0.0603272
0.0603097
0.0602921
0.0602745
0.0602569
0.0602393
0.0602217
0.0602041
0.0601864
0.0601687
0.060151
0.0601333
0.0601155
0.0600978
0.06008
0.0600622
0.0600444
0.0600266
0.0600087
0.0599909
0.059973
0.0599551
0.0599372
0.0599192
0.0599013
0.0598833
0.0598654
0.0598474
0.0598294
0.0598113
0.0597933
0.0597752
0.0597572
0.0597391
0.059721
0.0597029
0.0596848
0.0596666
0.0596485
0.0596303
0.0596121
0.0595939
0.0595757
0.0595575
0.0595392
0.059521
0.0595027
0.0594845
0.0594662
0.0594479
0.0594295
0.0594112
0.0593929
0.0593745
0.0593562
0.0593378
0.0593194
0.059301
0.0592826
0.0592641
0.0592457
0.0592272
0.0592088
0.0591903
0.0591718
0.0591533
0.0591348
0.0591162
0.0590977
0.0590791
0.0590605
0.0590419
0.0590233
0.0590047
0.0589861
0.0589674
0.0589487
0.05893
0.0589113
0.0588926
0.0588738
0.058855
0.0588362
0.0588174
0.0587985
0.0587796
0.0587607
0.0587417
0.0587227
0.0587037
0.0586846
0.0586655
0.0586463
0.058627
0.0586078
0.0585884
0.058569
0.0585495
0.0585299
0.0585103
0.0584905
0.0584707
0.0584507
0.0584306
0.0584104
0.0583901
0.0583696
0.0583489
0.058328
0.0583068
0.0582854
0.0582639
0.0582421
0.0582199
0.0581977
0.0581747
0.0581526
0.0581271
0.0581078
0.0580754
0.0580642
0.0580209
0.0580157
0.0579675
0.0612503
0.06123
0.0612131
0.0611967
0.06118
0.0611626
0.0611454
0.0611283
0.0611111
0.0610939
0.0610766
0.0610593
0.0610419
0.0610245
0.0610071
0.0609897
0.0609722
0.0609547
0.0609371
0.0609195
0.0609019
0.0608843
0.0608666
0.0608488
0.0608311
0.0608133
0.0607955
0.0607778
0.0607602
0.0607426
0.0607253
0.060708
0.0606908
0.0606736
0.0606565
0.0606393
0.0606221
0.0606049
0.0605877
0.0605705
0.0605532
0.060536
0.0605187
0.0605014
0.060484
0.0604667
0.0604493
0.0604319
0.0604145
0.0603971
0.0603797
0.0603622
0.0603447
0.0603272
0.0603096
0.0602921
0.0602745
0.0602569
0.0602393
0.0602217
0.060204
0.0601864
0.0601687
0.060151
0.0601333
0.0601155
0.0600978
0.06008
0.0600622
0.0600444
0.0600266
0.0600087
0.0599909
0.059973
0.0599551
0.0599372
0.0599192
0.0599013
0.0598833
0.0598654
0.0598474
0.0598294
0.0598113
0.0597933
0.0597752
0.0597572
0.0597391
0.059721
0.0597029
0.0596848
0.0596666
0.0596485
0.0596303
0.0596121
0.0595939
0.0595757
0.0595575
0.0595392
0.059521
0.0595027
0.0594844
0.0594661
0.0594478
0.0594295
0.0594112
0.0593929
0.0593745
0.0593561
0.0593378
0.0593194
0.059301
0.0592825
0.0592641
0.0592457
0.0592272
0.0592087
0.0591902
0.0591717
0.0591532
0.0591347
0.0591162
0.0590976
0.059079
0.0590605
0.0590419
0.0590232
0.0590046
0.0589859
0.0589673
0.0589486
0.0589299
0.0589111
0.0588924
0.0588736
0.0588548
0.058836
0.0588171
0.0587982
0.0587793
0.0587603
0.0587414
0.0587223
0.0587032
0.0586841
0.058665
0.0586457
0.0586264
0.0586071
0.0585877
0.0585682
0.0585486
0.058529
0.0585092
0.0584894
0.0584694
0.0584494
0.0584291
0.0584088
0.0583883
0.0583676
0.0583467
0.0583256
0.0583042
0.0582827
0.0582608
0.0582388
0.0582163
0.0581938
0.0581704
0.0581479
0.058122
0.0581022
0.0580693
0.0580578
0.0580135
0.0580081
0.0579586
0.061232
0.0612123
0.0611962
0.0611796
0.0611625
0.0611454
0.0611282
0.061111
0.0610938
0.0610765
0.0610592
0.0610419
0.0610245
0.0610071
0.0609896
0.0609721
0.0609546
0.060937
0.0609195
0.0609018
0.0608842
0.0608665
0.0608488
0.060831
0.0608133
0.0607956
0.0607779
0.0607602
0.0607427
0.0607253
0.060708
0.0606908
0.0606736
0.0606564
0.0606393
0.0606221
0.0606049
0.0605877
0.0605704
0.0605532
0.0605359
0.0605187
0.0605014
0.060484
0.0604667
0.0604493
0.0604319
0.0604145
0.0603971
0.0603796
0.0603622
0.0603447
0.0603272
0.0603096
0.0602921
0.0602745
0.0602569
0.0602393
0.0602217
0.060204
0.0601864
0.0601687
0.060151
0.0601333
0.0601155
0.0600978
0.06008
0.0600622
0.0600444
0.0600266
0.0600087
0.0599909
0.059973
0.0599551
0.0599372
0.0599192
0.0599013
0.0598833
0.0598654
0.0598474
0.0598294
0.0598113
0.0597933
0.0597752
0.0597572
0.0597391
0.059721
0.0597029
0.0596847
0.0596666
0.0596485
0.0596303
0.0596121
0.0595939
0.0595757
0.0595575
0.0595392
0.059521
0.0595027
0.0594844
0.0594661
0.0594478
0.0594295
0.0594112
0.0593928
0.0593745
0.0593561
0.0593377
0.0593193
0.0593009
0.0592825
0.0592641
0.0592456
0.0592272
0.0592087
0.0591902
0.0591717
0.0591532
0.0591346
0.0591161
0.0590975
0.059079
0.0590604
0.0590418
0.0590231
0.0590045
0.0589858
0.0589672
0.0589485
0.0589297
0.058911
0.0588922
0.0588734
0.0588546
0.0588358
0.0588169
0.058798
0.058779
0.05876
0.058741
0.0587219
0.0587028
0.0586837
0.0586645
0.0586452
0.0586258
0.0586064
0.058587
0.0585674
0.0585478
0.058528
0.0585082
0.0584883
0.0584682
0.058448
0.0584277
0.0584072
0.0583865
0.0583657
0.0583446
0.0583233
0.0583017
0.0582799
0.0582578
0.0582355
0.0582128
0.0581899
0.0581661
0.0581433
0.0581169
0.0580967
0.0580632
0.0580513
0.0580062
0.0580007
0.0579498
0.0612139
0.0611965
0.0611796
0.0611622
0.0611452
0.0611282
0.061111
0.0610938
0.0610765
0.0610591
0.0610418
0.0610244
0.061007
0.0609895
0.0609721
0.0609545
0.060937
0.0609194
0.0609018
0.0608841
0.0608664
0.0608487
0.060831
0.0608133
0.0607955
0.0607779
0.0607603
0.0607427
0.0607253
0.0607081
0.0606908
0.0606736
0.0606564
0.0606392
0.060622
0.0606049
0.0605876
0.0605704
0.0605532
0.0605359
0.0605186
0.0605013
0.060484
0.0604667
0.0604493
0.0604319
0.0604145
0.0603971
0.0603796
0.0603622
0.0603447
0.0603272
0.0603096
0.0602921
0.0602745
0.0602569
0.0602393
0.0602217
0.060204
0.0601864
0.0601687
0.060151
0.0601333
0.0601155
0.0600978
0.06008
0.0600622
0.0600444
0.0600266
0.0600087
0.0599908
0.059973
0.0599551
0.0599372
0.0599192
0.0599013
0.0598833
0.0598653
0.0598474
0.0598293
0.0598113
0.0597933
0.0597752
0.0597572
0.0597391
0.059721
0.0597029
0.0596847
0.0596666
0.0596484
0.0596303
0.0596121
0.0595939
0.0595757
0.0595575
0.0595392
0.059521
0.0595027
0.0594844
0.0594661
0.0594478
0.0594295
0.0594112
0.0593928
0.0593745
0.0593561
0.0593377
0.0593193
0.0593009
0.0592825
0.059264
0.0592456
0.0592271
0.0592086
0.0591902
0.0591717
0.0591531
0.0591346
0.059116
0.0590975
0.0590789
0.0590603
0.0590417
0.0590231
0.0590044
0.0589857
0.058967
0.0589483
0.0589296
0.0589108
0.058892
0.0588732
0.0588544
0.0588355
0.0588166
0.0587977
0.0587787
0.0587597
0.0587407
0.0587216
0.0587024
0.0586832
0.058664
0.0586446
0.0586253
0.0586058
0.0585863
0.0585666
0.0585469
0.0585271
0.0585072
0.0584871
0.058467
0.0584467
0.0584262
0.0584056
0.0583848
0.0583638
0.0583425
0.058321
0.0582993
0.0582772
0.0582549
0.0582323
0.0582092
0.058186
0.0581619
0.0581387
0.0581119
0.0580913
0.0580572
0.0580449
0.0579989
0.0579933
0.0579411
0.0612165
0.0611959
0.0611791
0.0611622
0.0611452
0.061128
0.0611108
0.0610937
0.0610764
0.0610591
0.0610417
0.0610243
0.0610069
0.0609895
0.060972
0.0609545
0.0609369
0.0609193
0.0609017
0.060884
0.0608663
0.0608487
0.0608309
0.0608132
0.0607955
0.0607779
0.0607603
0.0607428
0.0607254
0.0607081
0.0606908
0.0606736
0.0606564
0.0606392
0.060622
0.0606048
0.0605876
0.0605704
0.0605531
0.0605359
0.0605186
0.0605013
0.060484
0.0604666
0.0604493
0.0604319
0.0604145
0.0603971
0.0603796
0.0603621
0.0603447
0.0603271
0.0603096
0.0602921
0.0602745
0.0602569
0.0602393
0.0602217
0.060204
0.0601864
0.0601687
0.060151
0.0601332
0.0601155
0.0600978
0.06008
0.0600622
0.0600444
0.0600265
0.0600087
0.0599908
0.059973
0.0599551
0.0599372
0.0599192
0.0599013
0.0598833
0.0598653
0.0598474
0.0598293
0.0598113
0.0597933
0.0597752
0.0597572
0.0597391
0.059721
0.0597029
0.0596847
0.0596666
0.0596484
0.0596303
0.0596121
0.0595939
0.0595757
0.0595574
0.0595392
0.059521
0.0595027
0.0594844
0.0594661
0.0594478
0.0594295
0.0594112
0.0593928
0.0593744
0.0593561
0.0593377
0.0593193
0.0593009
0.0592825
0.059264
0.0592456
0.0592271
0.0592086
0.0591901
0.0591716
0.0591531
0.0591345
0.059116
0.0590974
0.0590788
0.0590602
0.0590416
0.059023
0.0590043
0.0589856
0.0589669
0.0589482
0.0589295
0.0589107
0.0588919
0.0588731
0.0588542
0.0588353
0.0588164
0.0587974
0.0587784
0.0587594
0.0587403
0.0587212
0.058702
0.0586828
0.0586635
0.0586441
0.0586247
0.0586052
0.0585856
0.0585659
0.0585461
0.0585262
0.0585062
0.0584861
0.0584658
0.0584454
0.0584248
0.058404
0.0583831
0.0583619
0.0583405
0.0583188
0.0582968
0.0582745
0.058252
0.0582291
0.0582058
0.0581822
0.0581577
0.0581341
0.0581069
0.0580859
0.0580512
0.0580387
0.0579917
0.057986
0.0579325
0.0611979
0.0611783
0.0611616
0.0611451
0.0611281
0.0611109
0.0610937
0.0610764
0.061059
0.0610417
0.0610243
0.0610069
0.0609894
0.0609719
0.0609544
0.0609368
0.0609192
0.0609016
0.060884
0.0608663
0.0608486
0.0608309
0.0608132
0.0607955
0.0607779
0.0607603
0.0607428
0.0607254
0.0607081
0.0606908
0.0606736
0.0606564
0.0606392
0.060622
0.0606048
0.0605876
0.0605704
0.0605531
0.0605359
0.0605186
0.0605013
0.060484
0.0604666
0.0604493
0.0604319
0.0604145
0.060397
0.0603796
0.0603621
0.0603446
0.0603271
0.0603096
0.0602921
0.0602745
0.0602569
0.0602393
0.0602217
0.060204
0.0601864
0.0601687
0.060151
0.0601332
0.0601155
0.0600977
0.06008
0.0600622
0.0600444
0.0600265
0.0600087
0.0599908
0.059973
0.0599551
0.0599371
0.0599192
0.0599013
0.0598833
0.0598653
0.0598473
0.0598293
0.0598113
0.0597933
0.0597752
0.0597572
0.0597391
0.059721
0.0597029
0.0596847
0.0596666
0.0596484
0.0596303
0.0596121
0.0595939
0.0595757
0.0595574
0.0595392
0.0595209
0.0595027
0.0594844
0.0594661
0.0594478
0.0594295
0.0594111
0.0593928
0.0593744
0.0593561
0.0593377
0.0593193
0.0593009
0.0592824
0.059264
0.0592455
0.0592271
0.0592086
0.0591901
0.0591716
0.059153
0.0591345
0.0591159
0.0590974
0.0590788
0.0590602
0.0590415
0.0590229
0.0590042
0.0589855
0.0589668
0.0589481
0.0589293
0.0589105
0.0588917
0.0588729
0.058854
0.0588351
0.0588162
0.0587972
0.0587782
0.0587591
0.05874
0.0587208
0.0587016
0.0586823
0.058663
0.0586436
0.0586241
0.0586045
0.0585849
0.0585651
0.0585453
0.0585253
0.0585052
0.058485
0.0584646
0.0584441
0.0584234
0.0584025
0.0583814
0.05836
0.0583384
0.0583166
0.0582944
0.0582719
0.0582491
0.0582259
0.0582023
0.0581785
0.0581537
0.0581297
0.058102
0.0580806
0.0580454
0.0580324
0.0579846
0.0579788
0.0579239
0.0611802
0.0611608
0.0611447
0.0611277
0.0611107
0.0610936
0.0610763
0.0610589
0.0610416
0.0610242
0.0610068
0.0609894
0.0609718
0.0609543
0.0609368
0.0609192
0.0609015
0.0608839
0.0608662
0.0608485
0.0608308
0.0608131
0.0607955
0.0607778
0.0607603
0.0607428
0.0607254
0.060708
0.0606908
0.0606736
0.0606563
0.0606392
0.060622
0.0606048
0.0605876
0.0605703
0.0605531
0.0605358
0.0605186
0.0605013
0.0604839
0.0604666
0.0604492
0.0604319
0.0604145
0.060397
0.0603796
0.0603621
0.0603446
0.0603271
0.0603096
0.060292
0.0602745
0.0602569
0.0602393
0.0602217
0.060204
0.0601863
0.0601687
0.060151
0.0601332
0.0601155
0.0600977
0.06008
0.0600622
0.0600444
0.0600265
0.0600087
0.0599908
0.059973
0.0599551
0.0599371
0.0599192
0.0599013
0.0598833
0.0598653
0.0598473
0.0598293
0.0598113
0.0597933
0.0597752
0.0597571
0.0597391
0.059721
0.0597029
0.0596847
0.0596666
0.0596484
0.0596303
0.0596121
0.0595939
0.0595757