/*--------------------------------*- C++ -*----------------------------------*\
| =========                 |                                                 |
| \\      /  F ield         | OpenFOAM: The Open Source CFD Toolbox           |
|  \\    /   O peration     | Version:  2512                                  |
|   \\  /    A nd           | Website:  www.openfoam.com                      |
|    \\/     M anipulation  |                                                 |
\*---------------------------------------------------------------------------*/
FoamFile
{
    version     2.0;
    format      ascii;
    arch        "LSB;label=32;scalar=64";
    class       volScalarField;
    location    "0.1";
    object      Uy;
}
// * * * * * * * * * * * * * * * * * * * * * * * * * * * * * * * * * * * * * //

dimensions      [0 1 -1 0 0 0 0];

internalField   nonuniform List<scalar> 
8334
(
-5.52127e-06
-2.22515e-06
-3.86319e-06
-5.08581e-06
-5.47072e-06
-5.64051e-06
-6.0392e-06
-6.34775e-06
-6.59206e-06
-6.89032e-06
-7.18332e-06
-7.46258e-06
-7.73447e-06
-7.98876e-06
-8.23877e-06
-8.48975e-06
-8.73507e-06
-8.97943e-06
-9.22145e-06
-9.46726e-06
-9.71491e-06
-9.97187e-06
-1.02366e-05
-1.05047e-05
-1.07937e-05
-1.10782e-05
-1.13829e-05
-1.17359e-05
-1.19846e-05
-1.24426e-05
-1.26339e-05
-1.31999e-05
-1.32501e-05
-1.40953e-05
-1.3802e-05
-1.43384e-05
-1.20718e-05
-9.45391e-06
-8.8853e-06
-8.86332e-06
-8.70577e-06
-8.61037e-06
-8.61477e-06
-8.6504e-06
-8.69576e-06
-8.74995e-06
-8.80897e-06
-8.87031e-06
-8.93208e-06
-8.99295e-06
-9.05174e-06
-9.10802e-06
-9.16159e-06
-9.21231e-06
-9.25988e-06
-9.30413e-06
-9.34532e-06
-9.38398e-06
-9.42022e-06
-9.45452e-06
-9.48703e-06
-9.51727e-06
-9.54542e-06
-9.57186e-06
-9.59678e-06
-9.62028e-06
-9.64243e-06
-9.66331e-06
-9.68313e-06
-9.70194e-06
-9.71983e-06
-9.73685e-06
-9.75308e-06
-9.76856e-06
-9.78337e-06
-9.7976e-06
-9.81119e-06
-9.82436e-06
-9.83726e-06
-9.84989e-06
-9.8622e-06
-9.87434e-06
-9.88635e-06
-9.89827e-06
-9.91015e-06
-9.92202e-06
-9.93392e-06
-9.9459e-06
-9.95803e-06
-9.97035e-06
-9.98289e-06
-9.99575e-06
-1.0009e-05
-1.00226e-05
-1.00368e-05
-1.00515e-05
-1.00669e-05
-1.00828e-05
-1.00995e-05
-1.01172e-05
-1.01356e-05
-1.01553e-05
-1.01765e-05
-1.0199e-05
-1.02231e-05
-1.02492e-05
-1.02775e-05
-1.0308e-05
-1.03411e-05
-1.03767e-05
-1.04143e-05
-1.04548e-05
-1.04983e-05
-1.05459e-05
-1.05989e-05
-1.06557e-05
-1.07179e-05
-1.07849e-05
-1.08576e-05
-1.09364e-05
-1.10239e-05
-1.11181e-05
-1.1222e-05
-1.13339e-05
-1.14563e-05
-1.15912e-05
-1.17379e-05
-1.18965e-05
-1.20695e-05
-1.22589e-05
-1.24699e-05
-1.2716e-05
-1.29994e-05
-1.33089e-05
-1.36318e-05
-1.39686e-05
-1.43191e-05
-1.46772e-05
-1.50229e-05
-1.53863e-05
-1.58108e-05
-1.63089e-05
-1.68725e-05
-1.74955e-05
-1.81734e-05
-1.89051e-05
-1.96974e-05
-2.05715e-05
-2.1546e-05
-2.26256e-05
-2.38149e-05
-2.51164e-05
-2.65334e-05
-2.80901e-05
-2.98065e-05
-3.16975e-05
-3.3776e-05
-3.60462e-05
-3.85249e-05
-4.12441e-05
-4.42222e-05
-4.74966e-05
-5.10497e-05
-5.50091e-05
-5.9103e-05
-6.40326e-05
-6.82228e-05
-7.39867e-05
-6.70396e-06
-1.35062e-06
-4.14212e-06
-5.00047e-06
-5.46899e-06
-5.96471e-06
-6.18048e-06
-6.45329e-06
-6.85457e-06
-7.15283e-06
-7.40882e-06
-7.66574e-06
-7.90742e-06
-8.14983e-06
-8.39241e-06
-8.62918e-06
-8.86115e-06
-9.08996e-06
-9.32084e-06
-9.55346e-06
-9.79225e-06
-1.00355e-05
-1.02812e-05
-1.05423e-05
-1.08056e-05
-1.10762e-05
-1.13976e-05
-1.16267e-05
-1.20445e-05
-1.22111e-05
-1.28329e-05
-1.28634e-05
-1.38125e-05
-1.34547e-05
-1.38784e-05
-1.20428e-05
-9.82509e-06
-9.18751e-06
-9.15261e-06
-8.99635e-06
-8.88225e-06
-8.87384e-06
-8.90525e-06
-8.94907e-06
-9.0022e-06
-9.0614e-06
-9.12273e-06
-9.18462e-06
-9.2451e-06
-9.30364e-06
-9.35992e-06
-9.41368e-06
-9.46469e-06
-9.51291e-06
-9.55837e-06
-9.60079e-06
-9.64082e-06
-9.67842e-06
-9.71338e-06
-9.7459e-06
-9.77682e-06
-9.80621e-06
-9.83406e-06
-9.86043e-06
-9.88498e-06
-9.90802e-06
-9.92989e-06
-9.95076e-06
-9.97065e-06
-9.98965e-06
-1.00078e-05
-1.00253e-05
-1.0042e-05
-1.00581e-05
-1.00738e-05
-1.00891e-05
-1.01037e-05
-1.01178e-05
-1.01316e-05
-1.01452e-05
-1.01587e-05
-1.01719e-05
-1.0185e-05
-1.0198e-05
-1.0211e-05
-1.0224e-05
-1.02371e-05
-1.02504e-05
-1.02637e-05
-1.02773e-05
-1.02912e-05
-1.03054e-05
-1.032e-05
-1.03351e-05
-1.03507e-05
-1.0367e-05
-1.0384e-05
-1.04018e-05
-1.04205e-05
-1.04404e-05
-1.04611e-05
-1.0483e-05
-1.05063e-05
-1.05315e-05
-1.05584e-05
-1.0587e-05
-1.06168e-05
-1.06482e-05
-1.06824e-05
-1.07199e-05
-1.07609e-05
-1.08049e-05
-1.08529e-05
-1.09034e-05
-1.09592e-05
-1.10194e-05
-1.10852e-05
-1.11564e-05
-1.12348e-05
-1.1319e-05
-1.14117e-05
-1.15118e-05
-1.16221e-05
-1.1743e-05
-1.18737e-05
-1.20172e-05
-1.21749e-05
-1.23485e-05
-1.25391e-05
-1.27461e-05
-1.29568e-05
-1.31664e-05
-1.33892e-05
-1.3644e-05
-1.39361e-05
-1.42667e-05
-1.4636e-05
-1.50315e-05
-1.54586e-05
-1.59218e-05
-1.64302e-05
-1.69881e-05
-1.76037e-05
-1.82901e-05
-1.90607e-05
-1.992e-05
-2.08604e-05
-2.18799e-05
-2.29883e-05
-2.42004e-05
-2.55326e-05
-2.70011e-05
-2.86101e-05
-3.03656e-05
-3.22814e-05
-3.43744e-05
-3.66703e-05
-3.91898e-05
-4.19457e-05
-4.49503e-05
-4.82398e-05
-5.18002e-05
-5.57519e-05
-5.9916e-05
-6.47207e-05
-6.94911e-05
-7.54426e-05
-8.10511e-05
-8.72693e-05
-9.46368e-05
-0.000102655
-0.000111319
-0.000120776
-0.000131102
-0.000142363
-0.000154635
-0.000168016
-0.000182572
-0.000198357
-0.000216035
-0.000232821
-0.000259162
-0.00026716
-0.000313938
-6.1625e-06
-3.84506e-06
-4.30473e-06
-5.04942e-06
-5.4649e-06
-5.70403e-06
-5.98312e-06
-6.33069e-06
-6.63519e-06
-6.93711e-06
-7.22113e-06
-7.46732e-06
-7.71678e-06
-7.96859e-06
-8.21037e-06
-8.44633e-06
-8.68026e-06
-8.91548e-06
-9.15265e-06
-9.39461e-06
-9.64201e-06
-9.89327e-06
-1.01526e-05
-1.04178e-05
-1.06887e-05
-1.10028e-05
-1.1241e-05
-1.16521e-05
-1.18562e-05
-1.24378e-05
-1.24679e-05
-1.32822e-05
-1.27914e-05
-1.29433e-05
-1.18126e-05
-9.92397e-06
-9.1207e-06
-9.01079e-06
-8.86255e-06
-8.72963e-06
-8.69917e-06
-8.72225e-06
-8.76266e-06
-8.81351e-06
-8.87098e-06
-8.93139e-06
-8.99232e-06
-9.05317e-06
-9.11272e-06
-9.16995e-06
-9.22419e-06
-9.27533e-06
-9.32327e-06
-9.36802e-06
-9.41053e-06
-9.45034e-06
-9.48768e-06
-9.523e-06
-9.55598e-06
-9.58672e-06
-9.61526e-06
-9.64192e-06
-9.667e-06
-9.69107e-06
-9.71408e-06
-9.7358e-06
-9.75629e-06
-9.77571e-06
-9.79411e-06
-9.81159e-06
-9.82827e-06
-9.84413e-06
-9.85923e-06
-9.87371e-06
-9.88777e-06
-9.90173e-06
-9.91563e-06
-9.92921e-06
-9.94247e-06
-9.95553e-06
-9.96842e-06
-9.98118e-06
-9.9939e-06
-1.00066e-05
-1.00194e-05
-1.00323e-05
-1.00453e-05
-1.00586e-05
-1.00722e-05
-1.00862e-05
-1.01006e-05
-1.01154e-05
-1.01309e-05
-1.0147e-05
-1.01638e-05
-1.01814e-05
-1.01998e-05
-1.02191e-05
-1.02393e-05
-1.02612e-05
-1.02846e-05
-1.03095e-05
-1.03359e-05
-1.0364e-05
-1.0394e-05
-1.04273e-05
-1.04644e-05
-1.0503e-05
-1.05451e-05
-1.05898e-05
-1.06381e-05
-1.06895e-05
-1.07471e-05
-1.08095e-05
-1.08768e-05
-1.09485e-05
-1.10279e-05
-1.11148e-05
-1.12072e-05
-1.13101e-05
-1.14207e-05
-1.15423e-05
-1.16725e-05
-1.18157e-05
-1.19711e-05
-1.214e-05
-1.23239e-05
-1.25233e-05
-1.27375e-05
-1.29702e-05
-1.32375e-05
-1.35454e-05
-1.38753e-05
-1.42243e-05
-1.46008e-05
-1.50105e-05
-1.54498e-05
-1.5924e-05
-1.64403e-05
-1.70065e-05
-1.76259e-05
-1.82999e-05
-1.90284e-05
-1.98103e-05
-2.06531e-05
-2.15736e-05
-2.25865e-05
-2.3699e-05
-2.49158e-05
-2.62412e-05
-2.7683e-05
-2.92603e-05
-3.09918e-05
-3.28917e-05
-3.49724e-05
-3.72437e-05
-3.97225e-05
-4.24356e-05
-4.54038e-05
-4.866e-05
-5.22003e-05
-5.61046e-05
-6.02759e-05
-6.49515e-05
-6.99298e-05
-7.53884e-05
-8.29995e-05
-8.91033e-05
-9.58744e-05
-0.000103678
-0.00011229
-0.000121714
-0.000132026
-0.000143286
-0.000155555
-0.00016893
-0.00018348
-0.000199246
-0.000216917
-0.00023368
-0.00026006
-0.000268062
-0.000314945
-2.93258e-06
-2.83384e-06
-3.9566e-06
-4.55888e-06
-4.41159e-06
-4.67085e-06
-5.11093e-06
-5.36999e-06
-5.6167e-06
-5.87865e-06
-6.11978e-06
-6.36967e-06
-6.61905e-06
-6.858e-06
-7.09236e-06
-7.3238e-06
-7.55501e-06
-7.7894e-06
-8.02633e-06
-8.26765e-06
-8.51313e-06
-8.76569e-06
-9.02631e-06
-9.28774e-06
-9.58295e-06
-9.82291e-06
-1.01851e-05
-1.03681e-05
-1.08589e-05
-1.08941e-05
-1.15059e-05
-1.11933e-05
-1.11512e-05
-1.03656e-05
-8.87343e-06
-8.11542e-06
-7.96126e-06
-7.82214e-06
-7.69468e-06
-7.65661e-06
-7.67203e-06
-7.70727e-06
-7.75419e-06
-7.80889e-06
-7.86753e-06
-7.92644e-06
-7.98495e-06
-8.04224e-06
-8.09761e-06
-8.15069e-06
-8.20125e-06
-8.24932e-06
-8.29488e-06
-8.33811e-06
-8.37839e-06
-8.41513e-06
-8.44931e-06
-8.48204e-06
-8.51276e-06
-8.54197e-06
-8.56925e-06
-8.59347e-06
-8.61635e-06
-8.63823e-06
-8.65908e-06
-8.67903e-06
-8.69803e-06
-8.71611e-06
-8.73337e-06
-8.74994e-06
-8.76584e-06
-8.78121e-06
-8.79614e-06
-8.81057e-06
-8.8247e-06
-8.83862e-06
-8.8522e-06
-8.86528e-06
-8.87808e-06
-8.89069e-06
-8.90317e-06
-8.91557e-06
-8.92791e-06
-8.94027e-06
-8.95267e-06
-8.96515e-06
-8.97773e-06
-8.99047e-06
-9.0034e-06
-9.0166e-06
-9.03013e-06
-9.04407e-06
-9.05849e-06
-9.0735e-06
-9.08914e-06
-9.1055e-06
-9.12268e-06
-9.14051e-06
-9.15979e-06
-9.18056e-06
-9.20287e-06
-9.22703e-06
-9.2532e-06
-9.28095e-06
-9.30996e-06
-9.34064e-06
-9.37475e-06
-9.4086e-06
-9.4458e-06
-9.48744e-06
-9.53426e-06
-9.58367e-06
-9.63634e-06
-9.69321e-06
-9.7572e-06
-9.82606e-06
-9.89819e-06
-9.98076e-06
-1.0067e-05
-1.01647e-05
-1.02681e-05
-1.03848e-05
-1.05087e-05
-1.06457e-05
-1.07955e-05
-1.09592e-05
-1.11394e-05
-1.13422e-05
-1.15835e-05
-1.18523e-05
-1.21277e-05
-1.24221e-05
-1.27507e-05
-1.31146e-05
-1.35133e-05
-1.39442e-05
-1.44113e-05
-1.49196e-05
-1.54756e-05
-1.60838e-05
-1.67493e-05
-1.74792e-05
-1.82823e-05
-1.9163e-05
-2.01222e-05
-2.11651e-05
-2.23004e-05
-2.35401e-05
-2.48981e-05
-2.63851e-05
-2.80083e-05
-2.97778e-05
-3.17071e-05
-3.38144e-05
-3.61191e-05
-3.86383e-05
-4.1389e-05
-4.43877e-05
-4.76638e-05
-5.12277e-05
-5.51405e-05
-5.93758e-05
-6.40275e-05
-6.91464e-05
-7.46497e-05
-8.17074e-05
-8.8309e-05
-9.54072e-05
-0.000103327
-0.000111967
-0.000121365
-0.000131622
-0.000142819
-0.000155023
-0.000168332
-0.000182817
-0.000198517
-0.00021612
-0.000232813
-0.000259086
-0.00026704
-0.000313766
-7.20132e-06
-8.43608e-07
-3.31699e-06
-4.12181e-06
-4.35703e-06
-4.7103e-06
-5.06972e-06
-5.35975e-06
-5.68697e-06
-5.95295e-06
-6.16463e-06
-6.40581e-06
-6.65034e-06
-6.88005e-06
-7.10749e-06
-7.33e-06
-7.557e-06
-7.78575e-06
-8.01966e-06
-8.25889e-06
-8.49888e-06
-8.74971e-06
-9.00974e-06
-9.26753e-06
-9.56305e-06
-9.81143e-06
-1.01656e-05
-1.03774e-05
-1.08233e-05
-1.08888e-05
-1.13728e-05
-1.11212e-05
-1.09637e-05
-1.04006e-05
-9.19128e-06
-8.42288e-06
-8.21002e-06
-8.07698e-06
-7.95284e-06
-7.90607e-06
-7.91525e-06
-7.94828e-06
-7.99419e-06
-8.04827e-06
-8.10634e-06
-8.16641e-06
-8.22595e-06
-8.28382e-06
-8.33947e-06
-8.39244e-06
-8.44248e-06
-8.4894e-06
-8.53348e-06
-8.57472e-06
-8.61359e-06
-8.65087e-06
-8.68557e-06
-8.71759e-06
-8.74768e-06
-8.77584e-06
-8.8021e-06
-8.82759e-06
-8.85147e-06
-8.87367e-06
-8.89453e-06
-8.91462e-06
-8.93374e-06
-8.95204e-06
-8.96955e-06
-8.98626e-06
-9.00216e-06
-9.01741e-06
-9.0321e-06
-9.04633e-06
-9.05994e-06
-9.07296e-06
-9.08571e-06
-9.09843e-06
-9.11101e-06
-9.12345e-06
-9.13581e-06
-9.14815e-06
-9.16049e-06
-9.1729e-06
-9.18541e-06
-9.19809e-06
-9.21098e-06
-9.22417e-06
-9.23771e-06
-9.25167e-06
-9.26611e-06
-9.2811e-06
-9.29675e-06
-9.31314e-06
-9.33029e-06
-9.34834e-06
-9.36744e-06
-9.38776e-06
-9.40886e-06
-9.43094e-06
-9.45431e-06
-9.48038e-06
-9.50819e-06
-9.53852e-06
-9.57099e-06
-9.60367e-06
-9.63886e-06
-9.67946e-06
-9.72363e-06
-9.76964e-06
-9.82097e-06
-9.87613e-06
-9.9342e-06
-9.99903e-06
-1.00689e-05
-1.01452e-05
-1.0229e-05
-1.03195e-05
-1.04189e-05
-1.05258e-05
-1.06441e-05
-1.0772e-05
-1.09129e-05
-1.10651e-05
-1.12318e-05
-1.14135e-05
-1.16097e-05
-1.18197e-05
-1.20292e-05
-1.22402e-05
-1.24776e-05
-1.27532e-05
-1.3058e-05
-1.33947e-05
-1.37664e-05
-1.41731e-05
-1.46181e-05
-1.51062e-05
-1.5643e-05
-1.62326e-05
-1.68788e-05
-1.75862e-05
-1.83597e-05
-1.9206e-05
-2.01327e-05
-2.11479e-05
-2.22593e-05
-2.34749e-05
-2.48036e-05
-2.62557e-05
-2.78442e-05
-2.95828e-05
-3.14852e-05
-3.35657e-05
-3.58396e-05
-3.83246e-05
-4.10413e-05
-4.40098e-05
-4.72567e-05
-5.07991e-05
-5.46742e-05
-5.89043e-05
-6.35033e-05
-6.86622e-05
-7.4168e-05
-8.08843e-05
-8.75736e-05
-9.46111e-05
-0.000102412
-0.000110987
-0.000120346
-0.000130567
-0.000141727
-0.000153891
-0.000167158
-0.000181594
-0.000197244
-0.000214791
-0.000231438
-0.000257643
-0.000265568
-0.000312206
-5.4254e-06
-2.73915e-06
-3.06036e-06
-3.1844e-06
-3.65492e-06
-4.07879e-06
-4.23364e-06
-4.49638e-06
-4.7674e-06
-4.99831e-06
-5.25756e-06
-5.5121e-06
-5.74991e-06
-5.9836e-06
-6.2132e-06
-6.44183e-06
-6.67498e-06
-6.9113e-06
-7.14643e-06
-7.39095e-06
-7.64125e-06
-7.89598e-06
-8.1514e-06
-8.43646e-06
-8.68371e-06
-9.00693e-06
-9.21187e-06
-9.59098e-06
-9.67352e-06
-1.00376e-05
-9.86062e-06
-9.66996e-06
-9.24849e-06
-8.29814e-06
-7.61796e-06
-7.39352e-06
-7.26464e-06
-7.14929e-06
-7.10043e-06
-7.10583e-06
-7.1361e-06
-7.18014e-06
-7.23299e-06
-7.29052e-06
-7.3496e-06
-7.40855e-06
-7.46624e-06
-7.52194e-06
-7.57489e-06
-7.62489e-06
-7.67223e-06
-7.71665e-06
-7.75798e-06
-7.79682e-06
-7.83365e-06
-7.86867e-06
-7.90147e-06
-7.93182e-06
-7.9597e-06
-7.98585e-06
-8.01143e-06
-8.036e-06
-8.05943e-06
-8.08164e-06
-8.102e-06
-8.12121e-06
-8.13932e-06
-8.15654e-06
-8.17313e-06
-8.18872e-06
-8.20367e-06
-8.21804e-06
-8.2319e-06
-8.24537e-06
-8.25859e-06
-8.27162e-06
-8.28436e-06
-8.29688e-06
-8.3092e-06
-8.3214e-06
-8.33351e-06
-8.34559e-06
-8.35769e-06
-8.36986e-06
-8.38216e-06
-8.39464e-06
-8.40731e-06
-8.42024e-06
-8.4335e-06
-8.44716e-06
-8.46126e-06
-8.47594e-06
-8.4913e-06
-8.50737e-06
-8.52418e-06
-8.54187e-06
-8.56001e-06
-8.57924e-06
-8.60001e-06
-8.62187e-06
-8.64356e-06
-8.667e-06
-8.69352e-06
-8.72339e-06
-8.75711e-06
-8.79264e-06
-8.82914e-06
-8.86849e-06
-8.90964e-06
-8.9513e-06
-9.00207e-06
-9.05916e-06
-9.11857e-06
-9.17917e-06
-9.24829e-06
-9.32547e-06
-9.40444e-06
-9.49526e-06
-9.5926e-06
-9.69781e-06
-9.81005e-06
-9.93678e-06
-1.00746e-05
-1.0223e-05
-1.03854e-05
-1.05658e-05
-1.07677e-05
-1.10018e-05
-1.12787e-05
-1.15917e-05
-1.19157e-05
-1.22595e-05
-1.26297e-05
-1.30295e-05
-1.34608e-05
-1.39275e-05
-1.44347e-05
-1.49879e-05
-1.55919e-05
-1.62513e-05
-1.69709e-05
-1.77565e-05
-1.86143e-05
-1.95508e-05
-2.05738e-05
-2.16912e-05
-2.29119e-05
-2.42458e-05
-2.57032e-05
-2.72959e-05
-2.90367e-05
-3.09389e-05
-3.30174e-05
-3.52884e-05
-3.77697e-05
-4.04811e-05
-4.34431e-05
-4.66793e-05
-5.02137e-05
-5.40698e-05
-5.83033e-05
-6.28781e-05
-6.80478e-05
-7.35435e-05
-7.99852e-05
-8.66701e-05
-9.37251e-05
-0.000101507
-0.000110057
-0.000119379
-0.00012955
-0.000140653
-0.000152757
-0.000165958
-0.000180326
-0.000195906
-0.000213375
-0.000229958
-0.000256067
-0.000263944
-0.000310464
-2.41794e-06
-2.45737e-06
-2.90101e-06
-3.52963e-06
-3.67893e-06
-3.98497e-06
-4.35632e-06
-4.56823e-06
-4.74134e-06
-4.99296e-06
-5.23589e-06
-5.45731e-06
-5.67844e-06
-5.89315e-06
-6.11377e-06
-6.34047e-06
-6.56625e-06
-6.79944e-06
-7.03653e-06
-7.27459e-06
-7.52283e-06
-7.77817e-06
-8.0556e-06
-8.29906e-06
-8.60509e-06
-8.8253e-06
-9.16713e-06
-9.27586e-06
-9.56097e-06
-9.44125e-06
-9.2394e-06
-8.90647e-06
-8.15832e-06
-7.53649e-06
-7.29258e-06
-7.16834e-06
-7.06419e-06
-7.01556e-06
-7.01759e-06
-7.047e-06
-7.0907e-06
-7.14299e-06
-7.19981e-06
-7.25837e-06
-7.31677e-06
-7.37381e-06
-7.42884e-06
-7.48197e-06
-7.53287e-06
-7.58066e-06
-7.62518e-06
-7.66622e-06
-7.70456e-06
-7.73984e-06
-7.77257e-06
-7.80333e-06
-7.8327e-06
-7.86098e-06
-7.88808e-06
-7.913e-06
-7.93623e-06
-7.95818e-06
-7.97886e-06
-7.99797e-06
-8.01595e-06
-8.03312e-06
-8.04946e-06
-8.06479e-06
-8.08005e-06
-8.09489e-06
-8.10928e-06
-8.12324e-06
-8.13667e-06
-8.1496e-06
-8.16235e-06
-8.17493e-06
-8.1873e-06
-8.19951e-06
-8.21161e-06
-8.22366e-06
-8.23571e-06
-8.24781e-06
-8.25999e-06
-8.27227e-06
-8.28474e-06
-8.29745e-06
-8.31045e-06
-8.3238e-06
-8.33755e-06
-8.35177e-06
-8.36668e-06
-8.38243e-06
-8.39886e-06
-8.41612e-06
-8.43443e-06
-8.4546e-06
-8.47619e-06
-8.49861e-06
-8.52246e-06
-8.54699e-06
-8.57364e-06
-8.60142e-06
-8.63081e-06
-8.66286e-06
-8.69747e-06
-8.73503e-06
-8.77758e-06
-8.82538e-06
-8.87536e-06
-8.92596e-06
-8.98076e-06
-9.04328e-06
-9.11487e-06
-9.18831e-06
-9.26537e-06
-9.35717e-06
-9.44924e-06
-9.55539e-06
-9.66819e-06
-9.79713e-06
-9.93012e-06
-1.00781e-05
-1.02431e-05
-1.04213e-05
-1.0614e-05
-1.08191e-05
-1.10369e-05
-1.12557e-05
-1.14792e-05
-1.17362e-05
-1.20367e-05
-1.23732e-05
-1.27455e-05
-1.3154e-05
-1.36015e-05
-1.40917e-05
-1.46293e-05
-1.52185e-05
-1.58638e-05
-1.657e-05
-1.73426e-05
-1.81876e-05
-1.91116e-05
-2.01222e-05
-2.12274e-05
-2.24361e-05
-2.37578e-05
-2.5203e-05
-2.67832e-05
-2.85107e-05
-3.03993e-05
-3.24637e-05
-3.47202e-05
-3.71862e-05
-3.98812e-05
-4.28259e-05
-4.60428e-05
-4.95602e-05
-5.33945e-05
-5.76155e-05
-6.21706e-05
-6.73144e-05
-7.27859e-05
-7.90613e-05
-8.57501e-05
-9.28272e-05
-0.000100574
-0.000109074
-0.000118344
-0.000128458
-0.000139497
-0.000151533
-0.000164662
-0.000178952
-0.000194451
-0.000211829
-0.000228333
-0.000254318
-0.000262151
-0.000308487
-6.22976e-06
7.26318e-08
-1.92762e-06
-2.91068e-06
-3.04392e-06
-3.03102e-06
-3.36026e-06
-3.61577e-06
-3.82934e-06
-4.10473e-06
-4.35467e-06
-4.58698e-06
-4.82021e-06
-5.0416e-06
-5.26587e-06
-5.49684e-06
-5.72706e-06
-5.9611e-06
-6.19596e-06
-6.43975e-06
-6.69185e-06
-6.94268e-06
-7.20831e-06
-7.45406e-06
-7.7442e-06
-7.97107e-06
-8.27355e-06
-8.38934e-06
-8.61478e-06
-8.53362e-06
-8.34833e-06
-8.07054e-06
-7.47937e-06
-6.95684e-06
-6.7205e-06
-6.5987e-06
-6.50466e-06
-6.45993e-06
-6.46217e-06
-6.49155e-06
-6.53562e-06
-6.5884e-06
-6.64577e-06
-6.70477e-06
-6.76334e-06
-6.82048e-06
-6.87549e-06
-6.92813e-06
-6.97828e-06
-7.02545e-06
-7.06984e-06
-7.11212e-06
-7.15162e-06
-7.18905e-06
-7.2243e-06
-7.25726e-06
-7.28785e-06
-7.3161e-06
-7.34248e-06
-7.36728e-06
-7.39039e-06
-7.41187e-06
-7.43197e-06
-7.45138e-06
-7.46981e-06
-7.487e-06
-7.50328e-06
-7.51894e-06
-7.53464e-06
-7.54986e-06
-7.56449e-06
-7.57868e-06
-7.59256e-06
-7.60616e-06
-7.619e-06
-7.63143e-06
-7.64357e-06
-7.65558e-06
-7.66748e-06
-7.67929e-06
-7.69106e-06
-7.70284e-06
-7.71469e-06
-7.72668e-06
-7.73883e-06
-7.75122e-06
-7.76391e-06
-7.77695e-06
-7.79041e-06
-7.80432e-06
-7.81836e-06
-7.83258e-06
-7.84762e-06
-7.8636e-06
-7.88067e-06
-7.89951e-06
-7.92013e-06
-7.94177e-06
-7.96354e-06
-7.98802e-06
-8.01378e-06
-8.04103e-06
-8.07022e-06
-8.10117e-06
-8.13458e-06
-8.17074e-06
-8.20741e-06
-8.25086e-06
-8.29843e-06
-8.34949e-06
-8.4038e-06
-8.46006e-06
-8.52465e-06
-8.59468e-06
-8.67197e-06
-8.75224e-06
-8.84358e-06
-8.93746e-06
-9.0458e-06
-9.15955e-06
-9.2891e-06
-9.42538e-06
-9.57386e-06
-9.73801e-06
-9.91826e-06
-1.0119e-05
-1.0344e-05
-1.05996e-05
-1.08931e-05
-1.12118e-05
-1.15427e-05
-1.18979e-05
-1.22823e-05
-1.26993e-05
-1.31525e-05
-1.36464e-05
-1.41858e-05
-1.4775e-05
-1.54189e-05
-1.61225e-05
-1.68913e-05
-1.77315e-05
-1.86499e-05
-1.96538e-05
-2.07514e-05
-2.19514e-05
-2.32634e-05
-2.46978e-05
-2.6266e-05
-2.79803e-05
-2.98544e-05
-3.19031e-05
-3.41424e-05
-3.659e-05
-3.92649e-05
-4.21886e-05
-4.53824e-05
-4.88772e-05
-5.26861e-05
-5.68823e-05
-6.14155e-05
-6.65111e-05
-7.19649e-05
-7.8121e-05
-8.47636e-05
-9.1821e-05
-9.95186e-05
-0.00010796
-0.000117172
-0.000127221
-0.000138189
-0.000150148
-0.000163194
-0.000177396
-0.000192803
-0.000210077
-0.00022649
-0.000252336
-0.000260121
-0.000306236
-4.85006e-06
9.1e-07
-1.75809e-06
-2.50857e-06
-2.73004e-06
-3.12809e-06
-3.21993e-06
-3.36611e-06
-3.65505e-06
-3.88949e-06
-4.10454e-06
-4.31856e-06
-4.52797e-06
-4.7413e-06
-4.96416e-06
-5.19164e-06
-5.41332e-06
-5.64245e-06
-5.88039e-06
-6.1256e-06
-6.36738e-06
-6.62569e-06
-6.8741e-06
-7.15071e-06
-7.37298e-06
-7.6492e-06
-7.776e-06
-7.9659e-06
-7.924e-06
-7.76948e-06
-7.54872e-06
-7.08243e-06
-6.63802e-06
-6.40671e-06
-6.29379e-06
-6.21597e-06
-6.17965e-06
-6.18553e-06
-6.21659e-06
-6.26149e-06
-6.31448e-06
-6.37166e-06
-6.43019e-06
-6.48832e-06
-6.54485e-06
-6.59931e-06
-6.65108e-06
-6.69988e-06
-6.74619e-06
-6.7899e-06
-6.83068e-06
-6.86877e-06
-6.90417e-06
-6.93717e-06
-6.96815e-06
-6.99718e-06
-7.02446e-06
-7.04996e-06
-7.07381e-06
-7.0963e-06
-7.11763e-06
-7.13802e-06
-7.15749e-06
-7.17603e-06
-7.19372e-06
-7.21086e-06
-7.22724e-06
-7.2425e-06
-7.25722e-06
-7.2715e-06
-7.28542e-06
-7.29889e-06
-7.31197e-06
-7.3243e-06
-7.33631e-06
-7.34812e-06
-7.35977e-06
-7.37134e-06
-7.38284e-06
-7.39444e-06
-7.40616e-06
-7.41801e-06
-7.43006e-06
-7.44236e-06
-7.45493e-06
-7.46782e-06
-7.48106e-06
-7.4947e-06
-7.50875e-06
-7.523e-06
-7.53744e-06
-7.55261e-06
-7.56868e-06
-7.58578e-06
-7.60331e-06
-7.622e-06
-7.64307e-06
-7.66588e-06
-7.68997e-06
-7.71606e-06
-7.74413e-06
-7.77402e-06
-7.80631e-06
-7.84181e-06
-7.8806e-06
-7.91915e-06
-7.96062e-06
-8.00697e-06
-8.05756e-06
-8.11471e-06
-8.17627e-06
-8.23993e-06
-8.31089e-06
-8.39076e-06
-8.47372e-06
-8.56802e-06
-8.66871e-06
-8.77947e-06
-8.89831e-06
-9.02875e-06
-9.1746e-06
-9.33096e-06
-9.50141e-06
-9.68863e-06
-9.89168e-06
-1.01054e-05
-1.03377e-05
-1.05839e-05
-1.08531e-05
-1.11542e-05
-1.14918e-05
-1.18645e-05
-1.22731e-05
-1.27198e-05
-1.3208e-05
-1.37419e-05
-1.43258e-05
-1.49642e-05
-1.5662e-05
-1.64249e-05
-1.72587e-05
-1.81702e-05
-1.91665e-05
-2.02557e-05
-2.14463e-05
-2.27479e-05
-2.41707e-05
-2.57262e-05
-2.74266e-05
-2.92854e-05
-3.13173e-05
-3.35383e-05
-3.5966e-05
-3.86193e-05
-4.15197e-05
-4.46884e-05
-4.81565e-05
-5.19373e-05
-5.61013e-05
-6.06081e-05
-6.56487e-05
-7.1075e-05
-7.71233e-05
-8.36946e-05
-9.07179e-05
-9.83645e-05
-0.000106741
-0.000115885
-0.00012586
-0.000136746
-0.000148615
-0.000161567
-0.000175667
-0.000190969
-0.000208126
-0.000224436
-0.000250123
-0.000257853
-0.00030372
-3.71318e-06
-1.55752e-06
-1.23011e-06
-1.96555e-06
-2.23799e-06
-2.40472e-06
-2.61557e-06
-2.90272e-06
-3.1322e-06
-3.36565e-06
-3.59877e-06
-3.80861e-06
-4.02755e-06
-4.25235e-06
-4.47704e-06
-4.706e-06
-4.93524e-06
-5.16446e-06
-5.40608e-06
-5.65471e-06
-5.91182e-06
-6.1577e-06
-6.42225e-06
-6.64324e-06
-6.89596e-06
-7.03831e-06
-7.19639e-06
-7.18448e-06
-7.06068e-06
-6.87586e-06
-6.51582e-06
-6.14489e-06
-5.94316e-06
-5.84238e-06
-5.77655e-06
-5.74733e-06
-5.75494e-06
-5.78646e-06
-5.83178e-06
-5.88492e-06
-5.94224e-06
-6.00109e-06
-6.05992e-06
-6.11734e-06
-6.1725e-06
-6.22507e-06
-6.27485e-06
-6.32153e-06
-6.36517e-06
-6.40604e-06
-6.44426e-06
-6.48006e-06
-6.51343e-06
-6.54454e-06
-6.57366e-06
-6.60103e-06
-6.62667e-06
-6.65111e-06
-6.67443e-06
-6.69653e-06
-6.71714e-06
-6.73643e-06
-6.75471e-06
-6.7725e-06
-6.78915e-06
-6.80468e-06
-6.81957e-06
-6.83385e-06
-6.84751e-06
-6.86067e-06
-6.87336e-06
-6.88558e-06
-6.89782e-06
-6.90988e-06
-6.92165e-06
-6.93325e-06
-6.9447e-06
-6.95615e-06
-6.96754e-06
-6.97894e-06
-6.99049e-06
-7.00225e-06
-7.01422e-06
-7.02646e-06
-7.03905e-06
-7.05201e-06
-7.06537e-06
-7.07917e-06
-7.09369e-06
-7.10907e-06
-7.12503e-06
-7.14166e-06
-7.15918e-06
-7.17739e-06
-7.19622e-06
-7.21561e-06
-7.23739e-06
-7.26028e-06
-7.28428e-06
-7.31013e-06
-7.33895e-06
-7.36998e-06
-7.40171e-06
-7.4385e-06
-7.48034e-06
-7.52211e-06
-7.56908e-06
-7.61767e-06
-7.66923e-06
-7.72957e-06
-7.79297e-06
-7.86267e-06
-7.93493e-06
-8.01996e-06
-8.10726e-06
-8.20673e-06
-8.31196e-06
-8.42899e-06
-8.55313e-06
-8.69054e-06
-8.84288e-06
-9.00774e-06
-9.18712e-06
-9.38314e-06
-9.59994e-06
-9.8427e-06
-1.01085e-05
-1.04024e-05
-1.07208e-05
-1.10631e-05
-1.14351e-05
-1.18406e-05
-1.22831e-05
-1.27665e-05
-1.32949e-05
-1.38729e-05
-1.45049e-05
-1.5196e-05
-1.59516e-05
-1.67775e-05
-1.76804e-05
-1.86674e-05
-1.97463e-05
-2.09258e-05
-2.22153e-05
-2.36249e-05
-2.5166e-05
-2.68506e-05
-2.86923e-05
-3.07055e-05
-3.29061e-05
-3.53116e-05
-3.79408e-05
-4.08151e-05
-4.39557e-05
-4.73932e-05
-5.11424e-05
-5.52682e-05
-5.97435e-05
-6.47242e-05
-7.01091e-05
-7.60628e-05
-8.25578e-05
-8.95357e-05
-9.7124e-05
-0.000105428
-0.000114494
-0.000124383
-0.000135177
-0.000146946
-0.000159792
-0.000173778
-0.000188961
-0.000205987
-0.000222179
-0.000247688
-0.000255356
-0.000300945
-1.0654e-06
-1.10595e-06
-1.8674e-06
-2.13708e-06
-1.82603e-06
-2.0275e-06
-2.40598e-06
-2.60535e-06
-2.79997e-06
-3.00813e-06
-3.19938e-06
-3.41321e-06
-3.63739e-06
-3.85582e-06
-4.0769e-06
-4.3e-06
-4.52939e-06
-4.76563e-06
-5.00474e-06
-5.25258e-06
-5.49482e-06
-5.75032e-06
-5.97365e-06
-6.21058e-06
-6.3629e-06
-6.50588e-06
-6.51976e-06
-6.42827e-06
-6.2862e-06
-6.00863e-06
-5.71163e-06
-5.53353e-06
-5.44545e-06
-5.39406e-06
-5.37524e-06
-5.38851e-06
-5.42344e-06
-5.47082e-06
-5.52569e-06
-5.58432e-06
-5.64394e-06
-5.70282e-06
-5.7599e-06
-5.81458e-06
-5.86644e-06
-5.91538e-06
-5.96146e-06
-6.00471e-06
-6.04526e-06
-6.08331e-06
-6.11884e-06
-6.15205e-06
-6.1832e-06
-6.21249e-06
-6.24002e-06
-6.26588e-06
-6.29e-06
-6.31246e-06
-6.33361e-06
-6.35347e-06
-6.37216e-06
-6.38979e-06
-6.40639e-06
-6.42194e-06
-6.43727e-06
-6.45209e-06
-6.46626e-06
-6.47987e-06
-6.49302e-06
-6.50582e-06
-6.51828e-06
-6.53054e-06
-6.54246e-06
-6.55407e-06
-6.56554e-06
-6.57692e-06
-6.58826e-06
-6.59947e-06
-6.61068e-06
-6.62204e-06
-6.63355e-06
-6.64519e-06
-6.65701e-06
-6.66914e-06
-6.68162e-06
-6.69452e-06
-6.70794e-06
-6.72194e-06
-6.73665e-06
-6.75208e-06
-6.76832e-06
-6.78527e-06
-6.8038e-06
-6.82324e-06
-6.84361e-06
-6.86586e-06
-6.8897e-06
-6.91445e-06
-6.94123e-06
-6.96975e-06
-7.00067e-06
-7.0348e-06
-7.06889e-06
-7.107e-06
-7.14926e-06
-7.19437e-06
-7.24496e-06
-7.30099e-06
-7.35736e-06
-7.42044e-06
-7.49005e-06
-7.56614e-06
-7.64742e-06
-7.73789e-06
-7.83395e-06
-7.94013e-06
-8.05598e-06
-8.18582e-06
-8.32348e-06
-8.47296e-06
-8.63851e-06
-8.81865e-06
-9.01637e-06
-9.23167e-06
-9.46312e-06
-9.7183e-06
-9.99518e-06
-1.02998e-05
-1.06349e-05
-1.10019e-05
-1.14028e-05
-1.18407e-05
-1.2319e-05
-1.2842e-05
-1.34138e-05
-1.40392e-05
-1.47229e-05
-1.54704e-05
-1.62875e-05
-1.71808e-05
-1.81573e-05
-1.92249e-05
-2.0392e-05
-2.16679e-05
-2.30628e-05
-2.45878e-05
-2.62549e-05
-2.80774e-05
-3.00698e-05
-3.22477e-05
-3.46285e-05
-3.72308e-05
-4.0076e-05
-4.31851e-05
-4.65882e-05
-5.03017e-05
-5.43842e-05
-5.88216e-05
-6.37386e-05
-6.90727e-05
-7.49413e-05
-8.13552e-05
-8.82739e-05
-9.57948e-05
-0.000104018
-0.000112996
-0.000122791
-0.000133482
-0.000145142
-0.000157869
-0.000171729
-0.00018678
-0.00020366
-0.000219721
-0.000245033
-0.000252631
-0.000297911
-4.63255e-06
1.88401e-06
-1.38419e-07
-1.16522e-06
-1.26288e-06
-1.42776e-06
-1.63773e-06
-1.84844e-06
-2.12495e-06
-2.35576e-06
-2.54018e-06
-2.75583e-06
-2.97903e-06
-3.19413e-06
-3.41197e-06
-3.63277e-06
-3.85902e-06
-4.09306e-06
-4.33083e-06
-4.57564e-06
-4.81635e-06
-5.06531e-06
-5.28826e-06
-5.51499e-06
-5.6735e-06
-5.8119e-06
-5.84767e-06
-5.79015e-06
-5.68438e-06
-5.4763e-06
-5.24228e-06
-5.0936e-06
-5.02326e-06
-4.98759e-06
-4.97943e-06
-4.99845e-06
-5.03706e-06
-5.08689e-06
-5.14349e-06
-5.20319e-06
-5.26354e-06
-5.32273e-06
-5.38003e-06
-5.43489e-06
-5.48691e-06
-5.53583e-06
-5.58172e-06
-5.62475e-06
-5.66494e-06
-5.70251e-06
-5.73752e-06
-5.77032e-06
-5.80098e-06
-5.82974e-06
-5.85666e-06
-5.88175e-06
-5.90517e-06
-5.9271e-06
-5.94769e-06
-5.96722e-06
-5.98591e-06
-6.00341e-06
-6.02002e-06
-6.03629e-06
-6.05214e-06
-6.06698e-06
-6.08116e-06
-6.09474e-06
-6.10772e-06
-6.12028e-06
-6.13251e-06
-6.14434e-06
-6.1559e-06
-6.16739e-06
-6.17872e-06
-6.18993e-06
-6.20102e-06
-6.21217e-06
-6.22337e-06
-6.2346e-06
-6.24589e-06
-6.25737e-06
-6.26905e-06
-6.28103e-06
-6.29336e-06
-6.30609e-06
-6.31932e-06
-6.33317e-06
-6.34762e-06
-6.36272e-06
-6.37854e-06
-6.39498e-06
-6.41269e-06
-6.43111e-06
-6.4511e-06
-6.47251e-06
-6.4952e-06
-6.52006e-06
-6.54667e-06
-6.57488e-06
-6.60495e-06
-6.63773e-06
-6.67335e-06
-6.71167e-06
-6.75332e-06
-6.7972e-06
-6.84613e-06
-6.89811e-06
-6.95616e-06
-7.01966e-06
-7.08627e-06
-7.16075e-06
-7.24131e-06
-7.32894e-06
-7.42557e-06
-7.53041e-06
-7.64518e-06
-7.76918e-06
-7.90567e-06
-8.05356e-06
-8.21537e-06
-8.39169e-06
-8.58668e-06
-8.79926e-06
-9.03123e-06
-9.28618e-06
-9.5639e-06
-9.86838e-06
-1.02008e-05
-1.05637e-05
-1.096e-05
-1.13928e-05
-1.18657e-05
-1.23826e-05
-1.29478e-05
-1.35658e-05
-1.42415e-05
-1.49802e-05
-1.57878e-05
-1.66707e-05
-1.76359e-05
-1.8691e-05
-1.98446e-05
-2.11057e-05
-2.24844e-05
-2.39918e-05
-2.56397e-05
-2.74412e-05
-2.94106e-05
-3.15636e-05
-3.39172e-05
-3.649e-05
-3.9303e-05
-4.23774e-05
-4.57423e-05
-4.94161e-05
-5.34508e-05
-5.78438e-05
-6.26943e-05
-6.79699e-05
-7.37564e-05
-8.00842e-05
-8.69318e-05
-9.43766e-05
-0.000102511
-0.000111393
-0.000121085
-0.000131663
-0.000143202
-0.000155799
-0.000169521
-0.000184427
-0.000201146
-0.000217062
-0.000242157
-0.000249679
-0.000294618
-2.90421e-06
-4.32594e-07
-2.60373e-07
-3.82522e-07
-8.05409e-07
-1.22746e-06
-1.33296e-06
-1.51228e-06
-1.70847e-06
-1.88327e-06
-2.10634e-06
-2.33096e-06
-2.54283e-06
-2.75794e-06
-2.97411e-06
-3.19614e-06
-3.42723e-06
-3.66188e-06
-3.90194e-06
-4.1405e-06
-4.38375e-06
-4.60664e-06
-4.82637e-06
-4.99176e-06
-5.13043e-06
-5.1872e-06
-5.16252e-06
-5.09243e-06
-4.94306e-06
-4.76727e-06
-4.65314e-06
-4.60074e-06
-4.58019e-06
-4.58365e-06
-4.61016e-06
-4.65341e-06
-4.70669e-06
-4.76523e-06
-4.82598e-06
-4.88695e-06
-4.9465e-06
-5.00393e-06
-5.0587e-06
-5.11042e-06
-5.15902e-06
-5.20462e-06
-5.24731e-06
-5.28717e-06
-5.32442e-06
-5.35916e-06
-5.39174e-06
-5.42215e-06
-5.45051e-06
-5.47699e-06
-5.50177e-06
-5.52503e-06
-5.54693e-06
-5.56756e-06
-5.58708e-06
-5.60551e-06
-5.62304e-06
-5.63978e-06
-5.65579e-06
-5.67085e-06
-5.68507e-06
-5.69876e-06
-5.71194e-06
-5.72467e-06
-5.73703e-06
-5.749e-06
-5.76067e-06
-5.77211e-06
-5.78347e-06
-5.79462e-06
-5.8056e-06
-5.81653e-06
-5.82749e-06
-5.83845e-06
-5.84947e-06
-5.86062e-06
-5.87195e-06
-5.88356e-06
-5.89538e-06
-5.90753e-06
-5.92009e-06
-5.93311e-06
-5.94673e-06
-5.96091e-06
-5.97574e-06
-5.99137e-06
-6.00797e-06
-6.02528e-06
-6.04374e-06
-6.0634e-06
-6.08416e-06
-6.10663e-06
-6.13089e-06
-6.15675e-06
-6.18449e-06
-6.21445e-06
-6.24676e-06
-6.28163e-06
-6.31958e-06
-6.36031e-06
-6.40476e-06
-6.45288e-06
-6.50506e-06
-6.56173e-06