/*--------------------------------*- C++ -*----------------------------------*\
| =========                 |                                                 |
| \\      /  F ield         | OpenFOAM: The Open Source CFD Toolbox           |
|  \\    /   O peration     | Version:  2512                                  |
|   \\  /    A nd           | Website:  www.openfoam.com                      |
|    \\/     M anipulation  |                                                 |
\*---------------------------------------------------------------------------*/
FoamFile
{
    version     2.0;
    format      ascii;
    arch        "LSB;label=32;scalar=64";
    class       volScalarField;
    location    "0.1";
    object      Uz;
}
// * * * * * * * * * * * * * * * * * * * * * * * * * * * * * * * * * * * * * //

dimensions      [0 1 -1 0 0 0 0];

internalField   nonuniform List<scalar> 
8334
(
2.10021e-17
5.99758e-18
2.30874e-17
-1.00003e-17
-5.22471e-18
-9.53821e-18
3.52606e-18
-1.72072e-17
1.29558e-17
1.79438e-18
2.11928e-17
-1.04846e-17
-5.24063e-18
-9.67511e-18
3.56044e-18
-1.7485e-17
1.32491e-17
1.72021e-18
2.22493e-17
-1.19877e-17
-1.89467e-18
-3.34381e-19
2.30954e-18
-3.75487e-18
-4.16262e-18
-6.52037e-18
1.29609e-18
-8.85831e-18
8.00936e-18
8.95733e-18
7.9474e-18
-1.013e-18
-3.23072e-18
-6.3672e-18
1.39103e-18
-9.49738e-18
9.43715e-18
5.97492e-18
1.20813e-17
-2.55065e-18
5.96492e-18
-4.92582e-18
-1.84475e-17
-4.33321e-18
9.6268e-18
-5.54618e-18
1.68543e-17
3.48009e-18
1.08718e-17
-7.67111e-19
-2.00155e-17
1.69217e-18
1.10614e-18
4.48855e-18
2.29156e-17
-4.91794e-18
2.6239e-17
-4.90216e-18
4.2593e-18
-1.15397e-17
-1.69265e-17
-1.17001e-17
1.70289e-18
-6.88596e-18
1.11841e-17
4.16571e-18
5.87769e-18
-9.89108e-18
6.93455e-18
1.74558e-17
1.12021e-17
6.79278e-19
6.48849e-18
-1.21853e-17
1.71258e-17
-9.76663e-19
3.47929e-18
-8.52986e-18
6.65792e-18
8.07415e-18
3.58873e-18
1.20454e-17
-9.07241e-18
-1.07523e-17
-6.22327e-18
-4.90276e-18
5.85273e-19
1.8121e-19
-4.85587e-18
-3.69888e-20
-2.27249e-18
-2.92089e-18
8.74807e-18
-2.36483e-19
-6.72819e-18
-9.70305e-18
-2.89963e-18
-7.1079e-18
2.79828e-18
3.71016e-18
-1.76542e-19
1.96922e-18
-1.97223e-18
-1.52492e-18
2.59841e-18
2.39771e-17
1.70755e-17
8.92651e-18
1.46119e-17
8.78349e-19
-2.58232e-18
-1.63286e-17
6.48374e-18
-1.36743e-17
-1.18518e-17
-5.30172e-18
1.17044e-17
1.58576e-17
2.43651e-18
1.31049e-17
-8.36402e-18
-3.91081e-18
-9.69415e-18
-6.04743e-18
-1.68601e-17
7.67243e-18
-1.50535e-17
-9.40804e-18
-7.35374e-18
-3.80426e-18
2.37749e-17
-4.03649e-18
-2.86065e-18
2.41436e-17
-7.76683e-18
1.47885e-17
1.93084e-18
-8.7966e-18
4.29783e-18
-8.68385e-18
1.51903e-17
3.91006e-18
1.35671e-17
4.8516e-18
5.37877e-18
-1.37095e-19
-3.78918e-18
-9.13867e-19
-6.88546e-18
5.24286e-18
-5.37378e-18
1.79715e-17
2.82129e-18
2.0461e-17
5.86753e-18
2.08468e-17
-7.77297e-18
-1.03611e-17
-4.25525e-18
-5.40066e-19
-6.82728e-19
5.44648e-18
-8.33453e-18
1.69158e-17
-1.71048e-17
-7.36852e-18
1.05126e-17
7.86791e-20
7.68946e-18
1.40244e-17
4.66558e-18
3.3219e-19
1.60203e-21
1.85798e-18
-4.45691e-18
2.82957e-18
5.47439e-18
1.29598e-17
4.18499e-18
2.57606e-19
-8.49449e-20
1.89856e-18
-4.49861e-18
3.01269e-18
4.78297e-18
1.42439e-17
3.18691e-18
-1.46446e-19
3.13769e-18
1.70139e-18
2.99837e-18
-1.31118e-20
1.93528e-18
5.04076e-18
-3.21842e-20
2.57459e-18
7.18318e-18
4.55487e-18
4.37069e-18
4.84727e-19
2.06427e-18
4.93121e-18
-2.03978e-19
2.6567e-18
6.77615e-18
5.83058e-18
2.00507e-18
3.24857e-18
7.69128e-18
-1.96632e-18
-1.96986e-18
5.56636e-18
3.03409e-18
4.6759e-18
3.86218e-18
5.51241e-18
9.98585e-18
-2.99303e-18
1.48152e-18
1.81147e-18
3.98168e-18
1.00175e-17
8.74646e-19
9.46971e-18
6.64759e-18
7.10565e-18
2.11283e-18
-3.89134e-18
-1.97849e-18
9.16678e-19
-1.92024e-18
2.98844e-18
8.32639e-18
8.41772e-18
-2.55811e-19
8.06417e-19
1.01394e-17
5.78895e-18
2.7933e-18
5.26902e-18
3.45244e-19
8.29409e-18
5.24258e-18
4.72189e-18
1.33295e-18
-5.39235e-19
5.46693e-18
2.2354e-18
1.12624e-17
4.20923e-18
-3.21275e-19
-1.28917e-18
2.20828e-18
-2.55503e-19
2.52316e-18
-3.31233e-19
5.3454e-18
4.20193e-18
1.2731e-18
4.96135e-18
6.83223e-18
-2.01491e-18
-2.03484e-18
-7.19443e-19
2.99971e-18
4.53364e-18
5.04884e-18
2.27304e-18
5.28536e-18
-6.54632e-20
1.72518e-18
-8.07532e-19
1.15729e-17
1.23841e-17
7.32553e-18
8.36084e-18
7.41667e-18
1.14034e-19
-4.98646e-18
2.39281e-18
3.81048e-18
-1.47639e-19
-1.98949e-18
2.9903e-18
1.19347e-17
1.8033e-18
8.46091e-18
7.87681e-19
3.28728e-18
3.89824e-18
-1.61039e-18
-5.89264e-18
2.87539e-18
2.54342e-18
8.56422e-19
-6.13611e-20
-3.52088e-18
1.34567e-17
2.53432e-18
-2.51431e-18
1.01933e-17
4.50714e-18
7.45778e-18
6.32308e-18
-1.22769e-18
6.11284e-18
-4.08222e-18
4.77841e-18
3.01327e-18
1.09825e-17
6.93421e-18
5.75465e-18
2.75872e-18
3.76959e-18
-1.96758e-21
-7.35132e-19
3.66005e-18
2.75116e-18
8.94894e-18
4.24453e-18
8.56746e-18
7.24227e-18
8.88091e-18
3.441e-18
-2.49098e-18
2.97726e-18
3.35603e-18
2.42931e-18
4.44825e-18
6.38304e-19
6.67521e-18
-1.06024e-18
-4.63768e-18
9.06562e-18
4.76807e-18
3.05946e-18
7.76588e-18
4.44759e-18
9.23261e-18
-1.59539e-18
3.62732e-18
5.58252e-18
5.60325e-18
-1.83589e-18
2.98191e-18
6.22075e-18
5.83619e-18
3.96804e-18
-2.10021e-18
4.89662e-18
2.39822e-18
2.30969e-18
1.48963e-17
1.26862e-17
4.43567e-18
6.94285e-18
1.77829e-18
6.48488e-18
6.49905e-18
1.78705e-17
1.47539e-17
1.23481e-17
4.55199e-18
7.03211e-18
1.82371e-18
6.66125e-18
6.48123e-18
1.73117e-17
1.53693e-17
1.23046e-17
4.09213e-18
7.91299e-18
1.68093e-18
9.00829e-18
6.22897e-18
1.69976e-17
1.25844e-17
1.04765e-17
4.69594e-18
9.26987e-18
2.70418e-18
9.7528e-18
6.37299e-18
1.69869e-17
1.23439e-17
1.03743e-17
4.6234e-18
9.35269e-18
3.1773e-18
8.50892e-18
7.04981e-18
1.98382e-17
1.07454e-17
9.04655e-18
5.82563e-18
8.46532e-18
2.67727e-18
8.61785e-18
7.50415e-18
2.0617e-17
1.01762e-17
1.00619e-17
4.5836e-18
8.20382e-18
4.32074e-18
8.08843e-18
8.70044e-18
1.89992e-17
1.32362e-17
1.09959e-17
3.15771e-18
6.31444e-18
1.54828e-18
6.73906e-18
6.618e-18
1.88703e-17
1.37363e-17
9.87224e-18
3.62651e-18
1.00504e-17
2.88803e-18
8.5588e-18
8.31706e-18
1.68434e-17
1.30642e-17
1.14188e-17
5.71332e-18
7.84573e-18
4.92357e-19
9.24526e-18
6.93429e-18
2.04027e-17
1.25806e-17
9.96579e-18
3.66371e-18
8.04861e-18
8.95311e-19
8.79511e-18
6.34837e-18
1.84103e-17
1.22317e-17
9.86985e-18
5.51576e-18
1.00718e-17
5.59205e-19
7.1122e-18
5.9272e-18
1.7924e-17
1.22392e-17
1.16615e-17
5.02116e-18
9.22948e-18
1.00883e-18
8.46012e-18
6.11496e-18
1.97097e-17
1.45808e-17
1.1959e-17
6.71953e-18
1.02514e-17
1.30904e-18
6.29302e-18
6.95368e-18
1.82254e-17
1.10282e-17
8.0945e-18
4.2181e-18
1.14287e-17
1.69603e-18
1.09954e-17
6.0726e-18
1.8192e-17
1.43488e-17
8.36047e-20
3.27381e-18
5.38259e-18
1.72215e-17
1.09654e-17
9.59279e-18
2.52986e-18
1.16157e-17
2.48917e-18
6.41673e-18
9.48895e-18
1.8616e-17
1.27021e-17
1.16233e-17
3.91446e-18
9.58682e-18
-2.13513e-19
8.44723e-18
7.28986e-18
2.03979e-17
1.28322e-17
1.13825e-17
5.37361e-18
9.15428e-18
1.13454e-18
7.16919e-18
7.87387e-18
1.76684e-17
1.30072e-17
1.05771e-17
6.66033e-18
9.98011e-18
3.65277e-18
9.59702e-18
6.33584e-18
1.7588e-17
1.17008e-17
9.52554e-18
5.29543e-18
7.7453e-18
2.88873e-18
7.27544e-18
4.84584e-18
1.93152e-17
1.22756e-17
9.87522e-18
6.62066e-18
9.20503e-18
3.93751e-18
7.45348e-18
7.68029e-18
1.86622e-17
1.23863e-17
8.61291e-18
4.71155e-18
9.60442e-18
2.74535e-18
9.21981e-18
6.23096e-18
2.02876e-17
8.90515e-18
1.0731e-17
-1.80421e-17
-2.23414e-18
-1.35085e-18
1.53476e-17
-1.47607e-17
2.5938e-17
-1.82156e-18
2.16993e-17
-1.80495e-17
-2.09222e-18
-8.9081e-19
1.54072e-17
-1.45933e-17
2.61954e-17
-3.05146e-18
2.16665e-17
-1.86378e-17
-2.26401e-18
-6.95778e-19
1.54518e-17
-1.40238e-17
2.64196e-17
-1.92407e-18
2.10361e-17
-1.88186e-17
-1.85884e-18
-2.10015e-20
1.56454e-17
-1.3663e-17
2.62179e-17
-2.02132e-18
2.08221e-17
-1.90887e-17
-1.72384e-18
1.3195e-19
1.59024e-17
-1.42008e-17
2.66001e-17
-9.27935e-19
2.07705e-17
-1.95913e-17
-1.8866e-18
8.11394e-22
1.56886e-17
-1.40653e-17
2.687e-17
-1.50848e-18
2.02149e-17
-1.95641e-17
-2.03063e-18
-1.33308e-19
1.58828e-17
-1.42256e-17
2.70327e-17
-1.88007e-18
2.08504e-17
-1.95945e-17
-2.67381e-18
-6.20401e-19
1.53489e-17
-1.48697e-17
2.68018e-17
-1.6949e-18
2.10115e-17
-1.95761e-17
-2.88123e-18
3.1043e-19
1.55785e-17
-1.4289e-17
2.7398e-17
-1.847e-18
2.09903e-17
-1.95113e-17
-1.88161e-18
-4.66881e-20
1.49965e-17
-1.44144e-17
2.68115e-17
-1.04313e-18
2.10908e-17
-2.00031e-17
-2.55895e-18
1.22958e-19
1.51833e-17
-1.43522e-17
2.65361e-17
-1.33272e-18
2.06926e-17
-1.98216e-17
-1.95864e-18
1.13469e-18
1.51475e-17
-1.45757e-17
2.63988e-17
-1.65028e-18
2.08184e-17
-1.99213e-17
-1.95465e-18
8.19158e-19
1.5001e-17
-1.44928e-17
2.71902e-17
-1.22563e-18
2.12027e-17
-1.94927e-17
-1.97225e-18
1.30782e-18
1.52437e-17
-1.49695e-17
2.6926e-17
-1.21956e-18
2.03292e-17
-2.1132e-17
-2.18065e-18
2.22448e-18
1.46455e-17
-1.07749e-17
1.99927e-17
1.2365e-17
-3.00002e-19
4.65589e-18
-2.42368e-17
2.22479e-17
-3.61374e-18
1.98292e-17
-2.12452e-17
-3.01051e-18
1.94929e-18
1.56388e-17
-1.4845e-17
2.78352e-17
-1.10621e-18
2.08019e-17
-2.05564e-17
-2.14612e-18
1.62839e-18
1.49241e-17
-1.44882e-17
2.73117e-17
-5.41769e-19
2.06459e-17
-2.07264e-17
-2.05984e-18
1.57354e-18
1.50989e-17
-1.47548e-17
2.7591e-17
-1.46234e-18
2.08709e-17
-2.1084e-17
-1.56862e-18
1.8149e-18
1.58169e-17
-1.4251e-17
2.75396e-17
-1.5638e-18
2.04402e-17
-2.15654e-17
-2.25121e-18
1.20422e-18
1.53726e-17
-1.46251e-17
2.66081e-17
-8.70133e-19
2.06947e-17
-2.14471e-17
-1.53171e-18
1.95811e-18
1.59467e-17
-1.47092e-17
2.76e-17
-1.65621e-18
2.06255e-17
-2.23834e-17
-2.42705e-18
1.90895e-18
1.56071e-17
-1.40551e-17
2.58509e-17
4.2112e-18
9.99616e-18
-9.37383e-18
-2.6599e-17
-7.58141e-18
-8.75204e-18
2.18341e-17
-2.26834e-17
3.21875e-17
-7.55592e-18
2.52733e-17
-2.66408e-17
-7.5697e-18
-8.54572e-18
2.15791e-17
-2.25312e-17
3.23265e-17
-8.09587e-18
2.52294e-17
-2.66233e-17
-8.12958e-18
-8.53255e-18
2.17483e-17
-2.24609e-17
3.27323e-17
-7.59212e-18
2.4935e-17
-2.70587e-17
-7.53332e-18
-7.83335e-18
2.18871e-17
-2.21603e-17
3.20102e-17
-7.73049e-18
2.4839e-17
-2.72365e-17
-7.64224e-18
-7.70809e-18
2.18449e-17
-2.23664e-17
3.22681e-17
-7.27053e-18
2.49483e-17
-2.71009e-17
-8.35762e-18
-7.80559e-18
2.17838e-17
-2.24449e-17
3.28964e-17
-7.63259e-18
2.43895e-17
-2.75079e-17
-8.08525e-18
-7.69392e-18
2.17047e-17
-2.25627e-17
3.28444e-17
-7.15842e-18
2.47022e-17
-2.79277e-17
-8.0234e-18
-7.62114e-18
2.18581e-17
-2.29534e-17
3.28085e-17
-7.41421e-18
2.49241e-17
-2.79241e-17
-8.41095e-18
-7.33916e-18
2.19304e-17
-2.25668e-17
3.27931e-17
-6.86815e-18
2.49005e-17
-2.76844e-17
-7.93302e-18
-7.30839e-18
2.16454e-17
-2.2774e-17
3.26831e-17
-6.84582e-18
2.52187e-17
-2.88844e-17
-8.46981e-18
-7.07913e-18
2.19212e-17
-2.28069e-17
3.26726e-17
-6.83004e-18
2.48949e-17
-2.86154e-17
-8.29748e-18
-6.54642e-18
2.17007e-17
-2.2662e-17
3.26049e-17
-7.14738e-18
2.46376e-17
-2.87234e-17
-8.05426e-18
-6.58968e-18
2.14902e-17
-2.27294e-17
3.27497e-17
-6.8856e-18
2.48889e-17
-2.89218e-17
-8.09884e-18
-6.41185e-18
2.16868e-17
-2.29656e-17
3.30788e-17
-6.75798e-18
2.45276e-17
-2.93557e-17
-8.21707e-18
-5.28991e-18
2.04305e-17
-1.76809e-17
2.09496e-17
1.8193e-17
-1.56306e-17
2.46643e-18
-3.79987e-17
2.50231e-17
-1.02331e-17
2.36554e-17
-3.00627e-17
-8.50754e-18
-5.65687e-18
2.18909e-17
-2.28981e-17
3.37226e-17
-7.12183e-18
2.44605e-17
-2.97152e-17
-8.58316e-18
-5.57654e-18
2.17559e-17
-2.28348e-17
3.33461e-17
-6.5964e-18
2.4463e-17
-3.00608e-17
-8.39212e-18
-5.52427e-18
2.15737e-17
-2.28197e-17
3.38002e-17
-6.94327e-18
2.45721e-17
-3.00646e-17
-8.25761e-18
-5.29561e-18
2.1929e-17
-2.2883e-17
3.36125e-17
-7.26367e-18
2.42744e-17
-3.05942e-17
-8.17846e-18
-5.46136e-18
2.1736e-17
-2.30834e-17
3.34449e-17
-6.63119e-18
2.47656e-17
-3.06152e-17
-8.21483e-18
-4.81258e-18
2.2106e-17
-2.30629e-17
3.37742e-17
-6.72953e-18
2.48508e-17
-3.11594e-17
-8.72505e-18
-4.85124e-18
2.17824e-17
-2.23684e-17
3.13482e-17
8.24104e-19
1.01283e-17
-1.45852e-17
-1.00658e-17
-1.22938e-17
2.34655e-17
-2.48859e-17
3.3433e-17
-9.54209e-18
2.58352e-17
-2.8458e-17
-9.76059e-18
-1.21287e-17
2.32301e-17
-2.48295e-17
3.37262e-17
-1.00613e-17
2.58204e-17
-2.86335e-17
-1.00779e-17
-1.19609e-17
2.32731e-17
-2.44964e-17
3.35635e-17
-9.3274e-18
2.57787e-17
-2.91201e-17
-9.367e-18
-1.13556e-17
2.34755e-17
-2.46091e-17
3.35597e-17
-9.2039e-18
2.56765e-17
-2.91549e-17
-9.68095e-18
-1.12631e-17
2.33347e-17
-2.46579e-17
3.36528e-17
-9.30561e-18
2.55217e-17
-2.93778e-17
-9.68073e-18
-1.12006e-17
2.33835e-17
-2.47946e-17
3.37689e-17
-9.1863e-18
2.52869e-17
-2.94432e-17
-1.00627e-17
-1.10513e-17
2.33031e-17
-2.48134e-17
3.41859e-17
-9.45101e-18
2.56152e-17
-3.03224e-17
-9.84383e-18
-1.05545e-17
2.37632e-17
-2.51363e-17
3.44219e-17
-9.10202e-18
2.57413e-17
-3.00329e-17
-1.04481e-17
-1.05545e-17
2.37795e-17
-2.4789e-17
3.40235e-17
-9.07199e-18
2.55967e-17
-3.01468e-17
-1.02109e-17
-1.03761e-17
2.35483e-17
-2.51009e-17
3.44946e-17
-8.75695e-18
2.59242e-17
-3.06417e-17
-1.03768e-17
-1.01943e-17
2.37868e-17
-2.50488e-17
3.39598e-17
-8.85233e-18
2.57308e-17
-3.06821e-17
-1.01587e-17
-9.84052e-18
2.35116e-17
-2.51201e-17
3.48351e-17
-9.32809e-18
2.54581e-17
-3.17431e-17
-1.00855e-17
-9.84463e-18
2.33593e-17
-2.50936e-17
3.41234e-17
-9.06115e-18
2.54383e-17
-3.11688e-17
-1.04874e-17
-9.8614e-18
2.35613e-17
-2.54402e-17
3.45119e-17
-8.66198e-18
2.55876e-17
-3.17073e-17
-1.05089e-17
-8.86473e-18
2.22419e-17
-2.07191e-17
2.35739e-17
1.45092e-17
-1.07668e-17
8.66733e-18
-3.8229e-17
2.78737e-17
-1.1323e-17
2.46551e-17
-3.21775e-17
-1.10763e-17
-9.25488e-18
2.35867e-17
-2.5115e-17
3.47585e-17
-8.53138e-18
2.52787e-17
-3.21828e-17
-1.09226e-17
-8.82192e-18
2.35504e-17
-2.51149e-17
3.49419e-17
-8.44541e-18
2.51197e-17
-3.20043e-17
-1.08174e-17
-8.81784e-18
2.33054e-17
-2.49725e-17
3.47415e-17
-8.86169e-18
2.53093e-17
-3.23923e-17
-1.05362e-17
-8.53888e-18
2.36681e-17
-2.54639e-17
3.52046e-17
-8.56729e-18
2.49715e-17
-3.30169e-17
-1.1078e-17
-8.66031e-18
2.35067e-17
-2.56115e-17
3.50851e-17
-8.44299e-18
2.54999e-17
-3.30573e-17
-1.09358e-17
-7.9713e-18
2.37766e-17
-2.54412e-17
3.52791e-17
-8.28799e-18
2.56343e-17
-3.33176e-17
-1.06744e-17
-7.89341e-18
2.34468e-17
-2.46795e-17
3.24679e-17
-4.33854e-20
9.75925e-18
-1.57567e-17
-1.40613e-17
2.30456e-17
-2.52097e-17
3.28787e-17
-1.11155e-17
2.4152e-17
-2.89907e-17
-1.03553e-17
-1.41485e-17
2.27873e-17
-2.53063e-17
3.30714e-17
-1.13834e-17
2.42231e-17
-2.97945e-17
-1.06877e-17
-1.38614e-17
2.28912e-17
-2.49304e-17
3.28884e-17
-1.09884e-17
2.41394e-17
-3.00192e-17
-9.90012e-18
-1.31186e-17
2.30501e-17
-2.49461e-17
3.28931e-17
-1.07848e-17
2.38645e-17
-3.00649e-17
-1.05524e-17
-1.3393e-17
2.29767e-17
-2.54351e-17
3.33411e-17
-1.09489e-17
2.39008e-17
-3.01895e-17
-1.10348e-17
-1.34911e-17
2.29675e-17
-2.52286e-17
3.28872e-17
-1.0577e-17
2.40975e-17
-3.03348e-17
-1.05505e-17
-1.28969e-17
2.28933e-17
-2.52569e-17
3.38229e-17
-1.10391e-17
2.39208e-17
-3.09716e-17
-1.01017e-17
-1.24956e-17
2.32535e-17
-2.53348e-17
3.33978e-17
-1.06593e-17
2.4204e-17
-3.08385e-17
-1.06235e-17
-1.23195e-17
2.35394e-17
-2.53268e-17
3.41095e-17
-1.06752e-17
2.40226e-17
-3.10151e-17
-1.06051e-17
-1.21129e-17
2.32436e-17
-2.53784e-17
3.37696e-17
-1.0153e-17
2.41853e-17
-3.1172e-17
-1.05714e-17
-1.20213e-17
2.3524e-17
-2.53595e-17
3.34821e-17
-1.04002e-17
2.40054e-17
-3.14355e-17
-1.11486e-17
-1.20066e-17
2.3027e-17
-2.54648e-17
3.38618e-17
-1.07408e-17
2.38218e-17
-3.19254e-17
-1.06403e-17
-1.18285e-17
2.30242e-17
-2.55594e-17
3.4157e-17
-1.05013e-17
2.37076e-17
-3.20496e-17
-1.10098e-17
-1.19491e-17
2.31963e-17
-2.58423e-17
3.40486e-17
-9.99736e-18
2.40353e-17
-3.17793e-17
-1.14567e-17
-1.11598e-17
2.22601e-17
-2.22373e-17
2.49764e-17
1.09813e-17
-1.23325e-17
1.12094e-17
-3.56563e-17
2.85691e-17
-1.25961e-17
2.29215e-17
-3.25661e-17
-1.1181e-17
-1.10616e-17
2.33862e-17
-2.55021e-17
3.40964e-17
-1.03018e-17
2.39515e-17
-3.32227e-17
-1.12342e-17
-1.07318e-17
2.32292e-17
-2.55362e-17
3.41552e-17
-9.95216e-18
2.34613e-17
-3.31536e-17
-1.13317e-17
-1.06238e-17
2.31609e-17
-2.55362e-17
3.44122e-17
-1.05267e-17
2.36468e-17
-3.32834e-17
-1.08891e-17
-1.05257e-17
2.32406e-17
-2.58218e-17
3.4764e-17
-1.01069e-17
2.3311e-17
-3.32725e-17
-1.1464e-17
-1.03629e-17
2.32032e-17
-2.56368e-17
3.42378e-17
-1.00941e-17
2.39209e-17
-3.37727e-17
-1.13006e-17
-9.83854e-18
2.33388e-17
-2.57639e-17
3.48803e-17
-1.01097e-17
2.381e-17
-3.36233e-17
-1.13196e-17
-9.84275e-18
2.30259e-17
-2.4873e-17
3.1779e-17
-1.80851e-18
8.51435e-18
-1.67712e-17
-1.79673e-17
2.09682e-17
-2.51894e-17
2.88708e-17
-1.46051e-17
1.90475e-17
-3.00292e-17
-1.12037e-17
-1.76069e-17
2.08738e-17
-2.51758e-17
2.93464e-17
-1.48734e-17
1.90651e-17
-3.00241e-17
-1.16024e-17
-1.73966e-17
2.10873e-17
-2.50988e-17
2.89711e-17
-1.45983e-17
1.91148e-17
-2.99821e-17
-1.12764e-17
-1.68244e-17
2.12689e-17
-2.5071e-17
2.94774e-17
-1.48627e-17
1.85965e-17
-3.05396e-17
-1.13782e-17
-1.7009e-17
2.12072e-17
-2.56101e-17
2.96313e-17
-1.43118e-17
1.92934e-17
-3.07922e-17
-1.18672e-17
-1.69717e-17
2.12482e-17
-2.52944e-17
2.94674e-17
-1.42148e-17
1.90229e-17
-3.11457e-17
-1.1445e-17
-1.6408e-17
2.11929e-17
-2.5302e-17
2.95593e-17
-1.47841e-17
1.90279e-17
-3.1426e-17
-1.17173e-17
-1.63919e-17
2.12609e-17
-2.51283e-17
2.95127e-17
-1.49972e-17
1.89706e-17
-3.12732e-17
-1.23905e-17
-1.62939e-17
2.16123e-17
-2.52004e-17
2.92041e-17
-1.44772e-17
1.90359e-17
-3.08432e-17
-1.15308e-17
-1.58414e-17
2.15173e-17
-2.53749e-17
2.99743e-17
-1.47274e-17
1.88606e-17
-3.08498e-17
-1.21083e-17
-1.59045e-17
2.17112e-17
-2.53726e-17
2.95724e-17
-1.43315e-17
1.8911e-17
-3.12548e-17
-1.17448e-17
-1.57157e-17
2.13274e-17
-2.55905e-17
2.99953e-17
-1.45029e-17
1.88459e-17
-3.2146e-17
-1.24214e-17
-1.57458e-17
2.12798e-17
-2.54858e-17
2.99129e-17
-1.4514e-17
1.85231e-17
-3.18808e-17
-1.20941e-17
-1.53853e-17
2.15071e-17
-2.56022e-17
2.97967e-17
-1.41677e-17
1.88649e-17
-3.2248e-17
-1.25367e-17
-1.51143e-17
2.10501e-17
-2.34751e-17
2.3269e-17
4.41215e-18
-1.58243e-17
1.29893e-17
-3.2368e-17
2.67403e-17
-1.56625e-17
1.82449e-17
-3.23245e-17
-1.22617e-17
-1.48684e-17
2.17845e-17
-2.55298e-17
3.01527e-17
-1.45243e-17
1.88338e-17
-3.2687e-17
-1.25468e-17
-1.46458e-17
2.16088e-17
-2.55837e-17
3.02909e-17
-1.40896e-17
1.85212e-17
-3.33865e-17
-1.22773e-17
-1.437e-17
2.15933e-17
-2.56898e-17
3.05702e-17
-1.44805e-17
1.85645e-17
-3.29455e-17
-1.25571e-17
-1.4533e-17
2.15273e-17
-2.57549e-17
3.03931e-17
-1.48926e-17
1.81244e-17
-3.32645e-17
-1.22854e-17
-1.38858e-17
2.15831e-17
-2.53461e-17
3.00948e-17
-1.44415e-17
1.88035e-17
-3.32598e-17
-1.22273e-17
-1.36789e-17
2.1739e-17
-2.56861e-17
3.05967e-17
-1.40148e-17
1.8755e-17
-3.31961e-17
-1.26643e-17
-1.36911e-17
2.13716e-17
-2.48233e-17
2.76209e-17
-6.98131e-18
5.03381e-18
-1.86104e-17
1.98249e-17
-2.94606e-17
1.56185e-17
-2.2614e-17
1.17192e-17
-2.79465e-17
-1.91428e-17
-2.44095e-17
2.00193e-17
-2.99784e-17
1.56055e-17
-2.25132e-17
1.15787e-17
-2.75637e-17
-1.92217e-17
-2.41703e-17
2.00431e-17
-2.95987e-17
1.5425e-17
-2.18968e-17
1.20661e-17
-2.81348e-17
-1.91881e-17
-2.37154e-17
2.04148e-17
-2.96886e-17
1.56699e-17
-2.25091e-17
1.16305e-17
-2.87079e-17
-1.9452e-17
-2.40722e-17
2.03187e-17
-3.03165e-17
1.55483e-17
-2.23996e-17
1.2023e-17
-2.8549e-17
-1.98942e-17
-2.39546e-17
2.01201e-17
-2.97883e-17
1.54184e-17
-2.19916e-17
1.19307e-17
-2.86667e-17
-1.9411e-17
-2.34151e-17
2.03598e-17
-2.99014e-17
1.58657e-17
-2.24348e-17
1.17082e-17
-2.85576e-17
-1.96725e-17
-2.33865e-17
2.02651e-17
-2.92666e-17
1.57525e-17
-2.26158e-17
1.19197e-17
-2.9131e-17
-1.9731e-17
-2.32253e-17
2.07528e-17
-2.98489e-17
1.54328e-17
-2.26035e-17
1.207e-17
-2.90129e-17
-1.99014e-17
-2.30471e-17
2.06826e-17
-3.02313e-17
1.55123e-17
-2.18054e-17
1.20941e-17
-2.9156e-17
-1.98345e-17
-2.27432e-17
2.08196e-17
-2.97357e-17
1.58423e-17
-2.22031e-17
1.1796e-17
-2.92889e-17
-1.99869e-17
-2.2798e-17
2.05444e-17
-3.00024e-17
1.58674e-17
-2.21518e-17
1.20182e-17
-2.93911e-17
-2.03019e-17
-2.28689e-17
2.03679e-17
-2.97792e-17
1.58056e-17
-2.19267e-17
1.1663e-17
-2.92656e-17
-1.98086e-17
-2.22974e-17
2.06415e-17
-3.01289e-17
1.56277e-17
-2.21615e-17
1.20693e-17
-3.00241e-17
-2.03224e-17
-2.2235e-17
2.05948e-17
-2.89747e-17
1.03548e-17
-8.19931e-18
-1.35653e-17
1.81394e-17
-3.35644e-17
1.37793e-17
-2.31557e-17
1.16034e-17
-2.97463e-17
-2.02423e-17
-2.19855e-17
2.11147e-17
-3.03267e-17
1.59996e-17
-2.23675e-17
1.19032e-17
-3.01875e-17
-2.06077e-17
-2.16436e-17
2.08045e-17
-2.9827e-17
1.62502e-17
-2.15397e-17
1.18093e-17
-3.02421e-17
-2.05277e-17
-2.16252e-17
2.08256e-17
-3.02791e-17
1.63826e-17
-2.21032e-17
1.1569e-17
-3.04005e-17
-2.05706e-17
-2.14652e-17
2.08048e-17
-3.03585e-17
1.63323e-17
-2.21582e-17
1.1356e-17
-3.05442e-17
-2.03981e-17
-2.09972e-17
2.08977e-17
-2.98545e-17
1.58998e-17
-2.21134e-17
1.19492e-17
-3.0806e-17
-2.06016e-17
-2.08865e-17
2.1093e-17
-3.06113e-17
1.63815e-17
-2.22946e-17
1.16673e-17
-3.07805e-17
-2.0752e-17
-2.06707e-17
2.0639e-17
-2.95555e-17
1.38804e-17
-1.56525e-17
3.54097e-19
-1.98725e-17
-2.50075e-17
2.92138e-17
-1.49627e-17
1.82303e-17
-3.03009e-17
-1.13447e-17
-1.77832e-17
2.07845e-17
-2.52124e-17
2.94022e-17
-1.54605e-17
1.81099e-17
-3.05302e-17
-1.15108e-17
-1.76994e-17
2.07449e-17
-2.50415e-17
2.88461e-17
-1.4825e-17
1.85484e-17
-3.07244e-17
-1.13834e-17
-1.70297e-17
2.10874e-17
-2.49822e-17
2.95553e-17
-1.54332e-17
1.8002e-17
-3.06847e-17
-1.13474e-17
-1.7442e-17
2.08013e-17
-2.55443e-17
2.9262e-17
-1.51588e-17
1.83054e-17
-3.08457e-17
-1.19811e-17
-1.74759e-17
2.06124e-17
-2.51719e-17
2.92094e-17
-1.50175e-17
1.80189e-17
-3.0979e-17
-1.16341e-17
-1.68488e-17
2.10101e-17
-2.53923e-17
2.95091e-17
-1.5042e-17
1.83321e-17
-3.12432e-17
-1.17679e-17
-1.67503e-17
2.09806e-17
-2.49884e-17
2.91587e-17
-1.4606e-17
1.85335e-17
-3.13756e-17
-1.14573e-17
-1.64897e-17
2.12331e-17
-2.52208e-17
2.92679e-17
-1.49153e-17
1.84097e-17
-3.15981e-17
-1.17733e-17
-1.6446e-17
2.10415e-17
-2.54257e-17
2.96204e-17
-1.48849e-17
1.84511e-17
-3.19626e-17
-1.15196e-17
-1.58745e-17
2.14469e-17
-2.53494e-17
2.98459e-17
-1.50662e-17
1.76001e-17
-3.18184e-17
-1.20263e-17
-1.61419e-17
2.10526e-17
-2.53282e-17
2.97386e-17
-1.49187e-17
1.84683e-17
-3.19725e-17
-1.18366e-17
-1.62409e-17
2.09637e-17
-2.54383e-17
2.96472e-17
-1.49213e-17
1.8259e-17
-3.16581e-17
-1.19683e-17
-1.56418e-17
2.10726e-17
-2.54751e-17
3.00747e-17
-1.48134e-17
1.79339e-17
-3.22325e-17
-1.21091e-17
-1.53349e-17
2.02412e-17
-2.18239e-17
1.93279e-17
7.1247e-18
-1.68173e-17
8.9964e-18
-3.58457e-17
2.42914e-17
-1.69306e-17
1.74643e-17
-3.31551e-17
-1.23821e-17
-1.54001e-17
2.1428e-17
-2.55707e-17
3.07336e-17
-1.47192e-17
1.8254e-17
-3.27122e-17
-1.25973e-17
-1.49265e-17
2.13044e-17
-2.53668e-17
3.05563e-17
-1.50058e-17
1.80621e-17
-3.27734e-17
-1.23515e-17
-1.51061e-17
2.11772e-17
-2.57197e-17
3.02517e-17
-1.49582e-17
1.77546e-17
-3.29442e-17
-1.23287e-17
-1.46141e-17
2.12428e-17
-2.54403e-17
3.00819e-17
-1.51107e-17
1.76552e-17
-3.34588e-17
-1.25373e-17
-1.43847e-17
2.12036e-17
-2.53418e-17
3.00378e-17
-1.43672e-17
1.79968e-17
-3.31683e-17
-1.24498e-17
-1.42135e-17
2.14143e-17
-2.58084e-17
3.05493e-17
-1.48676e-17
1.80342e-17
-3.38928e-17
-1.29266e-17
-1.40052e-17
2.10037e-17
-2.47383e-17
2.78687e-17
-7.53701e-18
4.45805e-18
-1.87777e-17
3.21758e-17
-1.2249e-17
2.1205e-17
-3.01352e-17
-9.75695e-18
-1.51837e-17
2.18379e-17
-2.49926e-17
3.20613e-17
-1.24692e-17
2.15373e-17
-3.05561e-17
-1.05856e-17
-1.54096e-17
2.1802e-17
-2.50874e-17
3.21139e-17
-1.24252e-17
2.17802e-17
-3.0736e-17
-1.05565e-17
-1.48155e-17
2.20299e-17
-2.48915e-17
3.24111e-17
-1.28305e-17
2.12602e-17
-3.10523e-17
-1.06395e-17
-1.50478e-17
2.17499e-17
-2.52612e-17
3.20396e-17
-1.25081e-17
2.1379e-17
-3.08035e-17
-1.06243e-17
-1.48464e-17
2.16891e-17
-2.51832e-17
3.27016e-17
-1.25858e-17
2.12322e-17
-3.10122e-17
-1.07512e-17
-1.45316e-17
2.19353e-17
-2.51605e-17
3.27578e-17
-1.26627e-17
2.12101e-17
-3.11342e-17
-1.10413e-17
-1.44415e-17
2.19006e-17
-2.49428e-17
3.23619e-17
-1.22498e-17
2.15276e-17
-3.1939e-17
-1.07384e-17
-1.41079e-17
2.21691e-17
-2.50505e-17
3.21731e-17
-1.21503e-17
2.15132e-17
-3.18749e-17
-1.0529e-17
-1.38914e-17
2.1971e-17
-2.51531e-17
3.25594e-17
-1.21073e-17
2.14921e-17
-3.20401e-17
-1.08629e-17
-1.36399e-17
2.22626e-17
-2.53204e-17
3.28456e-17
-1.21288e-17
2.09477e-17
-3.22689e-17
-1.06473e-17
-1.34722e-17
2.2081e-17
-2.51649e-17
3.25935e-17
-1.22155e-17
2.14473e-17
-3.18575e-17
-1.15349e-17
-1.40212e-17
2.19018e-17
-2.55058e-17
3.26958e-17
-1.20725e-17
2.15053e-17
-3.26082e-17
-1.0676e-17
-1.30012e-17
2.21532e-17
-2.53069e-17
3.32185e-17
-1.21257e-17
2.07499e-17
-3.26403e-17
-1.11075e-17
-1.26139e-17
2.00381e-17
-1.88714e-17
1.64536e-17
1.90829e-17
-2.38434e-17
-7.27394e-19
-4.39854e-17
2.31267e-17
-1.59967e-17
2.00262e-17
-3.3163e-17
-1.13717e-17
-1.27384e-17
2.22572e-17
-2.53712e-17
3.35231e-17
-1.2104e-17
2.12403e-17
-3.30856e-17
-1.1621e-17
-1.25928e-17
2.21622e-17
-2.53151e-17
3.34446e-17
-1.25835e-17
2.10884e-17
-3.31901e-17
-1.1636e-17
-1.26465e-17
2.2067e-17
-2.56041e-17
3.32788e-17
-1.21548e-17
2.10273e-17
-3.36415e-17
-1.17942e-17
-1.22424e-17
2.20353e-17
-2.52145e-17
3.31151e-17
-1.20833e-17
2.077e-17
-3.36781e-17
-1.11866e-17
-1.17453e-17
2.19806e-17
-2.51749e-17
3.31055e-17
-1.21616e-17
2.08998e-17
-3.40824e-17
-1.10473e-17
-1.15989e-17
2.22611e-17
-2.55174e-17
3.34998e-17
-1.18291e-17
2.08903e-17
-3.39901e-17
-1.18456e-17
-1.15412e-17
2.1803e-17
-2.46692e-17
3.08081e-17
-4.17636e-18
6.34336e-18
-1.77091e-17
2.92504e-17
-1.50451e-17
1.83016e-17
-3.04798e-17
-1.09134e-17
-1.74613e-17
2.06957e-17
-2.49963e-17
2.92046e-17
-1.56069e-17
1.83056e-17
-3.05501e-17
-1.15461e-17
-1.77361e-17
2.07025e-17
-2.52811e-17
2.94586e-17
-1.49855e-17
1.86578e-17
-3.04734e-17
-1.14454e-17
-1.73704e-17
2.08903e-17
-2.50405e-17
2.9387e-17
-1.53544e-17
1.80423e-17
-3.07377e-17
-1.16301e-17
-1.73001e-17
2.06999e-17
-2.53041e-17
2.93536e-17
-1.53197e-17
1.82289e-17
-3.05734e-17
-1.11799e-17
-1.70829e-17
2.0797e-17
-2.53014e-17
2.94675e-17
-1.50559e-17
1.813e-17
-3.09608e-17
-1.18571e-17
-1.70673e-17
2.08609e-17
-2.52643e-17
2.9685e-17
-1.50735e-17
1.80409e-17
-3.12008e-17
-1.16026e-17
-1.67471e-17
2.08524e-17
-2.50997e-17
2.94265e-17
-1.49418e-17
1.82184e-17
-3.15319e-17
-1.1593e-17
-1.66966e-17
2.11813e-17
-2.53063e-17
2.93853e-17
-1.49539e-17
1.82539e-17
-3.12606e-17
-1.19147e-17
-1.63826e-17
2.09215e-17
-2.51118e-17
2.94399e-17
-1.52125e-17
1.80421e-17
-3.15703e-17
-1.22054e-17
-1.63447e-17
2.10695e-17
-2.55006e-17
2.95485e-17
-1.44004e-17
1.81461e-17
-3.18054e-17
-1.20525e-17
-1.59764e-17
2.11247e-17
-2.54311e-17
2.99523e-17
-1.46717e-17
1.8298e-17
-3.19196e-17
-1.21294e-17
-1.60904e-17
2.11084e-17
-2.53646e-17
2.93203e-17
-1.4945e-17
1.83199e-17
-3.20751e-17
-1.22762e-17
-1.541e-17
2.14001e-17
-2.53056e-17
3.00219e-17
-1.46417e-17
1.74113e-17
-3.23232e-17
-1.18893e-17
-1.4879e-17
1.88005e-17
-1.82787e-17
1.24874e-17
1.75297e-17
-2.6237e-17
-3.11966e-18
-4.56049e-17
1.88818e-17
-1.93627e-17
1.65442e-17
-3.25305e-17
-1.22367e-17
-1.50949e-17
2.13458e-17
-2.54099e-17
3.02288e-17
-1.49668e-17
1.80816e-17
-3.27495e-17
-1.25473e-17
-1.51291e-17
2.113e-17
-2.54908e-17
3.04053e-17
-1.50706e-17
1.80478e-17
-3.31038e-17
-1.27667e-17
-1.50836e-17
2.1101e-17
-2.5576e-17
2.97702e-17
-1.48622e-17
1.8316e-17
-3.31787e-17
-1.25006e-17
-1.4757e-17
2.10875e-17
-2.54002e-17
3.00567e-17
-1.48661e-17
1.78252e-17
-3.3436e-17
-1.20465e-17
-1.41616e-17
2.11362e-17
-2.53202e-17
3.0007e-17
-1.51109e-17
1.76643e-17
-3.36239e-17
-1.27135e-17
-1.42698e-17
2.13197e-17
-2.56475e-17
3.03445e-17
-1.46007e-17
1.78214e-17
-3.36499e-17
-1.244e-17
-1.38583e-17
2.09939e-17
-2.48492e-17
2.81921e-17
-7.89338e-18
3.91769e-18
-1.8885e-17
-2.2668e-17
1.18577e-17
-2.8357e-17
-1.92806e-17
-2.42235e-17
1.98224e-17
-2.95079e-17
1.53283e-17
-2.23625e-17
1.20965e-17
-2.80918e-17
-1.93373e-17
-2.4085e-17
1.97336e-17
-2.96634e-17
1.59484e-17
-2.23252e-17
1.17915e-17
-2.81745e-17
-1.93783e-17
-2.38513e-17
2.01367e-17
-2.95179e-17
1.55076e-17
-2.20555e-17
1.18173e-17
-2.82568e-17
-1.92733e-17
-2.38508e-17
2.00632e-17
-2.97852e-17
1.53295e-17
-2.2058e-17
1.17759e-17
-2.78884e-17
-1.92815e-17
-2.3735e-17
2.00999e-17
-2.98826e-17
1.54251e-17
-2.22946e-17
1.17222e-17
-2.8097e-17
-1.94642e-17
-2.35121e-17
2.01632e-17
-2.95131e-17
1.59425e-17
-2.22408e-17
1.15197e-17
-2.88728e-17
-1.9693e-17
-2.33153e-17
2.02685e-17
-2.98831e-17
1.57396e-17
-2.25777e-17
1.1473e-17
-2.94533e-17
-1.98113e-17
-2.33774e-17
2.0613e-17
-3.0198e-17
1.52932e-17
-2.22975e-17
1.15948e-17
-2.87225e-17
-1.9622e-17
-2.28641e-17
2.02613e-17
-2.94104e-17
1.57764e-17
-2.23713e-17
1.17631e-17
-2.91898e-17
-2.00396e-17
-2.28126e-17
2.03828e-17
-3.00132e-17
1.55255e-17
-2.17618e-17
1.21098e-17
-2.91621e-17
-1.99573e-17
-2.25307e-17
2.05407e-17
-3.02806e-17
1.57715e-17
-2.23221e-17
1.17897e-17
-2.95406e-17
-1.99155e-17
-2.25511e-17
2.06035e-17
-3.0035e-17
1.56151e-17
-2.22953e-17
1.17474e-17
-2.9598e-17
-1.98975e-17
-2.19495e-17
2.06973e-17
-2.95961e-17
1.62249e-17
-2.18116e-17
1.11898e-17
-2.95476e-17
-2.02716e-17
-2.1598e-17
1.81458e-17
-2.29977e-17
-2.6027e-20
5.88589e-18
-2.35152e-17
1.55349e-18
-4.783e-17
5.62634e-18
-2.65155e-17
1.02289e-17
-2.98461e-17
-2.00256e-17
-2.16333e-17
2.08633e-17
-3.00123e-17
1.61746e-17
-2.21717e-17
1.17364e-17
-3.0136e-17
-2.0639e-17
-2.18486e-17
2.04672e-17
-2.98453e-17
1.5833e-17
-2.18744e-17
1.18609e-17
-2.99168e-17
-2.02846e-17
-2.1496e-17
2.06759e-17
-3.0328e-17
1.60074e-17
-2.2271e-17
1.20215e-17
-3.01891e-17
-2.0647e-17
-2.13835e-17
2.06021e-17
-3.00797e-17
1.62666e-17
-2.21018e-17
1.15693e-17
-3.04941e-17
-2.03303e-17
-2.09316e-17
2.07516e-17
-3.01236e-17
1.60864e-17
-2.19707e-17
1.16819e-17
-3.05331e-17
-2.06162e-17
-2.09709e-17
2.07008e-17
-3.02837e-17
1.60365e-17
-2.17288e-17
1.16182e-17
-3.04872e-17
-2.03541e-17
-2.04883e-17
2.07168e-17
-2.96457e-17
1.37281e-17
-1.55368e-17
1.06189e-20
-1.98732e-17
1.83487e-17
-2.99529e-17
-1.14332e-17
-1.72543e-17
2.04667e-17
-2.48664e-17
2.91923e-17
-1.46998e-17
1.8436e-17
-2.97557e-17
-1.15764e-17
-1.70852e-17
2.04152e-17
-2.49006e-17
2.93232e-17