/*--------------------------------*- C++ -*----------------------------------*\
| =========                 |                                                 |
| \\      /  F ield         | OpenFOAM: The Open Source CFD Toolbox           |
|  \\    /   O peration     | Version:  2512                                  |
|   \\  /    A nd           | Website:  www.openfoam.com                      |
|    \\/     M anipulation  |                                                 |
\*---------------------------------------------------------------------------*/
FoamFile
{
    version     2.0;
    format      ascii;
    arch        "LSB;label=32;scalar=64";
    class       volScalarField;
    location    "0";
    object      k;
}
// * * * * * * * * * * * * * * * * * * * * * * * * * * * * * * * * * * * * * //

dimensions      [0 2 -2 0 0 0 0];

internalField   uniform 1;

boundaryField
{
    inlet
    {
        type            inletOutlet;
        inletValue      nonuniform List<scalar> 0();
        value           nonuniform List<scalar> 0();
    }
    outlet
    {
        type            inletOutlet;
        inletValue      nonuniform List<scalar> 0();
        value           nonuniform List<scalar> 0();
    }
    lowerWall
    {
        type            kqRWallFunction;
        value           nonuniform List<scalar> 0();
    }
    upperWall
    {
        type            kqRWallFunction;
        value           uniform 1;
    }
    frontAndBack
    {
        type            kqRWallFunction;
        value           uniform 1;
    }
    procBoundary10to1
    {
        type            processor;
        value           uniform 1;
    }
    procBoundary10to4
    {
        type            processor;
        value           uniform 1;
    }
    procBoundary10to5
    {
        type            processor;
        value           uniform 1;
    }
    procBoundary10to7
    {
        type            processor;
        value           uniform 1;
    }
}


// ************************************************************************* //
