/*--------------------------------*- C++ -*----------------------------------*\
| =========                 |                                                 |
| \\      /  F ield         | OpenFOAM: The Open Source CFD Toolbox           |
|  \\    /   O peration     | Version:  2512                                  |
|   \\  /    A nd           | Website:  www.openfoam.com                      |
|    \\/     M anipulation  |                                                 |
\*---------------------------------------------------------------------------*/
FoamFile
{
    version     2.0;
    format      ascii;
    arch        "LSB;label=32;scalar=64";
    class       volScalarField;
    location    "0.006";
    object      alphat;
}
// * * * * * * * * * * * * * * * * * * * * * * * * * * * * * * * * * * * * * //

dimensions      [1 -1 -1 0 0 0 0];

internalField   nonuniform List<scalar> 
100000
(
1.3382e-07
2.62516e-08
1.08206e-08
5.9165e-09
3.8229e-09
2.7603e-09
2.15555e-09
1.78341e-09
1.53968e-09
1.37151e-09
1.25037e-09
1.15992e-09
1.0903e-09
1.03529e-09
9.90811e-10
9.54126e-10
9.23338e-10
8.97111e-10
8.74483e-10
8.54747e-10
8.37374e-10
8.21963e-10
8.082e-10
7.95838e-10
7.84678e-10
7.74558e-10
7.65346e-10
7.56929e-10
7.49215e-10
7.42123e-10
7.35585e-10
7.29542e-10
7.23945e-10
7.18748e-10
7.13912e-10
7.09403e-10
7.0519e-10
7.01248e-10
6.97551e-10
6.94078e-10
6.9081e-10
6.87729e-10
6.8482e-10
6.82069e-10
6.79462e-10
6.76989e-10
6.74638e-10
6.72399e-10
6.70265e-10
6.68226e-10
6.66276e-10
6.64407e-10
6.62615e-10
6.60892e-10
6.59234e-10
6.57635e-10
6.56092e-10
6.54601e-10
6.53157e-10
6.51757e-10
6.50399e-10
6.49078e-10
6.47793e-10
6.46541e-10
6.45318e-10
6.44125e-10
6.42957e-10
6.41813e-10
6.40691e-10
6.3959e-10
6.38507e-10
6.37441e-10
6.3639e-10
6.35353e-10
6.34329e-10
6.33316e-10
6.32313e-10
6.31319e-10
6.30334e-10
6.29356e-10
6.28385e-10
6.27421e-10
6.26463e-10
6.2551e-10
6.24563e-10
6.2362e-10
6.22683e-10
6.2175e-10
6.20821e-10
6.19897e-10
6.18976e-10
6.18059e-10
6.17146e-10
6.16236e-10
6.15329e-10
6.14426e-10
6.13525e-10
6.12627e-10
6.11732e-10
6.1084e-10
6.0995e-10
6.09063e-10
6.08178e-10
6.07296e-10
6.06416e-10
6.05538e-10
6.04663e-10
6.03789e-10
6.02918e-10
6.02048e-10
6.01181e-10
6.00314e-10
5.9945e-10
5.98586e-10
5.97724e-10
5.96862e-10
5.96001e-10
5.95141e-10
5.94281e-10
5.93421e-10
5.92562e-10
5.91703e-10
5.90844e-10
5.89985e-10
5.89127e-10
5.88269e-10
5.87411e-10
5.86554e-10
5.85697e-10
5.8484e-10
5.83984e-10
5.83129e-10
5.82275e-10
5.81421e-10
5.80567e-10
5.79715e-10
5.78863e-10
5.78012e-10
5.77162e-10
5.76312e-10
5.75464e-10
5.74616e-10
5.73769e-10
5.72923e-10
5.72078e-10
5.71234e-10
5.7039e-10
5.69548e-10
5.68706e-10
5.67865e-10
5.67024e-10
5.66184e-10
5.65344e-10
5.64505e-10
5.63667e-10
5.62829e-10
5.61992e-10
5.61155e-10
5.60318e-10
5.59482e-10
5.58647e-10
5.57812e-10
5.56977e-10
5.56143e-10
5.55309e-10
5.54476e-10
5.53644e-10
5.52812e-10
5.5198e-10
5.51149e-10
5.50319e-10
5.49489e-10
5.4866e-10
5.47831e-10
5.47003e-10
5.46176e-10
5.45349e-10
5.44522e-10
5.43697e-10
5.42871e-10
5.42047e-10
5.41222e-10
5.40398e-10
5.39575e-10
5.38752e-10
5.3793e-10
5.37108e-10
5.36286e-10
5.35465e-10
5.34645e-10
5.33825e-10
5.33005e-10
5.32187e-10
5.31368e-10
5.30551e-10
5.29734e-10
5.28917e-10
5.28101e-10
5.27286e-10
5.26472e-10
5.25658e-10
5.24844e-10
5.24032e-10
5.2322e-10
5.22408e-10
5.21597e-10
5.20787e-10
5.19977e-10
5.19168e-10
5.18359e-10
5.17551e-10
5.16743e-10
5.15935e-10
5.15129e-10
5.14322e-10
5.13516e-10
5.1271e-10
5.11905e-10
5.11101e-10
5.10296e-10
5.09493e-10
5.08689e-10
5.07886e-10
5.07084e-10
5.06282e-10
5.05481e-10
5.0468e-10
5.03879e-10
5.03079e-10
5.0228e-10
5.01481e-10
5.00683e-10
4.99885e-10
4.99087e-10
4.98291e-10
4.97494e-10
4.96699e-10
4.95904e-10
4.95109e-10
4.94315e-10
4.93521e-10
4.92728e-10
4.91936e-10
4.91144e-10
4.90352e-10
4.89561e-10
4.88771e-10
4.87981e-10
4.87191e-10
4.86402e-10
4.85614e-10
4.84826e-10
4.84039e-10
4.83252e-10
4.82466e-10
4.8168e-10
4.80895e-10
4.8011e-10
4.79326e-10
4.78542e-10
4.77759e-10
4.76976e-10
4.76194e-10
4.75412e-10
4.74631e-10
4.7385e-10
4.7307e-10
4.7229e-10
4.71511e-10
4.70732e-10
4.69954e-10
4.69176e-10
4.68399e-10
4.67622e-10
4.66845e-10
4.6607e-10
4.65294e-10
4.6452e-10
4.63745e-10
4.62971e-10
4.62198e-10
4.61425e-10
4.60653e-10
4.59881e-10
4.5911e-10
4.58339e-10
4.57569e-10
4.56799e-10
4.56029e-10
4.5526e-10
4.54492e-10
4.53724e-10
4.52957e-10
4.5219e-10
4.51423e-10
4.50657e-10
4.49892e-10
4.49127e-10
4.48362e-10
4.47598e-10
4.46835e-10
4.46072e-10
4.45309e-10
4.44547e-10
4.43785e-10
4.43024e-10
4.42264e-10
4.41504e-10
4.40744e-10
4.39985e-10
4.39226e-10
4.38468e-10
4.3771e-10
4.36953e-10
4.36196e-10
4.3544e-10
4.34684e-10
4.33929e-10
4.33174e-10
4.3242e-10
4.31666e-10
4.30912e-10
4.3016e-10
4.29407e-10
4.28655e-10
4.27904e-10
4.27153e-10
4.26403e-10
4.25653e-10
4.24903e-10
4.24154e-10
4.23406e-10
4.22658e-10
4.2191e-10
4.21163e-10
4.20417e-10
4.19671e-10
4.18925e-10
4.1818e-10
4.17436e-10
4.16691e-10
4.15948e-10
4.15205e-10
4.14462e-10
4.1372e-10
4.12978e-10
4.12237e-10
4.11497e-10
4.10757e-10
4.10017e-10
4.09278e-10
4.08539e-10
4.07801e-10
4.07063e-10
4.06326e-10
4.05589e-10
4.04853e-10
4.04118e-10
4.03382e-10
4.02648e-10
4.01913e-10
4.0118e-10
4.00446e-10
3.99714e-10
3.98982e-10
3.9825e-10
3.97519e-10
3.96788e-10
3.96058e-10
3.95328e-10
3.94599e-10
3.9387e-10
3.93142e-10
3.92414e-10
3.91687e-10
3.9096e-10
3.90234e-10
3.89508e-10
3.88783e-10
3.88058e-10
3.87334e-10
3.8661e-10
3.85887e-10
3.85164e-10
3.84442e-10
3.83721e-10
3.82999e-10
3.82279e-10
3.81559e-10
3.80839e-10
3.8012e-10
3.79401e-10
3.78683e-10
3.77965e-10
3.77248e-10
3.76532e-10
3.75816e-10
3.751e-10
3.74385e-10
3.73671e-10
3.72956e-10
3.72243e-10
3.7153e-10
3.70817e-10
3.70106e-10
3.69394e-10
3.68683e-10
3.67973e-10
3.67263e-10
3.66553e-10
3.65845e-10
3.65136e-10
3.64428e-10
3.63721e-10
3.63014e-10
3.62308e-10
3.61602e-10
3.60897e-10
3.60192e-10
3.59488e-10
3.58784e-10
3.58081e-10
3.57379e-10
3.56677e-10
3.55975e-10
3.55274e-10
3.54573e-10
3.53873e-10
3.53174e-10
3.52475e-10
3.51777e-10
3.51079e-10
3.50382e-10
3.49685e-10
3.48988e-10
3.48293e-10
3.47598e-10
3.46903e-10
3.46209e-10
3.45515e-10
3.44822e-10
3.4413e-10
3.43438e-10
3.42746e-10
3.42055e-10
3.41365e-10
3.40675e-10
3.39986e-10
3.39297e-10
3.38609e-10
3.37921e-10
3.37234e-10
3.36547e-10
3.35861e-10
3.35176e-10
3.34491e-10
3.33806e-10
3.33123e-10
3.32439e-10
3.31757e-10
3.31074e-10
3.30393e-10
3.29712e-10
3.29031e-10
3.28351e-10
3.27672e-10
3.26993e-10
3.26314e-10
3.25637e-10
3.24959e-10
3.24283e-10
3.23606e-10
3.22931e-10
3.22256e-10
3.21581e-10
3.20908e-10
3.20234e-10
3.19562e-10
3.18889e-10
3.18218e-10
3.17547e-10
3.16876e-10
3.16206e-10
3.15537e-10
3.14868e-10
3.142e-10
3.13532e-10
3.12865e-10
3.12198e-10
3.11532e-10
3.10867e-10
3.10202e-10
3.09538e-10
3.08874e-10
3.08211e-10
3.07549e-10
3.06887e-10
3.06225e-10
3.05565e-10
3.04904e-10
3.04245e-10
3.03586e-10
3.02927e-10
3.02269e-10
3.01612e-10
3.00955e-10
3.00299e-10
2.99644e-10
2.98989e-10
2.98334e-10
2.9768e-10
2.97027e-10
2.96375e-10
2.95723e-10
2.95071e-10
2.9442e-10
2.9377e-10
2.9312e-10
2.92471e-10
2.91823e-10
2.91175e-10
2.90528e-10
2.89881e-10
2.89235e-10
2.8859e-10
2.87945e-10
2.873e-10
2.86657e-10
2.86014e-10
2.85371e-10
2.84729e-10
2.84088e-10
2.83447e-10
2.82807e-10
2.82168e-10
2.81529e-10
2.80891e-10
2.80253e-10
2.79616e-10
2.7898e-10
2.78344e-10
2.77709e-10
2.77074e-10
2.76441e-10
2.75807e-10
2.75175e-10
2.74543e-10
2.73911e-10
2.7328e-10
2.7265e-10
2.7202e-10
2.71392e-10
2.70763e-10
2.70136e-10
2.69508e-10
2.68882e-10
2.68256e-10
2.67631e-10
2.67006e-10
2.66382e-10
2.65759e-10
2.65137e-10
2.64514e-10
2.63893e-10
2.63272e-10
2.62652e-10
2.62033e-10
2.61414e-10
2.60796e-10
2.60178e-10
2.59561e-10
2.58945e-10
2.58329e-10
2.57714e-10
2.571e-10
2.56486e-10
2.55873e-10
2.55261e-10
2.54649e-10
2.54038e-10
2.53427e-10
2.52818e-10
2.52208e-10
2.516e-10
2.50992e-10
2.50385e-10
2.49778e-10
2.49172e-10
2.48567e-10
2.47963e-10
2.47359e-10
2.46755e-10
2.46153e-10
2.45551e-10
2.4495e-10
2.44349e-10
2.43749e-10
2.4315e-10
2.42551e-10
2.41953e-10
2.41356e-10
2.4076e-10
2.40164e-10
2.39568e-10
2.38974e-10
2.3838e-10
2.37787e-10
2.37194e-10
2.36602e-10
2.36011e-10
2.35421e-10
2.34831e-10
2.34242e-10
2.33653e-10
2.33066e-10
2.32478e-10
2.31892e-10
2.31306e-10
2.30721e-10
2.30137e-10
2.29553e-10
2.2897e-10
2.28388e-10
2.27806e-10
2.27226e-10
2.26645e-10
2.26066e-10
2.25487e-10
2.24909e-10
2.24332e-10
2.23755e-10
2.23179e-10
2.22604e-10
2.22029e-10
2.21455e-10
2.20882e-10
2.20309e-10
2.19738e-10
2.19166e-10
2.18596e-10
2.18026e-10
2.17457e-10
2.16889e-10
2.16322e-10
2.15755e-10
2.15189e-10
2.14623e-10
2.14059e-10
2.13495e-10
2.12931e-10
2.12369e-10
2.11807e-10
2.11246e-10
2.10686e-10
2.10126e-10
2.09567e-10
2.09009e-10
2.08451e-10
2.07894e-10
2.07338e-10
2.06783e-10
2.06229e-10
2.05675e-10
2.05122e-10
2.04569e-10
2.04017e-10
2.03467e-10
2.02916e-10
2.02367e-10
2.01818e-10
2.0127e-10
2.00723e-10
2.00176e-10
1.99631e-10
1.99086e-10
1.98541e-10
1.97998e-10
1.97455e-10
1.96913e-10
1.96372e-10
1.95831e-10
1.95291e-10
1.94752e-10
1.94214e-10
1.93676e-10
1.93139e-10
1.92603e-10
1.92068e-10
1.91534e-10
1.91e-10
1.90467e-10
1.89934e-10
1.89403e-10
1.88872e-10
1.88342e-10
1.87813e-10
1.87284e-10
1.86756e-10
1.86229e-10
1.85703e-10
1.85178e-10
1.84653e-10
1.84129e-10
1.83606e-10
1.83084e-10
1.82562e-10
1.82041e-10
1.81521e-10
1.81002e-10
1.80483e-10
1.79965e-10
1.79448e-10
1.78932e-10
1.78417e-10
1.77902e-10
1.77388e-10
1.76875e-10
1.76363e-10
1.75851e-10
1.75341e-10
1.74831e-10
1.74321e-10
1.73813e-10
1.73305e-10
1.72798e-10
1.72292e-10
1.71787e-10
1.71283e-10
1.70779e-10
1.70276e-10
1.69774e-10
1.69273e-10
1.68772e-10
1.68272e-10
1.67773e-10
1.67275e-10
1.66778e-10
1.66281e-10
1.65785e-10
1.6529e-10
1.64796e-10
1.64303e-10
1.6381e-10
1.63319e-10
1.62828e-10
1.62337e-10
1.61848e-10
1.61359e-10
1.60872e-10
1.60385e-10
1.59899e-10
1.59413e-10
1.58929e-10
1.58445e-10
1.57962e-10
1.5748e-10
1.56999e-10
1.56518e-10
1.56038e-10
1.5556e-10
1.55082e-10
1.54604e-10
1.54128e-10
1.53652e-10
1.53178e-10
1.52704e-10
1.5223e-10
1.51758e-10
1.51287e-10
1.50816e-10
1.50346e-10
1.49877e-10
1.49409e-10
1.48941e-10
1.48475e-10
1.48009e-10
1.47544e-10
1.4708e-10
1.46617e-10
1.46154e-10
1.45693e-10
1.45232e-10
1.44772e-10
1.44313e-10
1.43855e-10
1.43397e-10
1.4294e-10
1.42485e-10
1.4203e-10
1.41576e-10
1.41122e-10
1.4067e-10
1.40218e-10
1.39767e-10
1.39317e-10
1.38868e-10
1.3842e-10
1.37973e-10
1.37526e-10
1.3708e-10
1.36635e-10
1.36191e-10
1.35748e-10
1.35306e-10
1.34864e-10
1.34423e-10
1.33984e-10
1.33545e-10
1.33106e-10
1.32669e-10
1.32233e-10
1.31797e-10
1.31362e-10
1.30928e-10
1.30495e-10
1.30063e-10
1.29632e-10
1.29201e-10
1.28771e-10
1.28343e-10
1.27915e-10
1.27487e-10
1.27061e-10
1.26636e-10
1.26211e-10
1.25788e-10
1.25365e-10
1.24943e-10
1.24522e-10
1.24101e-10
1.23682e-10
1.23263e-10
1.22846e-10
1.22429e-10
1.22013e-10
1.21598e-10
1.21183e-10
1.2077e-10
1.20357e-10
1.19946e-10
1.19535e-10
1.19125e-10
1.18716e-10
1.18308e-10
1.179e-10
1.17494e-10
1.17088e-10
1.16683e-10
1.16279e-10
1.15876e-10
1.15474e-10
1.15073e-10
1.14672e-10
1.14273e-10
1.13874e-10
1.13476e-10
1.13079e-10
1.12683e-10
1.12288e-10
1.11894e-10
1.115e-10
1.11107e-10
1.10716e-10
1.10325e-10
1.09935e-10
1.09546e-10
1.09157e-10
1.0877e-10
1.08383e-10
1.07998e-10
1.07613e-10
1.07229e-10
1.06846e-10
1.06464e-10
1.06082e-10
1.05702e-10
1.05322e-10
1.04944e-10
1.04566e-10
1.04189e-10
1.03813e-10
1.03438e-10
1.03063e-10
1.0269e-10
1.02317e-10
1.01946e-10
1.01575e-10
1.01205e-10
1.00836e-10
1.00468e-10
1.001e-10
9.97339e-11
9.93683e-11
9.90036e-11
9.86398e-11
9.82768e-11
9.79147e-11
9.75535e-11
9.71932e-11
9.68338e-11
9.64752e-11
9.61175e-11
9.57606e-11
9.54047e-11
9.50496e-11
9.46954e-11
9.43421e-11
9.39896e-11
9.3638e-11
9.32873e-11
9.29374e-11
9.25885e-11
9.22404e-11
9.18931e-11
9.15468e-11
9.12013e-11
9.08567e-11
9.05129e-11
9.017e-11
8.9828e-11
8.94869e-11
8.91466e-11
8.88072e-11
8.84686e-11
8.81309e-11
8.77941e-11
8.74581e-11
8.7123e-11
8.67888e-11
8.64554e-11
8.61229e-11
8.57913e-11
8.54605e-11
8.51305e-11
8.48014e-11
8.44732e-11
8.41458e-11
8.38193e-11
8.34936e-11
8.31688e-11
8.28448e-11
8.25217e-11
8.21994e-11
8.1878e-11
8.15574e-11
8.12376e-11
8.09187e-11
8.06007e-11
8.02834e-11
7.9967e-11
7.96515e-11
7.93368e-11
7.90229e-11
7.87098e-11
7.83976e-11
7.80863e-11
7.77757e-11
7.7466e-11
7.71572e-11
7.68491e-11
7.6542e-11
7.62356e-11
7.59301e-11
7.56255e-11
7.53217e-11
7.50187e-11
7.47166e-11
7.44154e-11
7.41151e-11
7.38157e-11
7.35172e-11
7.32196e-11
7.29229e-11
7.26272e-11
7.23325e-11
7.20389e-11
7.17463e-11
7.14549e-11
7.11646e-11
7.08756e-11
7.05879e-11
7.03016e-11
7.00168e-11
6.97338e-11
6.94526e-11
6.91735e-11
6.88968e-11
6.86231e-11
6.83531e-11
6.80878e-11
6.78287e-11
6.75782e-11
6.73395e-11
6.71172e-11
6.6918e-11
6.67502e-11
6.66235e-11
6.65544e-11
6.65869e-11
6.67339e-11
2.46336e-06
3.99242e-07
1.04931e-07
4.01204e-08
2.08159e-08
1.35184e-08
1.02667e-08
8.65277e-09
7.79112e-09
7.30621e-09
7.02165e-09
6.84823e-09
6.73843e-09
6.66591e-09
6.61573e-09
6.57925e-09
6.55141e-09
6.52921e-09
6.51084e-09
6.4952e-09
6.48161e-09
6.46961e-09
6.4589e-09
6.44925e-09
6.44051e-09
6.43256e-09
6.42528e-09
6.41861e-09
6.41247e-09
6.4068e-09
6.40155e-09
6.39668e-09
6.39216e-09
6.38794e-09
6.384e-09
6.38031e-09
6.37686e-09
6.37361e-09
6.37055e-09
6.36767e-09
6.36495e-09
6.36237e-09
6.35993e-09
6.35762e-09
6.35541e-09
6.35331e-09
6.35131e-09
6.3494e-09
6.34756e-09
6.34581e-09
6.34412e-09
6.3425e-09
6.34093e-09
6.33943e-09
6.33797e-09
6.33656e-09
6.3352e-09
6.33387e-09
6.33259e-09
6.33134e-09
6.33012e-09
6.32893e-09
6.32776e-09
6.32663e-09
6.32552e-09
6.32442e-09
6.32335e-09
6.3223e-09
6.32126e-09
6.32024e-09
6.31923e-09
6.31823e-09
6.31724e-09
6.31626e-09
6.31529e-09
6.31433e-09
6.31338e-09
6.31243e-09
6.31149e-09
6.31055e-09
6.30962e-09
6.3087e-09
6.30778e-09
6.30687e-09
6.30596e-09
6.30506e-09
6.30416e-09
6.30327e-09
6.30238e-09
6.3015e-09
6.30062e-09
6.29975e-09
6.29887e-09
6.29801e-09
6.29714e-09
6.29628e-09
6.29542e-09
6.29456e-09
6.29371e-09
6.29286e-09
6.29201e-09
6.29117e-09
6.29033e-09
6.28949e-09
6.28865e-09
6.28781e-09
6.28698e-09
6.28615e-09
6.28532e-09
6.28449e-09
6.28367e-09
6.28284e-09
6.28202e-09
6.28119e-09
6.28037e-09
6.27955e-09
6.27873e-09
6.2779e-09
6.27708e-09
6.27626e-09
6.27544e-09
6.27462e-09
6.2738e-09
6.27299e-09
6.27217e-09
6.27135e-09
6.27054e-09
6.26972e-09
6.26891e-09
6.2681e-09
6.26728e-09
6.26647e-09
6.26567e-09
6.26486e-09
6.26405e-09
6.26324e-09
6.26244e-09
6.26164e-09
6.26083e-09
6.26003e-09
6.25923e-09
6.25843e-09
6.25764e-09
6.25684e-09
6.25604e-09
6.25525e-09
6.25445e-09
6.25366e-09
6.25287e-09
6.25208e-09
6.25129e-09
6.2505e-09
6.24971e-09
6.24892e-09
6.24813e-09
6.24735e-09
6.24656e-09
6.24577e-09
6.24499e-09
6.24421e-09
6.24342e-09
6.24264e-09
6.24186e-09
6.24108e-09
6.2403e-09
6.23952e-09
6.23874e-09
6.23797e-09
6.23719e-09
6.23642e-09
6.23564e-09
6.23487e-09
6.2341e-09
6.23332e-09
6.23255e-09
6.23178e-09
6.23102e-09
6.23025e-09
6.22948e-09
6.22871e-09
6.22795e-09
6.22718e-09
6.22642e-09
6.22565e-09
6.22489e-09
6.22413e-09
6.22337e-09
6.22261e-09
6.22185e-09
6.22109e-09
6.22033e-09
6.21957e-09
6.21882e-09
6.21806e-09
6.21731e-09
6.21655e-09
6.2158e-09
6.21505e-09
6.2143e-09
6.21355e-09
6.2128e-09
6.21206e-09
6.21131e-09
6.21056e-09
6.20982e-09
6.20907e-09
6.20833e-09
6.20759e-09
6.20685e-09
6.20611e-09
6.20537e-09
6.20463e-09
6.20389e-09
6.20315e-09
6.20241e-09
6.20168e-09
6.20094e-09
6.20021e-09
6.19947e-09
6.19874e-09
6.19801e-09
6.19727e-09
6.19654e-09
6.19581e-09
6.19508e-09
6.19436e-09
6.19363e-09
6.1929e-09
6.19218e-09
6.19145e-09
6.19073e-09
6.19e-09
6.18928e-09
6.18856e-09
6.18784e-09
6.18712e-09
6.1864e-09
6.18568e-09
6.18496e-09
6.18425e-09
6.18353e-09
6.18282e-09
6.1821e-09
6.18139e-09
6.18068e-09
6.17997e-09
6.17926e-09
6.17855e-09
6.17784e-09
6.17713e-09
6.17642e-09
6.17572e-09
6.17501e-09
6.17431e-09
6.1736e-09
6.1729e-09
6.1722e-09
6.1715e-09
6.17079e-09
6.17009e-09
6.1694e-09
6.1687e-09
6.168e-09
6.1673e-09
6.16661e-09
6.16591e-09
6.16522e-09
6.16453e-09
6.16383e-09
6.16314e-09
6.16245e-09
6.16176e-09
6.16107e-09
6.16039e-09
6.1597e-09
6.15901e-09
6.15833e-09
6.15764e-09
6.15696e-09
6.15627e-09
6.15559e-09
6.15491e-09
6.15423e-09
6.15355e-09
6.15287e-09
6.15219e-09
6.15151e-09
6.15084e-09
6.15016e-09
6.14948e-09
6.14881e-09
6.14814e-09
6.14746e-09
6.14679e-09
6.14612e-09
6.14545e-09
6.14478e-09
6.14411e-09
6.14344e-09
6.14278e-09
6.14211e-09
6.14145e-09
6.14078e-09
6.14012e-09
6.13945e-09
6.13879e-09
6.13813e-09
6.13747e-09
6.13681e-09
6.13615e-09
6.13549e-09
6.13483e-09
6.13418e-09
6.13352e-09
6.13287e-09
6.13221e-09
6.13156e-09
6.13091e-09
6.13025e-09
6.1296e-09
6.12895e-09
6.1283e-09
6.12765e-09
6.12701e-09
6.12636e-09
6.12571e-09
6.12507e-09
6.12442e-09
6.12378e-09
6.12314e-09
6.12249e-09
6.12185e-09
6.12121e-09
6.12057e-09
6.11993e-09
6.11929e-09
6.11866e-09
6.11802e-09
6.11738e-09
6.11675e-09
6.11611e-09
6.11548e-09
6.11485e-09
6.11421e-09
6.11358e-09
6.11295e-09
6.11232e-09
6.11169e-09
6.11107e-09
6.11044e-09
6.10981e-09
6.10919e-09
6.10856e-09
6.10794e-09
6.10731e-09
6.10669e-09
6.10607e-09
6.10545e-09
6.10483e-09
6.10421e-09
6.10359e-09
6.10297e-09
6.10236e-09
6.10174e-09
6.10112e-09
6.10051e-09
6.0999e-09
6.09928e-09
6.09867e-09
6.09806e-09
6.09745e-09
6.09684e-09
6.09623e-09
6.09562e-09
6.09501e-09
6.09441e-09
6.0938e-09
6.09319e-09
6.09259e-09
6.09199e-09
6.09138e-09
6.09078e-09
6.09018e-09
6.08958e-09
6.08898e-09
6.08838e-09
6.08778e-09
6.08718e-09
6.08659e-09
6.08599e-09
6.0854e-09
6.0848e-09
6.08421e-09
6.08361e-09
6.08302e-09
6.08243e-09
6.08184e-09
6.08125e-09
6.08066e-09
6.08007e-09
6.07949e-09
6.0789e-09
6.07831e-09
6.07773e-09
6.07714e-09
6.07656e-09
6.07598e-09
6.07539e-09
6.07481e-09
6.07423e-09
6.07365e-09
6.07307e-09
6.07249e-09
6.07192e-09
6.07134e-09
6.07076e-09
6.07019e-09
6.06961e-09
6.06904e-09
6.06847e-09
6.0679e-09
6.06732e-09
6.06675e-09
6.06618e-09
6.06562e-09
6.06505e-09
6.06448e-09
6.06391e-09
6.06335e-09
6.06278e-09
6.06222e-09
6.06165e-09
6.06109e-09
6.06053e-09
6.05997e-09
6.0594e-09
6.05884e-09
6.05829e-09
6.05773e-09
6.05717e-09
6.05661e-09
6.05606e-09
6.0555e-09
6.05495e-09
6.05439e-09
6.05384e-09
6.05329e-09
6.05273e-09
6.05218e-09
6.05163e-09
6.05108e-09
6.05053e-09
6.04999e-09
6.04944e-09
6.04889e-09
6.04835e-09
6.0478e-09
6.04726e-09
6.04671e-09
6.04617e-09
6.04563e-09
6.04509e-09
6.04455e-09
6.04401e-09
6.04347e-09
6.04293e-09
6.04239e-09
6.04186e-09
6.04132e-09
6.04078e-09
6.04025e-09
6.03972e-09
6.03918e-09
6.03865e-09
6.03812e-09
6.03759e-09
6.03706e-09
6.03653e-09
6.036e-09
6.03547e-09
6.03494e-09
6.03442e-09
6.03389e-09
6.03337e-09
6.03284e-09
6.03232e-09
6.0318e-09
6.03127e-09
6.03075e-09
6.03023e-09
6.02971e-09
6.02919e-09
6.02867e-09
6.02816e-09
6.02764e-09
6.02712e-09
6.02661e-09
6.02609e-09
6.02558e-09
6.02506e-09
6.02455e-09
6.02404e-09
6.02353e-09
6.02302e-09
6.02251e-09
6.022e-09
6.02149e-09
6.02098e-09
6.02048e-09
6.01997e-09
6.01946e-09
6.01896e-09
6.01846e-09
6.01795e-09
6.01745e-09
6.01695e-09
6.01645e-09
6.01595e-09
6.01545e-09
6.01495e-09
6.01445e-09
6.01395e-09
6.01346e-09
6.01296e-09
6.01246e-09
6.01197e-09
6.01148e-09
6.01098e-09
6.01049e-09
6.01e-09
6.00951e-09
6.00902e-09
6.00853e-09
6.00804e-09
6.00755e-09
6.00706e-09
6.00658e-09
6.00609e-09
6.0056e-09
6.00512e-09
6.00464e-09
6.00415e-09
6.00367e-09
6.00319e-09
6.00271e-09
6.00223e-09
6.00175e-09
6.00127e-09
6.00079e-09
6.00031e-09
5.99983e-09
5.99936e-09
5.99888e-09
5.99841e-09
5.99793e-09
5.99746e-09
5.99699e-09
5.99651e-09
5.99604e-09
5.99557e-09
5.9951e-09
5.99463e-09
5.99416e-09
5.9937e-09
5.99323e-09
5.99276e-09
5.9923e-09
5.99183e-09
5.99137e-09
5.9909e-09
5.99044e-09
5.98998e-09
5.98952e-09
5.98906e-09
5.9886e-09
5.98814e-09
5.98768e-09
5.98722e-09
5.98676e-09
5.9863e-09
5.98585e-09
5.98539e-09
5.98494e-09
5.98448e-09
5.98403e-09
5.98358e-09
5.98313e-09
5.98267e-09
5.98222e-09
5.98177e-09
5.98132e-09
5.98088e-09
5.98043e-09
5.97998e-09
5.97953e-09
5.97909e-09
5.97864e-09
5.9782e-09
5.97775e-09
5.97731e-09
5.97687e-09
5.97643e-09
5.97599e-09
5.97555e-09
5.97511e-09
5.97467e-09
5.97423e-09
5.97379e-09
5.97335e-09
5.97292e-09
5.97248e-09
5.97205e-09
5.97161e-09
5.97118e-09
5.97074e-09
5.97031e-09
5.96988e-09
5.96945e-09
5.96902e-09
5.96859e-09
5.96816e-09
5.96773e-09
5.9673e-09
5.96688e-09
5.96645e-09
5.96602e-09
5.9656e-09
5.96518e-09
5.96475e-09
5.96433e-09
5.96391e-09
5.96348e-09
5.96306e-09
5.96264e-09
5.96222e-09
5.9618e-09
5.96139e-09
5.96097e-09
5.96055e-09
5.96013e-09
5.95972e-09
5.9593e-09
5.95889e-09
5.95848e-09
5.95806e-09
5.95765e-09
5.95724e-09
5.95683e-09
5.95642e-09
5.95601e-09
5.9556e-09
5.95519e-09
5.95478e-09
5.95437e-09
5.95397e-09
5.95356e-09
5.95315e-09
5.95275e-09
5.95235e-09
5.95194e-09
5.95154e-09
5.95114e-09
5.95074e-09
5.95034e-09
5.94994e-09
5.94954e-09
5.94914e-09
5.94874e-09
5.94834e-09
5.94794e-09
5.94755e-09
5.94715e-09
5.94676e-09
5.94636e-09
5.94597e-09
5.94558e-09
5.94518e-09
5.94479e-09
5.9444e-09
5.94401e-09
5.94362e-09
5.94323e-09
5.94284e-09
5.94246e-09
5.94207e-09
5.94168e-09
5.9413e-09
5.94091e-09
5.94053e-09
5.94014e-09
5.93976e-09
5.93937e-09
5.93899e-09
5.93861e-09
5.93823e-09
5.93785e-09
5.93747e-09
5.93709e-09
5.93671e-09
5.93633e-09
5.93596e-09
5.93558e-09
5.93521e-09
5.93483e-09
5.93446e-09
5.93408e-09
5.93371e-09
5.93334e-09
5.93296e-09
5.93259e-09
5.93222e-09
5.93185e-09
5.93148e-09
5.93111e-09
5.93074e-09
5.93038e-09
5.93001e-09
5.92964e-09
5.92928e-09
5.92891e-09
5.92855e-09
5.92818e-09
5.92782e-09
5.92746e-09
5.92709e-09
5.92673e-09
5.92637e-09
5.92601e-09
5.92565e-09
5.92529e-09
5.92493e-09
5.92458e-09
5.92422e-09
5.92386e-09
5.92351e-09
5.92315e-09
5.9228e-09
5.92244e-09
5.92209e-09
5.92174e-09
5.92138e-09
5.92103e-09
5.92068e-09
5.92033e-09
5.91998e-09
5.91963e-09
5.91928e-09
5.91893e-09
5.91859e-09
5.91824e-09
5.91789e-09
5.91755e-09
5.9172e-09
5.91686e-09
5.91652e-09
5.91617e-09
5.91583e-09
5.91549e-09
5.91515e-09
5.91481e-09
5.91446e-09
5.91413e-09
5.91379e-09
5.91345e-09
5.91311e-09
5.91277e-09
5.91244e-09
5.9121e-09
5.91177e-09
5.91143e-09
5.9111e-09
5.91076e-09
5.91043e-09
5.9101e-09
5.90977e-09
5.90943e-09
5.9091e-09
5.90877e-09
5.90844e-09
5.90812e-09
5.90779e-09
5.90746e-09
5.90713e-09
5.90681e-09
5.90648e-09
5.90616e-09
5.90583e-09
5.90551e-09
5.90518e-09
5.90486e-09
5.90454e-09
5.90422e-09
5.9039e-09
5.90357e-09
5.90325e-09
5.90294e-09
5.90262e-09
5.9023e-09
5.90198e-09
5.90166e-09
5.90135e-09
5.90103e-09
5.90072e-09
5.9004e-09
5.90009e-09
5.89977e-09
5.89946e-09
5.89915e-09
5.89884e-09
5.89853e-09
5.89822e-09
5.89791e-09
5.8976e-09
5.89729e-09
5.89698e-09
5.89667e-09
5.89636e-09
5.89606e-09
5.89575e-09
5.89545e-09
5.89514e-09
5.89484e-09
5.89453e-09
5.89423e-09
5.89393e-09
5.89363e-09
5.89332e-09
5.89302e-09
5.89272e-09
5.89242e-09
5.89212e-09
5.89183e-09
5.89153e-09
5.89123e-09
5.89093e-09
5.89064e-09
5.89034e-09
5.89005e-09
5.88975e-09
5.88946e-09
5.88916e-09
5.88887e-09
5.88858e-09
5.88829e-09
5.888e-09
5.88771e-09
5.88742e-09
5.88713e-09
5.88684e-09
5.88655e-09
5.88626e-09
5.88597e-09
5.88569e-09
5.8854e-09
5.88512e-09
5.88483e-09
5.88455e-09
5.88426e-09
5.88398e-09
5.8837e-09
5.88341e-09
5.88313e-09
5.88285e-09
5.88257e-09
5.88229e-09
5.88201e-09
5.88173e-09
5.88146e-09
5.88118e-09
5.8809e-09
5.88062e-09
5.88035e-09
5.88007e-09
5.8798e-09
5.87952e-09
5.87925e-09
5.87898e-09
5.8787e-09
5.87843e-09
5.87816e-09
5.87789e-09
5.87762e-09
5.87735e-09
5.87708e-09
5.87681e-09
5.87654e-09
5.87627e-09
5.876e-09
5.87574e-09
5.87547e-09
5.87521e-09
5.87494e-09
5.87468e-09
5.87441e-09
5.87415e-09
5.87389e-09
5.87362e-09
5.87336e-09
5.8731e-09
5.87284e-09
5.87258e-09
5.87232e-09
5.87206e-09
5.8718e-09
5.87154e-09
5.87128e-09
5.87103e-09
5.87077e-09
5.87052e-09
5.87026e-09
5.87e-09
5.86975e-09
5.8695e-09
5.86924e-09
5.86899e-09
5.86874e-09
5.86849e-09
5.86823e-09
5.86798e-09
5.86773e-09
5.86748e-09
5.86723e-09
5.86699e-09
5.86674e-09
5.86649e-09
5.86624e-09
5.866e-09
5.86575e-09
5.86551e-09
5.86526e-09
5.86502e-09
5.86477e-09
5.86453e-09
5.86429e-09
5.86404e-09
5.8638e-09
5.86356e-09
5.86332e-09
5.86308e-09
5.86284e-09
5.8626e-09
5.86236e-09
5.86212e-09
5.86189e-09
5.86165e-09
5.86141e-09
5.86118e-09
5.86094e-09
5.86071e-09
5.86047e-09
5.86024e-09
5.86e-09
5.85977e-09
5.85954e-09
5.85931e-09
5.85908e-09
5.85885e-09
5.85862e-09
5.85839e-09
5.85816e-09
5.85793e-09
5.8577e-09
5.85748e-09
5.85725e-09
5.85703e-09
5.8568e-09
5.85658e-09
5.85636e-09
5.85613e-09
5.85591e-09
5.85569e-09
5.85547e-09
5.85525e-09
5.85503e-09
5.85482e-09
5.8546e-09
5.85439e-09
5.85417e-09
5.85396e-09
5.85375e-09
5.85354e-09
5.85334e-09
5.85313e-09
5.85292e-09
5.85272e-09
5.85252e-09
5.85232e-09
5.85211e-09
5.85191e-09
5.85171e-09
5.8515e-09
5.85129e-09
5.85108e-09
5.85087e-09
5.85067e-09
5.85049e-09
5.85035e-09
5.85026e-09
5.85029e-09
5.85039e-09
1.74791e-05
3.77218e-06
1.31551e-06
5.86823e-07
3.2461e-07
2.16652e-07
1.67427e-07
1.43281e-07
1.3085e-07
1.24265e-07
1.20732e-07
1.18838e-07
1.17836e-07
1.1732e-07
1.17068e-07
1.16956e-07
1.16917e-07
1.16913e-07
1.16925e-07
1.16943e-07
1.16963e-07
1.16981e-07
1.16998e-07
1.17013e-07
1.17025e-07
1.17036e-07
1.17046e-07
1.17054e-07
1.17062e-07
1.17068e-07
1.17073e-07
1.17078e-07
1.17083e-07
1.17086e-07
1.1709e-07
1.17093e-07
1.17095e-07
1.17098e-07
1.171e-07
1.17102e-07
1.17103e-07
1.17105e-07
1.17106e-07
1.17107e-07
1.17108e-07
1.17109e-07
1.1711e-07
1.1711e-07
1.17111e-07
1.17111e-07
1.17112e-07
1.17112e-07
1.17112e-07
1.17113e-07
1.17113e-07
1.17113e-07
1.17113e-07
1.17113e-07
1.17113e-07
1.17113e-07
1.17113e-07
1.17112e-07
1.17112e-07
1.17112e-07
1.17112e-07
1.17112e-07
1.17111e-07
1.17111e-07
1.1711e-07
1.1711e-07
1.17109e-07
1.17109e-07
1.17108e-07
1.17107e-07
1.17107e-07
1.17106e-07
1.17105e-07
1.17104e-07
1.17103e-07
1.17103e-07
1.17102e-07
1.17101e-07
1.171e-07
1.17099e-07
1.17099e-07
1.17098e-07
1.17097e-07
1.17096e-07
1.17096e-07
1.17095e-07
1.17094e-07
1.17093e-07
1.17093e-07
1.17092e-07
1.17091e-07
1.17091e-07
1.1709e-07
1.17089e-07
1.17089e-07
1.17088e-07
1.17087e-07
1.17087e-07
1.17086e-07
1.17086e-07
1.17085e-07
1.17084e-07
1.17084e-07
1.17083e-07
1.17082e-07
1.17082e-07
1.17081e-07
1.17081e-07
1.1708e-07
1.17079e-07
1.17079e-07
1.17078e-07
1.17077e-07
1.17076e-07
1.17076e-07
1.17075e-07
1.17074e-07
1.17074e-07
1.17073e-07
1.17072e-07
1.17071e-07
1.17071e-07
1.1707e-07
1.17069e-07
1.17069e-07
1.17068e-07
1.17067e-07
1.17067e-07
1.17066e-07
1.17066e-07
1.17065e-07
1.17064e-07
1.17064e-07
1.17063e-07
1.17062e-07
1.17062e-07
1.17061e-07
1.17061e-07
1.1706e-07
1.17059e-07
1.17059e-07
1.17058e-07
1.17057e-07
1.17057e-07
1.17056e-07
1.17056e-07
1.17055e-07
1.17054e-07
1.17054e-07
1.17053e-07
1.17052e-07
1.17052e-07
1.17051e-07
1.17051e-07
1.1705e-07
1.17049e-07
1.17049e-07
1.17048e-07
1.17047e-07
1.17047e-07
1.17046e-07
1.17046e-07
1.17045e-07
1.17044e-07
1.17044e-07
1.17043e-07
1.17043e-07
1.17042e-07
1.17041e-07
1.17041e-07
1.1704e-07
1.1704e-07
1.17039e-07
1.17038e-07
1.17038e-07
1.17037e-07
1.17037e-07
1.17036e-07
1.17035e-07
1.17035e-07
1.17034e-07
1.17034e-07
1.17033e-07
1.17032e-07
1.17032e-07
1.17031e-07
1.17031e-07
1.1703e-07
1.17029e-07
1.17029e-07
1.17028e-07
1.17028e-07
1.17027e-07
1.17026e-07
1.17026e-07
1.17025e-07
1.17025e-07
1.17024e-07
1.17024e-07
1.17023e-07
1.17022e-07
1.17022e-07
1.17021e-07
1.17021e-07
1.1702e-07
1.1702e-07
1.17019e-07
1.17018e-07
1.17018e-07
1.17017e-07
1.17017e-07
1.17016e-07
1.17016e-07
1.17015e-07
1.17014e-07
1.17014e-07
1.17013e-07
1.17013e-07
1.17012e-07
1.17012e-07
1.17011e-07
1.1701e-07
1.1701e-07
1.17009e-07
1.17009e-07
1.17008e-07
1.17008e-07
1.17007e-07
1.17007e-07
1.17006e-07
1.17005e-07
1.17005e-07
1.17004e-07
1.17004e-07
1.17003e-07
1.17003e-07
1.17002e-07
1.17002e-07
1.17001e-07
1.17001e-07
1.17e-07
1.16999e-07
1.16999e-07
1.16998e-07
1.16998e-07
1.16997e-07
1.16997e-07
1.16996e-07
1.16996e-07
1.16995e-07
1.16995e-07
1.16994e-07
1.16994e-07
1.16993e-07
1.16992e-07
1.16992e-07
1.16991e-07
1.16991e-07
1.1699e-07
1.1699e-07
1.16989e-07
1.16989e-07
1.16988e-07
1.16988e-07
1.16987e-07
1.16987e-07
1.16986e-07
1.16986e-07
1.16985e-07
1.16985e-07
1.16984e-07
1.16983e-07
1.16983e-07
1.16982e-07
1.16982e-07
1.16981e-07
1.16981e-07
1.1698e-07
1.1698e-07
1.16979e-07
1.16979e-07
1.16978e-07
1.16978e-07
1.16977e-07
1.16977e-07
1.16976e-07
1.16976e-07
1.16975e-07
1.16975e-07
1.16974e-07
1.16974e-07
1.16973e-07
1.16973e-07
1.16972e-07
1.16972e-07
1.16971e-07
1.16971e-07
1.1697e-07
1.1697e-07
1.16969e-07
1.16969e-07
1.16968e-07
1.16968e-07
1.16967e-07
1.16967e-07
1.16966e-07
1.16966e-07
1.16965e-07
1.16965e-07
1.16964e-07
1.16964e-07
1.16963e-07
1.16963e-07
1.16962e-07
1.16962e-07
1.16961e-07
1.16961e-07
1.1696e-07
1.1696e-07
1.16959e-07
1.16959e-07
1.16958e-07
1.16958e-07
1.16957e-07
1.16957e-07
1.16956e-07
1.16956e-07
1.16955e-07
1.16955e-07
1.16955e-07
1.16954e-07
1.16954e-07
1.16953e-07
1.16953e-07
1.16952e-07
1.16952e-07
1.16951e-07
1.16951e-07
1.1695e-07
1.1695e-07
1.16949e-07
1.16949e-07
1.16948e-07
1.16948e-07
1.16947e-07
1.16947e-07
1.16947e-07
1.16946e-07
1.16946e-07
1.16945e-07
1.16945e-07
1.16944e-07
1.16944e-07
1.16943e-07
1.16943e-07
1.16942e-07
1.16942e-07
1.16941e-07
1.16941e-07
1.16941e-07
1.1694e-07
1.1694e-07
1.16939e-07
1.16939e-07
1.16938e-07
1.16938e-07
1.16937e-07
1.16937e-07
1.16937e-07
1.16936e-07
1.16936e-07
1.16935e-07
1.16935e-07
1.16934e-07
1.16934e-07
1.16933e-07
1.16933e-07
1.16933e-07
1.16932e-07
1.16932e-07
1.16931e-07
1.16931e-07
1.1693e-07
1.1693e-07
1.16929e-07
1.16929e-07
1.16929e-07
1.16928e-07
1.16928e-07
1.16927e-07
1.16927e-07
1.16926e-07
1.16926e-07
1.16926e-07
1.16925e-07
1.16925e-07
1.16924e-07
1.16924e-07
1.16923e-07
1.16923e-07
1.16923e-07
1.16922e-07
1.16922e-07
1.16921e-07
1.16921e-07
1.1692e-07
1.1692e-07
1.1692e-07
1.16919e-07
1.16919e-07
1.16918e-07
1.16918e-07
1.16917e-07
1.16917e-07
1.16917e-07
1.16916e-07
1.16916e-07
1.16915e-07
1.16915e-07
1.16915e-07
1.16914e-07
1.16914e-07
1.16913e-07
1.16913e-07
1.16913e-07
1.16912e-07
1.16912e-07
1.16911e-07
1.16911e-07
1.1691e-07
1.1691e-07
1.1691e-07
1.16909e-07
1.16909e-07
1.16908e-07
1.16908e-07
1.16908e-07
1.16907e-07
1.16907e-07
1.16906e-07
1.16906e-07
1.16906e-07