/*--------------------------------*- C++ -*----------------------------------*\
| =========                 |                                                 |
| \\      /  F ield         | OpenFOAM: The Open Source CFD Toolbox           |
|  \\    /   O peration     | Version:  2512                                  |
|   \\  /    A nd           | Website:  www.openfoam.com                      |
|    \\/     M anipulation  |                                                 |
\*---------------------------------------------------------------------------*/
FoamFile
{
    version     2.0;
    format      ascii;
    arch        "LSB;label=32;scalar=64";
    class       volVectorField;
    location    "0.006";
    object      B;
}
// * * * * * * * * * * * * * * * * * * * * * * * * * * * * * * * * * * * * * //

dimensions      [1 0 -2 0 0 -1 0];

internalField   nonuniform List<vector> 
100000
(
(0.195347 20.0575 0)
(0.191141 20.034 0)
(0.180625 20.0379 0)
(0.170405 20.0346 0)
(0.162038 20.0298 0)
(0.155263 20.0256 0)
(0.149692 20.022 0)
(0.145044 20.0188 0)
(0.141117 20.0161 0)
(0.137764 20.0137 0)
(0.134875 20.0117 0)
(0.132369 20.0099 0)
(0.130184 20.0084 0)
(0.128269 20.0072 0)
(0.126584 20.0062 0)
(0.125096 20.0053 0)
(0.123778 20.0046 0)
(0.122607 20.0039 0)
(0.121562 20.0034 0)
(0.120629 20.003 0)
(0.119791 20.0026 0)
(0.119039 20.0023 0)
(0.11836 20.002 0)
(0.117747 20.0018 0)
(0.117193 20.0016 0)
(0.11669 20.0014 0)
(0.116233 20.0012 0)
(0.115818 20.0011 0)
(0.115439 20.0009 0)
(0.115094 20.0008 0)
(0.114779 20.0007 0)
(0.114491 20.0006 0)
(0.114228 20.0005 0)
(0.113987 20.0004 0)
(0.113766 20.0004 0)
(0.113564 20.0003 0)
(0.113379 20.0003 0)
(0.113209 20.0002 0)
(0.113054 20.0002 0)
(0.112912 20.0001 0)
(0.112782 20.0001 0)
(0.112662 20 0)
(0.112553 20 0)
(0.112454 20 0)
(0.112362 19.9999 0)
(0.112279 19.9999 0)
(0.112203 19.9999 0)
(0.112134 19.9999 0)
(0.112071 19.9998 0)
(0.112014 19.9998 0)
(0.111963 19.9998 0)
(0.111916 19.9998 0)
(0.111874 19.9998 0)
(0.111836 19.9997 0)
(0.111802 19.9997 0)
(0.111771 19.9997 0)
(0.111744 19.9997 0)
(0.11172 19.9997 0)
(0.111699 19.9997 0)
(0.111681 19.9997 0)
(0.111665 19.9997 0)
(0.111652 19.9997 0)
(0.111641 19.9997 0)
(0.111631 19.9996 0)
(0.111624 19.9996 0)
(0.111618 19.9996 0)
(0.111614 19.9996 0)
(0.111611 19.9996 0)
(0.11161 19.9996 0)
(0.11161 19.9996 0)
(0.111611 19.9996 0)
(0.111614 19.9996 0)
(0.111617 19.9996 0)
(0.111622 19.9996 0)
(0.111627 19.9996 0)
(0.111633 19.9996 0)
(0.11164 19.9996 0)
(0.111648 19.9996 0)
(0.111657 19.9996 0)
(0.111666 19.9996 0)
(0.111676 19.9996 0)
(0.111687 19.9996 0)
(0.111698 19.9996 0)
(0.111709 19.9996 0)
(0.111721 19.9996 0)
(0.111733 19.9996 0)
(0.111745 19.9996 0)
(0.111758 19.9996 0)
(0.111771 19.9996 0)
(0.111785 19.9996 0)
(0.111799 19.9996 0)
(0.111812 19.9996 0)
(0.111827 19.9996 0)
(0.111841 19.9996 0)
(0.111855 19.9996 0)
(0.11187 19.9996 0)
(0.111885 19.9996 0)
(0.1119 19.9996 0)
(0.111915 19.9996 0)
(0.11193 19.9996 0)
(0.111945 19.9996 0)
(0.111961 19.9996 0)
(0.111976 19.9996 0)
(0.111992 19.9996 0)
(0.112008 19.9996 0)
(0.112023 19.9996 0)
(0.112039 19.9996 0)
(0.112055 19.9996 0)
(0.112071 19.9996 0)
(0.112088 19.9996 0)
(0.112104 19.9996 0)
(0.11212 19.9996 0)
(0.112136 19.9996 0)
(0.112153 19.9996 0)
(0.112169 19.9996 0)
(0.112186 19.9996 0)
(0.112202 19.9996 0)
(0.112219 19.9996 0)
(0.112235 19.9996 0)
(0.112252 19.9996 0)
(0.112269 19.9996 0)
(0.112286 19.9996 0)
(0.112302 19.9996 0)
(0.112319 19.9996 0)
(0.112336 19.9996 0)
(0.112353 19.9996 0)
(0.112369 19.9996 0)
(0.112386 19.9996 0)
(0.112403 19.9996 0)
(0.11242 19.9996 0)
(0.112437 19.9996 0)
(0.112453 19.9996 0)
(0.11247 19.9996 0)
(0.112487 19.9996 0)
(0.112504 19.9996 0)
(0.112521 19.9996 0)
(0.112538 19.9996 0)
(0.112554 19.9996 0)
(0.112571 19.9996 0)
(0.112588 19.9996 0)
(0.112605 19.9996 0)
(0.112622 19.9996 0)
(0.112639 19.9996 0)
(0.112656 19.9996 0)
(0.112672 19.9996 0)
(0.112689 19.9996 0)
(0.112706 19.9996 0)
(0.112723 19.9996 0)
(0.11274 19.9996 0)
(0.112757 19.9996 0)
(0.112774 19.9996 0)
(0.112791 19.9996 0)
(0.112808 19.9996 0)
(0.112825 19.9996 0)
(0.112842 19.9996 0)
(0.112859 19.9996 0)
(0.112876 19.9996 0)
(0.112893 19.9996 0)
(0.112911 19.9996 0)
(0.112928 19.9996 0)
(0.112945 19.9996 0)
(0.112962 19.9996 0)
(0.112979 19.9996 0)
(0.112996 19.9996 0)
(0.113013 19.9996 0)
(0.11303 19.9996 0)
(0.113047 19.9996 0)
(0.113064 19.9996 0)
(0.113081 19.9996 0)
(0.113098 19.9996 0)
(0.113116 19.9996 0)
(0.113133 19.9996 0)
(0.11315 19.9996 0)
(0.113167 19.9996 0)
(0.113184 19.9996 0)
(0.113201 19.9996 0)
(0.113218 19.9996 0)
(0.113235 19.9996 0)
(0.113252 19.9996 0)
(0.113269 19.9996 0)
(0.113287 19.9996 0)
(0.113304 19.9996 0)
(0.113321 19.9996 0)
(0.113338 19.9996 0)
(0.113355 19.9996 0)
(0.113372 19.9996 0)
(0.113389 19.9996 0)
(0.113406 19.9996 0)
(0.113424 19.9996 0)
(0.113441 19.9996 0)
(0.113458 19.9996 0)
(0.113475 19.9996 0)
(0.113492 19.9996 0)
(0.113509 19.9996 0)
(0.113527 19.9996 0)
(0.113544 19.9996 0)
(0.113561 19.9996 0)
(0.113578 19.9996 0)
(0.113596 19.9996 0)
(0.113613 19.9996 0)
(0.11363 19.9996 0)
(0.113647 19.9996 0)
(0.113664 19.9996 0)
(0.113682 19.9996 0)
(0.113699 19.9996 0)
(0.113716 19.9996 0)
(0.113733 19.9996 0)
(0.113751 19.9996 0)
(0.113768 19.9996 0)
(0.113785 19.9996 0)
(0.113803 19.9996 0)
(0.11382 19.9996 0)
(0.113837 19.9996 0)
(0.113854 19.9996 0)
(0.113872 19.9996 0)
(0.113889 19.9996 0)
(0.113906 19.9996 0)
(0.113924 19.9996 0)
(0.113941 19.9996 0)
(0.113958 19.9996 0)
(0.113976 19.9996 0)
(0.113993 19.9996 0)
(0.11401 19.9996 0)
(0.114027 19.9996 0)
(0.114045 19.9996 0)
(0.114062 19.9996 0)
(0.114079 19.9996 0)
(0.114097 19.9996 0)
(0.114114 19.9996 0)
(0.114131 19.9996 0)
(0.114149 19.9996 0)
(0.114166 19.9996 0)
(0.114184 19.9996 0)
(0.114201 19.9996 0)
(0.114218 19.9996 0)
(0.114236 19.9996 0)
(0.114253 19.9996 0)
(0.11427 19.9996 0)
(0.114288 19.9996 0)
(0.114305 19.9996 0)
(0.114323 19.9996 0)
(0.11434 19.9996 0)
(0.114357 19.9996 0)
(0.114375 19.9996 0)
(0.114392 19.9996 0)
(0.11441 19.9996 0)
(0.114427 19.9996 0)
(0.114444 19.9996 0)
(0.114462 19.9996 0)
(0.114479 19.9996 0)
(0.114497 19.9996 0)
(0.114514 19.9996 0)
(0.114532 19.9996 0)
(0.114549 19.9996 0)
(0.114567 19.9996 0)
(0.114584 19.9996 0)
(0.114602 19.9996 0)
(0.114619 19.9996 0)
(0.114637 19.9996 0)
(0.114654 19.9996 0)
(0.114672 19.9996 0)
(0.114689 19.9996 0)
(0.114707 19.9996 0)
(0.114724 19.9996 0)
(0.114742 19.9996 0)
(0.114759 19.9996 0)
(0.114777 19.9996 0)
(0.114794 19.9996 0)
(0.114812 19.9996 0)
(0.11483 19.9996 0)
(0.114847 19.9996 0)
(0.114865 19.9996 0)
(0.114882 19.9996 0)
(0.1149 19.9996 0)
(0.114917 19.9996 0)
(0.114935 19.9996 0)
(0.114953 19.9996 0)
(0.11497 19.9996 0)
(0.114988 19.9996 0)
(0.115005 19.9996 0)
(0.115023 19.9996 0)
(0.115041 19.9996 0)
(0.115058 19.9996 0)
(0.115076 19.9996 0)
(0.115093 19.9996 0)
(0.115111 19.9996 0)
(0.115129 19.9996 0)
(0.115146 19.9996 0)
(0.115164 19.9996 0)
(0.115182 19.9996 0)
(0.115199 19.9996 0)
(0.115217 19.9996 0)
(0.115235 19.9996 0)
(0.115252 19.9996 0)
(0.11527 19.9996 0)
(0.115288 19.9996 0)
(0.115305 19.9996 0)
(0.115323 19.9996 0)
(0.115341 19.9996 0)
(0.115358 19.9996 0)
(0.115376 19.9996 0)
(0.115394 19.9996 0)
(0.115411 19.9996 0)
(0.115429 19.9996 0)
(0.115447 19.9996 0)
(0.115465 19.9996 0)
(0.115482 19.9996 0)
(0.1155 19.9996 0)
(0.115518 19.9996 0)
(0.115536 19.9996 0)
(0.115553 19.9996 0)
(0.115571 19.9996 0)
(0.115589 19.9996 0)
(0.115607 19.9996 0)
(0.115624 19.9996 0)
(0.115642 19.9996 0)
(0.11566 19.9996 0)
(0.115678 19.9996 0)
(0.115695 19.9996 0)
(0.115713 19.9996 0)
(0.115731 19.9996 0)
(0.115749 19.9996 0)
(0.115767 19.9996 0)
(0.115784 19.9996 0)
(0.115802 19.9996 0)
(0.11582 19.9996 0)
(0.115838 19.9996 0)
(0.115856 19.9996 0)
(0.115873 19.9996 0)
(0.115891 19.9996 0)
(0.115909 19.9996 0)
(0.115927 19.9996 0)
(0.115945 19.9996 0)
(0.115963 19.9996 0)
(0.11598 19.9996 0)
(0.115998 19.9996 0)
(0.116016 19.9996 0)
(0.116034 19.9996 0)
(0.116052 19.9996 0)
(0.11607 19.9996 0)
(0.116088 19.9996 0)
(0.116105 19.9996 0)
(0.116123 19.9996 0)
(0.116141 19.9996 0)
(0.116159 19.9996 0)
(0.116177 19.9996 0)
(0.116195 19.9996 0)
(0.116213 19.9996 0)
(0.116231 19.9996 0)
(0.116249 19.9996 0)
(0.116267 19.9996 0)
(0.116285 19.9996 0)
(0.116302 19.9996 0)
(0.11632 19.9996 0)
(0.116338 19.9996 0)
(0.116356 19.9996 0)
(0.116374 19.9996 0)
(0.116392 19.9996 0)
(0.11641 19.9996 0)
(0.116428 19.9996 0)
(0.116446 19.9996 0)
(0.116464 19.9996 0)
(0.116482 19.9996 0)
(0.1165 19.9996 0)
(0.116518 19.9996 0)
(0.116536 19.9996 0)
(0.116554 19.9996 0)
(0.116572 19.9996 0)
(0.11659 19.9996 0)
(0.116608 19.9996 0)
(0.116626 19.9996 0)
(0.116644 19.9996 0)
(0.116662 19.9996 0)
(0.11668 19.9996 0)
(0.116698 19.9996 0)
(0.116716 19.9996 0)
(0.116734 19.9996 0)
(0.116752 19.9996 0)
(0.11677 19.9996 0)
(0.116788 19.9996 0)
(0.116806 19.9996 0)
(0.116824 19.9996 0)
(0.116843 19.9996 0)
(0.116861 19.9996 0)
(0.116879 19.9996 0)
(0.116897 19.9996 0)
(0.116915 19.9996 0)
(0.116933 19.9996 0)
(0.116951 19.9996 0)
(0.116969 19.9996 0)
(0.116987 19.9996 0)
(0.117005 19.9996 0)
(0.117024 19.9996 0)
(0.117042 19.9996 0)
(0.11706 19.9996 0)
(0.117078 19.9996 0)
(0.117096 19.9996 0)
(0.117114 19.9996 0)
(0.117132 19.9996 0)
(0.117151 19.9996 0)
(0.117169 19.9996 0)
(0.117187 19.9996 0)
(0.117205 19.9996 0)
(0.117223 19.9996 0)
(0.117241 19.9996 0)
(0.11726 19.9996 0)
(0.117278 19.9996 0)
(0.117296 19.9996 0)
(0.117314 19.9996 0)
(0.117332 19.9996 0)
(0.117351 19.9996 0)
(0.117369 19.9996 0)
(0.117387 19.9996 0)
(0.117405 19.9996 0)
(0.117423 19.9996 0)
(0.117442 19.9996 0)
(0.11746 19.9996 0)
(0.117478 19.9996 0)
(0.117496 19.9996 0)
(0.117515 19.9996 0)
(0.117533 19.9996 0)
(0.117551 19.9996 0)
(0.117569 19.9996 0)
(0.117588 19.9996 0)
(0.117606 19.9996 0)
(0.117624 19.9996 0)
(0.117643 19.9996 0)
(0.117661 19.9996 0)
(0.117679 19.9996 0)
(0.117698 19.9996 0)
(0.117716 19.9996 0)
(0.117734 19.9996 0)
(0.117752 19.9996 0)
(0.117771 19.9996 0)
(0.117789 19.9996 0)
(0.117807 19.9996 0)
(0.117826 19.9996 0)
(0.117844 19.9996 0)
(0.117862 19.9996 0)
(0.117881 19.9996 0)
(0.117899 19.9996 0)
(0.117918 19.9996 0)
(0.117936 19.9996 0)
(0.117954 19.9996 0)
(0.117973 19.9996 0)
(0.117991 19.9996 0)
(0.118009 19.9996 0)
(0.118028 19.9996 0)
(0.118046 19.9996 0)
(0.118065 19.9996 0)
(0.118083 19.9996 0)
(0.118101 19.9996 0)
(0.11812 19.9996 0)
(0.118138 19.9996 0)
(0.118157 19.9996 0)
(0.118175 19.9996 0)
(0.118194 19.9996 0)
(0.118212 19.9996 0)
(0.118231 19.9996 0)
(0.118249 19.9996 0)
(0.118267 19.9996 0)
(0.118286 19.9996 0)
(0.118304 19.9996 0)
(0.118323 19.9996 0)
(0.118341 19.9996 0)
(0.11836 19.9996 0)
(0.118378 19.9996 0)
(0.118397 19.9996 0)
(0.118415 19.9996 0)
(0.118434 19.9996 0)
(0.118452 19.9996 0)
(0.118471 19.9996 0)
(0.118489 19.9996 0)
(0.118508 19.9996 0)
(0.118526 19.9996 0)
(0.118545 19.9996 0)
(0.118564 19.9996 0)
(0.118582 19.9996 0)
(0.118601 19.9996 0)
(0.118619 19.9996 0)
(0.118638 19.9996 0)
(0.118656 19.9996 0)
(0.118675 19.9996 0)
(0.118694 19.9996 0)
(0.118712 19.9996 0)
(0.118731 19.9996 0)
(0.118749 19.9996 0)
(0.118768 19.9996 0)
(0.118787 19.9996 0)
(0.118805 19.9996 0)
(0.118824 19.9996 0)
(0.118842 19.9996 0)
(0.118861 19.9996 0)
(0.11888 19.9996 0)
(0.118898 19.9996 0)
(0.118917 19.9996 0)
(0.118936 19.9996 0)
(0.118954 19.9996 0)
(0.118973 19.9996 0)
(0.118992 19.9996 0)
(0.11901 19.9996 0)
(0.119029 19.9996 0)
(0.119048 19.9996 0)
(0.119066 19.9996 0)
(0.119085 19.9996 0)
(0.119104 19.9996 0)
(0.119122 19.9996 0)
(0.119141 19.9996 0)
(0.11916 19.9996 0)
(0.119178 19.9996 0)
(0.119197 19.9996 0)
(0.119216 19.9996 0)
(0.119235 19.9996 0)
(0.119253 19.9996 0)
(0.119272 19.9996 0)
(0.119291 19.9996 0)
(0.11931 19.9996 0)
(0.119328 19.9996 0)
(0.119347 19.9996 0)
(0.119366 19.9996 0)
(0.119385 19.9996 0)
(0.119403 19.9996 0)
(0.119422 19.9996 0)
(0.119441 19.9996 0)
(0.11946 19.9996 0)
(0.119479 19.9996 0)
(0.119497 19.9996 0)
(0.119516 19.9996 0)
(0.119535 19.9996 0)
(0.119554 19.9996 0)
(0.119573 19.9996 0)
(0.119591 19.9996 0)
(0.11961 19.9996 0)
(0.119629 19.9996 0)
(0.119648 19.9996 0)
(0.119667 19.9996 0)
(0.119686 19.9996 0)
(0.119705 19.9996 0)
(0.119723 19.9996 0)
(0.119742 19.9996 0)
(0.119761 19.9996 0)
(0.11978 19.9996 0)
(0.119799 19.9996 0)
(0.119818 19.9996 0)
(0.119837 19.9996 0)
(0.119856 19.9996 0)
(0.119875 19.9996 0)
(0.119893 19.9996 0)
(0.119912 19.9996 0)
(0.119931 19.9996 0)
(0.11995 19.9996 0)
(0.119969 19.9996 0)
(0.119988 19.9996 0)
(0.120007 19.9996 0)
(0.120026 19.9996 0)
(0.120045 19.9996 0)
(0.120064 19.9996 0)
(0.120083 19.9996 0)
(0.120102 19.9996 0)
(0.120121 19.9996 0)
(0.12014 19.9996 0)
(0.120159 19.9996 0)
(0.120178 19.9996 0)
(0.120197 19.9996 0)
(0.120216 19.9996 0)
(0.120235 19.9996 0)
(0.120254 19.9996 0)
(0.120273 19.9996 0)
(0.120292 19.9996 0)
(0.120311 19.9996 0)
(0.12033 19.9996 0)
(0.120349 19.9996 0)
(0.120368 19.9996 0)
(0.120387 19.9996 0)
(0.120406 19.9996 0)
(0.120425 19.9996 0)
(0.120444 19.9996 0)
(0.120463 19.9996 0)
(0.120482 19.9996 0)
(0.120501 19.9996 0)
(0.12052 19.9996 0)
(0.120539 19.9996 0)
(0.120559 19.9996 0)
(0.120578 19.9996 0)
(0.120597 19.9996 0)
(0.120616 19.9996 0)
(0.120635 19.9996 0)
(0.120654 19.9996 0)
(0.120673 19.9996 0)
(0.120692 19.9996 0)
(0.120711 19.9996 0)
(0.120731 19.9996 0)
(0.12075 19.9996 0)
(0.120769 19.9996 0)
(0.120788 19.9996 0)
(0.120807 19.9996 0)
(0.120826 19.9996 0)
(0.120845 19.9996 0)
(0.120865 19.9996 0)
(0.120884 19.9996 0)
(0.120903 19.9996 0)
(0.120922 19.9996 0)
(0.120941 19.9996 0)
(0.120961 19.9996 0)
(0.12098 19.9996 0)
(0.120999 19.9996 0)
(0.121018 19.9996 0)
(0.121037 19.9996 0)
(0.121057 19.9996 0)
(0.121076 19.9996 0)
(0.121095 19.9996 0)
(0.121114 19.9996 0)
(0.121133 19.9996 0)
(0.121153 19.9996 0)
(0.121172 19.9996 0)
(0.121191 19.9996 0)
(0.12121 19.9996 0)
(0.12123 19.9996 0)
(0.121249 19.9996 0)
(0.121268 19.9996 0)
(0.121288 19.9996 0)
(0.121307 19.9996 0)
(0.121326 19.9996 0)
(0.121345 19.9996 0)
(0.121365 19.9996 0)
(0.121384 19.9996 0)
(0.121403 19.9996 0)
(0.121423 19.9996 0)
(0.121442 19.9996 0)
(0.121461 19.9996 0)
(0.121481 19.9996 0)
(0.1215 19.9996 0)
(0.121519 19.9996 0)
(0.121539 19.9996 0)
(0.121558 19.9996 0)
(0.121577 19.9996 0)
(0.121597 19.9996 0)
(0.121616 19.9996 0)
(0.121635 19.9996 0)
(0.121655 19.9996 0)
(0.121674 19.9996 0)
(0.121693 19.9996 0)
(0.121713 19.9996 0)
(0.121732 19.9996 0)
(0.121752 19.9996 0)
(0.121771 19.9996 0)
(0.12179 19.9996 0)
(0.12181 19.9996 0)
(0.121829 19.9996 0)
(0.121849 19.9996 0)
(0.121868 19.9996 0)
(0.121888 19.9996 0)
(0.121907 19.9996 0)
(0.121926 19.9996 0)
(0.121946 19.9996 0)
(0.121965 19.9996 0)
(0.121985 19.9996 0)
(0.122004 19.9996 0)
(0.122024 19.9996 0)
(0.122043 19.9996 0)
(0.122063 19.9996 0)
(0.122082 19.9996 0)
(0.122102 19.9996 0)
(0.122121 19.9996 0)
(0.12214 19.9996 0)
(0.12216 19.9996 0)
(0.122179 19.9996 0)
(0.122199 19.9996 0)
(0.122218 19.9996 0)
(0.122238 19.9996 0)
(0.122257 19.9996 0)
(0.122277 19.9996 0)
(0.122297 19.9996 0)
(0.122316 19.9996 0)
(0.122336 19.9996 0)
(0.122355 19.9996 0)
(0.122375 19.9996 0)
(0.122394 19.9996 0)
(0.122414 19.9996 0)
(0.122433 19.9996 0)
(0.122453 19.9996 0)
(0.122472 19.9996 0)
(0.122492 19.9996 0)
(0.122512 19.9996 0)
(0.122531 19.9996 0)
(0.122551 19.9996 0)
(0.12257 19.9996 0)
(0.12259 19.9996 0)
(0.122609 19.9996 0)
(0.122629 19.9996 0)
(0.122649 19.9996 0)
(0.122668 19.9996 0)
(0.122688 19.9996 0)
(0.122708 19.9996 0)
(0.122727 19.9996 0)
(0.122747 19.9996 0)
(0.122766 19.9996 0)
(0.122786 19.9996 0)
(0.122806 19.9996 0)
(0.122825 19.9996 0)
(0.122845 19.9996 0)
(0.122865 19.9996 0)
(0.122884 19.9996 0)
(0.122904 19.9996 0)
(0.122924 19.9996 0)
(0.122943 19.9996 0)
(0.122963 19.9996 0)
(0.122983 19.9996 0)
(0.123002 19.9996 0)
(0.123022 19.9996 0)
(0.123042 19.9996 0)
(0.123061 19.9996 0)
(0.123081 19.9996 0)
(0.123101 19.9996 0)
(0.12312 19.9996 0)
(0.12314 19.9996 0)
(0.12316 19.9996 0)
(0.12318 19.9996 0)
(0.123199 19.9996 0)
(0.123219 19.9996 0)
(0.123239 19.9996 0)
(0.123258 19.9996 0)
(0.123278 19.9996 0)
(0.123298 19.9996 0)
(0.123318 19.9996 0)
(0.123337 19.9996 0)
(0.123357 19.9996 0)
(0.123377 19.9996 0)
(0.123397 19.9996 0)
(0.123416 19.9996 0)
(0.123436 19.9996 0)
(0.123456 19.9996 0)
(0.123476 19.9996 0)
(0.123496 19.9996 0)
(0.123515 19.9996 0)
(0.123535 19.9996 0)
(0.123555 19.9996 0)
(0.123575 19.9996 0)
(0.123595 19.9996 0)
(0.123614 19.9996 0)
(0.123634 19.9996 0)
(0.123654 19.9996 0)
(0.123674 19.9996 0)
(0.123694 19.9996 0)
(0.123713 19.9996 0)
(0.123733 19.9996 0)
(0.123753 19.9996 0)
(0.123773 19.9996 0)
(0.123793 19.9996 0)
(0.123813 19.9996 0)
(0.123832 19.9996 0)
(0.123852 19.9996 0)
(0.123872 19.9996 0)
(0.123892 19.9996 0)
(0.123912 19.9996 0)
(0.123932 19.9996 0)
(0.123952 19.9996 0)
(0.123972 19.9996 0)
(0.123991 19.9996 0)
(0.124011 19.9996 0)
(0.124031 19.9996 0)
(0.124051 19.9996 0)
(0.124071 19.9996 0)
(0.124091 19.9996 0)
(0.124111 19.9996 0)
(0.124131 19.9996 0)
(0.124151 19.9996 0)
(0.124171 19.9996 0)
(0.12419 19.9996 0)
(0.12421 19.9996 0)
(0.12423 19.9996 0)
(0.12425 19.9996 0)
(0.12427 19.9996 0)
(0.12429 19.9996 0)
(0.12431 19.9996 0)
(0.12433 19.9996 0)
(0.12435 19.9996 0)
(0.12437 19.9996 0)
(0.12439 19.9996 0)
(0.12441 19.9996 0)
(0.12443 19.9996 0)
(0.12445 19.9996 0)
(0.12447 19.9996 0)
(0.12449 19.9996 0)
(0.12451 19.9996 0)
(0.12453 19.9996 0)
(0.12455 19.9996 0)
(0.12457 19.9996 0)
(0.12459 19.9996 0)
(0.124609 19.9996 0)
(0.124629 19.9996 0)
(0.124649 19.9996 0)
(0.124669 19.9996 0)
(0.124689 19.9996 0)
(0.124709 19.9996 0)
(0.12473 19.9996 0)
(0.12475 19.9996 0)
(0.12477 19.9996 0)
(0.12479 19.9996 0)
(0.12481 19.9996 0)
(0.12483 19.9996 0)
(0.12485 19.9996 0)
(0.12487 19.9996 0)
(0.12489 19.9996 0)
(0.12491 19.9996 0)
(0.12493 19.9996 0)
(0.12495 19.9996 0)
(0.12497 19.9996 0)
(0.12499 19.9996 0)
(0.12501 19.9996 0)
(0.12503 19.9996 0)
(0.12505 19.9996 0)
(0.12507 19.9996 0)
(0.12509 19.9996 0)
(0.12511 19.9996 0)
(0.12513 19.9996 0)
(0.12515 19.9996 0)
(0.125171 19.9996 0)
(0.125191 19.9996 0)
(0.125211 19.9996 0)
(0.125231 19.9996 0)
(0.125251 19.9996 0)
(0.125271 19.9996 0)
(0.125291 19.9996 0)
(0.125311 19.9996 0)
(0.125331 19.9996 0)
(0.125351 19.9996 0)
(0.125372 19.9996 0)
(0.125392 19.9996 0)
(0.125412 19.9996 0)
(0.125432 19.9996 0)
(0.125452 19.9996 0)
(0.125472 19.9996 0)
(0.125492 19.9996 0)
(0.125512 19.9996 0)
(0.125533 19.9996 0)
(0.125553 19.9996 0)
(0.125573 19.9996 0)
(0.125593 19.9996 0)
(0.125613 19.9996 0)
(0.125633 19.9996 0)
(0.125653 19.9996 0)
(0.125674 19.9996 0)
(0.125694 19.9996 0)
(0.125714 19.9996 0)
(0.125734 19.9996 0)
(0.125754 19.9996 0)
(0.125774 19.9996 0)
(0.125795 19.9996 0)
(0.125815 19.9996 0)
(0.125835 19.9996 0)
(0.125855 19.9996 0)
(0.125875 19.9996 0)
(0.125895 19.9996 0)
(0.125916 19.9996 0)
(0.125936 19.9996 0)
(0.125956 19.9996 0)
(0.125976 19.9996 0)
(0.125996 19.9996 0)
(0.126017 19.9996 0)
(0.126037 19.9996 0)
(0.126057 19.9996 0)
(0.126077 19.9996 0)
(0.126097 19.9996 0)
(0.126118 19.9996 0)
(0.126138 19.9996 0)
(0.126158 19.9996 0)
(0.126178 19.9996 0)
(0.126198 19.9996 0)
(0.126219 19.9996 0)
(0.126239 19.9996 0)
(0.126259 19.9996 0)
(0.126279 19.9996 0)
(0.1263 19.9996 0)
(0.12632 19.9996 0)
(0.12634 19.9996 0)
(0.12636 19.9996 0)
(0.126381 19.9996 0)
(0.126401 19.9996 0)
(0.126421 19.9996 0)
(0.126441 19.9996 0)
(0.126462 19.9996 0)
(0.126482 19.9996 0)
(0.126502 19.9996 0)
(0.126522 19.9996 0)
(0.126543 19.9996 0)
(0.126563 19.9996 0)
(0.126583 19.9996 0)
(0.126603 19.9996 0)
(0.126624 19.9996 0)
(0.126644 19.9996 0)
(0.126664 19.9996 0)
(0.126685 19.9996 0)
(0.126705 19.9996 0)
(0.126725 19.9996 0)
(0.126745 19.9996 0)
(0.126766 19.9996 0)
(0.126786 19.9996 0)
(0.126806 19.9996 0)
(0.126827 19.9996 0)
(0.126847 19.9996 0)
(0.126867 19.9996 0)
(0.126888 19.9996 0)
(0.126908 19.9996 0)
(0.126928 19.9996 0)
(0.126949 19.9996 0)
(0.126969 19.9996 0)
(0.126989 19.9996 0)
(0.12701 19.9996 0)
(0.12703 19.9996 0)
(0.12705 19.9996 0)
(0.127071 19.9996 0)
(0.127091 19.9996 0)
(0.127111 19.9996 0)
(0.127132 19.9996 0)
(0.127152 19.9996 0)
(0.127173 19.9996 0)
(0.127193 19.9996 0)
(0.127213 19.9996 0)
(0.127234 19.9996 0)
(0.127254 19.9996 0)
(0.127275 19.9996 0)
(0.127295 19.9996 0)
(0.127315 19.9996 0)
(0.127336 19.9996 0)
(0.127356 19.9996 0)
(0.127377 19.9996 0)
(0.127397 19.9996 0)
(0.127418 19.9996 0)
(0.127438 19.9996 0)
(0.127459 19.9996 0)
(0.127479 19.9996 0)
(0.1275 19.9996 0)
(0.12752 19.9996 0)
(0.127541 19.9996 0)
(0.127562 19.9996 0)
(0.127582 19.9996 0)
(0.127603 19.9996 0)
(0.127624 19.9996 0)
(0.127644 19.9996 0)
(0.127665 19.9996 0)
(0.127686 19.9996 0)
(0.127707 19.9996 0)
(0.127727 19.9996 0)
(0.127748 19.9996 0)
(0.127769 19.9996 0)
(0.12779 19.9996 0)
(0.127811 19.9996 0)
(0.127832 19.9996 0)
(0.127853 19.9996 0)
(0.127874 19.9996 0)
(0.127895 19.9996 0)
(0.127917 19.9996 0)
(0.127938 19.9996 0)
(0.127959 19.9996 0)
(0.127981 19.9996 0)
(0.128002 19.9996 0)
(0.128024 19.9996 0)
(0.128046 19.9996 0)
(0.128067 19.9996 0)
(0.128089 19.9996 0)
(0.128111 19.9996 0)
(0.128133 19.9996 0)
(0.128156 19.9996 0)
(0.128178 19.9996 0)
(0.128201 19.9996 0)
(0.128224 19.9996 0)
(0.128247 19.9996 0)
(0.12827 19.9996 0)
(0.128293 19.9996 0)
(0.128317 19.9996 0)
(0.128341 19.9996 0)
(0.128365 19.9996 0)
(0.128389 19.9996 0)
(0.128414 19.9995 0)
(0.128439 19.9995 0)
(0.128465 19.9995 0)
(0.128491 19.9995 0)
(0.128517 19.9995 0)
(0.128544 19.9995 0)
(0.128572 19.9995 0)
(0.1286 19.9995 0)
(0.128629 19.9995 0)
(0.128659 19.9995 0)
(0.128689 19.9995 0)
(0.128721 19.9995 0)
(0.128754 19.9995 0)
(0.128788 19.9995 0)
(0.128824 19.9995 0)
(0.128861 19.9995 0)
(0.128901 19.9995 0)
(0.128943 19.9995 0)
(0.128987 19.9995 0)
(0.129035 19.9995 0)
(0.129087 19.9995 0)
(0.129142 19.9995 0)
(0.129199 19.9994 0)
(0.129258 19.9994 0)
(0.129315 19.9994 0)
(0.129358 19.9994 0)
(0.241007 20.0387 0)
(0.255049 20.0434 0)
(0.272276 20.0608 0)
(0.284697 20.0678 0)
(0.291673 20.067 0)
(0.29464 20.0626 0)
(0.294978 20.0565 0)
(0.293687 20.05 0)
(0.291447 20.0437 0)
(0.288704 20.0378 0)
(0.285747 20.0325 0)
(0.282758 20.0279 0)
(0.279852 20.0239 0)
(0.277094 20.0205 0)
(0.274519 20.0176 0)
(0.272144 20.0151 0)
(0.26997 20.0131 0)
(0.26799 20.0113 0)
(0.266194 20.0099 0)
(0.264566 20.0086 0)
(0.263094 20.0075 0)
(0.261763 20.0066 0)
(0.26056 20.0058 0)
(0.259471 20.0051 0)
(0.258485 20.0045 0)
(0.257592 20.004 0)
(0.256784 20.0035 0)
(0.256051 20.0031 0)
(0.255386 20.0027 0)
(0.254784 20.0024 0)
(0.254237 20.0021 0)
(0.253742 20.0018 0)
(0.253293 20.0015 0)
(0.252886 20.0013 0)
(0.252518 20.0011 0)
(0.252186 20.0009 0)
(0.251885 20.0008 0)
(0.251614 20.0006 0)
(0.25137 20.0005 0)
(0.251151 20.0003 0)
(0.250955 20.0002 0)
(0.25078 20.0001 0)
(0.250624 20 0)
(0.250487 19.9999 0)
(0.250365 19.9998 0)
(0.250259 19.9997 0)
(0.250167 19.9997 0)
(0.250088 19.9996 0)
(0.250021 19.9995 0)
(0.249965 19.9995 0)
(0.249919 19.9994 0)
(0.249883 19.9994 0)
(0.249856 19.9993 0)
(0.249836 19.9993 0)
(0.249825 19.9992 0)
(0.24982 19.9992 0)
(0.249822 19.9992 0)
(0.249829 19.9991 0)
(0.249842 19.9991 0)
(0.249861 19.9991 0)
(0.249884 19.9991 0)
(0.249911 19.999 0)
(0.249943 19.999 0)
(0.249979 19.999 0)
(0.250017 19.999 0)
(0.25006 19.999 0)
(0.250105 19.9989 0)
(0.250153 19.9989 0)
(0.250204 19.9989 0)
(0.250258 19.9989 0)
(0.250314 19.9989 0)
(0.250372 19.9989 0)
(0.250433 19.9989 0)
(0.250495 19.9989 0)
(0.25056 19.9989 0)
(0.250627 19.9989 0)
(0.250695 19.9989 0)
(0.250766 19.9989 0)
(0.250838 19.9989 0)
(0.250911 19.9989 0)
(0.250986 19.9989 0)
(0.251062 19.9989 0)
(0.251139 19.9989 0)
(0.251218 19.9988 0)
(0.251297 19.9988 0)
(0.251377 19.9988 0)
(0.251458 19.9988 0)
(0.25154 19.9988 0)
(0.251622 19.9988 0)
(0.251705 19.9988 0)
(0.251788 19.9988 0)
(0.251872 19.9988 0)
(0.251956 19.9988 0)
(0.252041 19.9988 0)
(0.252126 19.9988 0)
(0.252211 19.9988 0)
(0.252297 19.9988 0)
(0.252383 19.9988 0)
(0.252469 19.9988 0)
(0.252556 19.9988 0)
(0.252642 19.9988 0)
(0.252729 19.9988 0)
(0.252816 19.9988 0)
(0.252903 19.9988 0)
(0.252991 19.9988 0)
(0.253078 19.9988 0)
(0.253166 19.9988 0)
(0.253253 19.9988 0)
(0.253341 19.9988 0)
(0.253429 19.9988 0)
(0.253517 19.9988 0)
(0.253605 19.9988 0)
(0.253694 19.9988 0)
(0.253782 19.9988 0)
(0.253871 19.9988 0)
(0.253959 19.9988 0)
(0.254048 19.9988 0)
(0.254137 19.9988 0)
(0.254226 19.9988 0)
(0.254316 19.9988 0)
(0.254405 19.9988 0)
(0.254495 19.9988 0)
(0.254584 19.9988 0)
(0.254674 19.9988 0)
(0.254764 19.9988 0)
(0.254853 19.9988 0)
(0.254943 19.9988 0)
(0.255033 19.9988 0)
(0.255123 19.9988 0)
(0.255213 19.9988 0)
(0.255303 19.9988 0)
(0.255393 19.9988 0)
(0.255482 19.9988 0)
(0.255572 19.9988 0)
(0.255662 19.9988 0)
(0.255752 19.9988 0)
(0.255842 19.9988 0)
(0.255932 19.9988 0)
(0.256022 19.9988 0)
(0.256111 19.9988 0)
(0.256201 19.9988 0)
(0.256291 19.9988 0)
(0.256381 19.9988 0)
(0.256471 19.9988 0)
(0.256561 19.9988 0)
(0.256651 19.9988 0)
(0.25674 19.9988 0)
(0.25683 19.9988 0)
(0.25692 19.9988 0)
(0.25701 19.9988 0)
(0.2571 19.9988 0)
(0.25719 19.9988 0)
(0.25728 19.9988 0)
(0.25737 19.9988 0)
(0.25746 19.9988 0)
(0.257551 19.9988 0)
(0.257641 19.9988 0)
(0.257731 19.9988 0)
(0.257821 19.9988 0)
(0.257911 19.9988 0)
(0.258002 19.9988 0)
(0.258092 19.9988 0)
(0.258182 19.9988 0)
(0.258272 19.9988 0)
(0.258363 19.9988 0)
(0.258453 19.9988 0)
(0.258543 19.9988 0)
(0.258633 19.9988 0)
(0.258724 19.9988 0)
(0.258814 19.9988 0)
(0.258904 19.9988 0)
(0.258994 19.9988 0)
(0.259084 19.9988 0)
(0.259175 19.9988 0)
(0.259265 19.9988 0)
(0.259355 19.9988 0)
(0.259445 19.9988 0)
(0.259535 19.9988 0)
(0.259625 19.9988 0)
(0.259716 19.9988 0)
(0.259806 19.9988 0)
(0.259896 19.9988 0)
(0.259986 19.9988 0)
(0.260076 19.9988 0)
(0.260167 19.9988 0)
(0.260257 19.9988 0)
(0.260347 19.9988 0)
(0.260437 19.9988 0)
(0.260528 19.9988 0)
(0.260618 19.9988 0)
(0.260708 19.9988 0)
(0.260799 19.9988 0)
(0.260889 19.9988 0)
(0.260979 19.9988 0)
(0.26107 19.9988 0)
(0.26116 19.9988 0)
(0.261251 19.9988 0)
(0.261341 19.9988 0)
(0.261431 19.9988 0)
(0.261522 19.9988 0)
(0.261612 19.9988 0)
(0.261702 19.9988 0)
(0.261793 19.9988 0)
(0.261883 19.9988 0)
(0.261973 19.9988 0)
(0.262064 19.9988 0)
(0.262154 19.9988 0)
(0.262245 19.9988 0)
(0.262335 19.9988 0)
(0.262425 19.9988 0)
(0.262516 19.9988 0)
(0.262606 19.9988 0)
(0.262697 19.9988 0)
(0.262787 19.9988 0)
(0.262877 19.9988 0)
(0.262968 19.9988 0)
(0.263058 19.9988 0)
(0.263149 19.9988 0)
(0.263239 19.9988 0)
(0.26333 19.9988 0)
(0.26342 19.9988 0)
(0.263511 19.9988 0)
(0.263601 19.9988 0)
(0.263691 19.9988 0)
(0.263782 19.9988 0)
(0.263872 19.9988 0)
(0.263963 19.9988 0)
(0.264053 19.9988 0)
(0.264144 19.9988 0)
(0.264234 19.9988 0)
(0.264325 19.9988 0)
(0.264415 19.9988 0)
(0.264506 19.9988 0)
(0.264596 19.9988 0)
(0.264687 19.9988 0)
(0.264777 19.9988 0)
(0.264868 19.9988 0)
(0.264958 19.9988 0)
(0.265049 19.9988 0)
(0.265139 19.9988 0)
(0.26523 19.9988 0)
(0.265321 19.9988 0)
(0.265411 19.9988 0)
(0.265502 19.9988 0)
(0.265592 19.9988 0)
(0.265683 19.9988 0)
(0.265773 19.9988 0)
(0.265864 19.9988 0)
(0.265955 19.9988 0)
(0.266045 19.9988 0)
(0.266136 19.9988 0)
(0.266226 19.9988 0)
(0.266317 19.9988 0)
(0.266408 19.9988 0)
(0.266498 19.9988 0)
(0.266589 19.9988 0)
(0.26668 19.9988 0)
(0.26677 19.9988 0)
(0.266861 19.9988 0)
(0.266952 19.9988 0)
(0.267042 19.9988 0)
(0.267133 19.9988 0)
(0.267224 19.9988 0)
(0.267314 19.9988 0)
(0.267405 19.9988 0)
(0.267496 19.9988 0)
(0.267587 19.9988 0)
(0.267677 19.9988 0)
(0.267768 19.9988 0)
(0.267859 19.9988 0)
(0.267949 19.9988 0)
(0.26804 19.9988 0)
(0.268131 19.9988 0)
(0.268222 19.9988 0)
(0.268312 19.9988 0)
(0.268403 19.9988 0)
(0.268494 19.9988 0)
(0.268585 19.9988 0)
(0.268675 19.9988 0)
(0.268766 19.9988 0)
(0.268857 19.9988 0)
(0.268948 19.9988 0)
(0.269039 19.9988 0)
(0.269129 19.9988 0)
(0.26922 19.9988 0)
(0.269311 19.9988 0)
(0.269402 19.9988 0)
(0.269493 19.9988 0)
(0.269583 19.9988 0)
(0.269674 19.9988 0)
(0.269765 19.9988 0)
(0.269856 19.9988 0)
(0.269947 19.9988 0)
(0.270038 19.9988 0)
(0.270128 19.9988 0)
(0.270219 19.9988 0)
(0.27031 19.9988 0)
(0.270401 19.9988 0)
(0.270492 19.9988 0)
(0.270583 19.9988 0)
(0.270674 19.9988 0)
(0.270764 19.9988 0)
(0.270855 19.9988 0)
(0.270946 19.9988 0)
(0.271037 19.9988 0)
(0.271128 19.9988 0)
(0.271219 19.9988 0)
(0.27131 19.9988 0)
(0.271401 19.9988 0)
(0.271492 19.9988 0)
(0.271582 19.9988 0)
(0.271673 19.9988 0)
(0.271764 19.9988 0)
(0.271855 19.9988 0)
(0.271946 19.9988 0)
(0.272037 19.9988 0)
(0.272128 19.9988 0)
(0.272219 19.9988 0)
(0.27231 19.9988 0)
(0.272401 19.9988 0)
(0.272492 19.9988 0)
(0.272583 19.9988 0)
(0.272674 19.9988 0)
(0.272765 19.9988 0)
(0.272856 19.9988 0)
(0.272946 19.9988 0)
(0.273037 19.9988 0)
(0.273128 19.9988 0)
(0.273219 19.9988 0)
(0.27331 19.9988 0)
(0.273401 19.9988 0)
(0.273492 19.9988 0)
(0.273583 19.9988 0)
(0.273674 19.9988 0)
(0.273765 19.9988 0)
(0.273856 19.9988 0)
(0.273947 19.9988 0)
(0.274038 19.9988 0)
(0.274129 19.9988 0)
(0.27422 19.9988 0)
(0.274311 19.9988 0)
(0.274402 19.9988 0)
(0.274493 19.9988 0)
(0.274585 19.9988 0)
(0.274676 19.9988 0)
(0.274767 19.9988 0)
(0.274858 19.9988 0)
(0.274949 19.9988 0)
(0.27504 19.9988 0)
(0.275131 19.9988 0)
(0.275222 19.9988 0)
(0.275313 19.9988 0)
(0.275404 19.9988 0)
(0.275495 19.9988 0)
(0.275586 19.9988 0)
(0.275677 19.9988 0)
(0.275768 19.9988 0)
(0.275859 19.9988 0)
(0.275951 19.9988 0)
(0.276042 19.9988 0)
(0.276133 19.9988 0)
(0.276224 19.9988 0)
(0.276315 19.9988 0)
(0.276406 19.9988 0)
(0.276497 19.9988 0)
(0.276588 19.9988 0)
(0.276679 19.9988 0)
(0.276771 19.9988 0)
(0.276862 19.9988 0)
(0.276953 19.9988 0)
(0.277044 19.9988 0)
(0.277135 19.9988 0)
(0.277226 19.9988 0)
(0.277317 19.9988 0)
(0.277409 19.9988 0)
(0.2775 19.9988 0)
(0.277591 19.9988 0)
(0.277682 19.9988 0)
(0.277773 19.9988 0)
(0.277864 19.9988 0)
(0.277956 19.9988 0)
(0.278047 19.9988 0)
(0.278138 19.9988 0)
(0.278229 19.9988 0)
(0.27832 19.9988 0)
(0.278412 19.9988 0)
(0.278503 19.9988 0)
(0.278594 19.9988 0)
(0.278685 19.9988 0)
(0.278776 19.9988 0)
(0.278868 19.9988 0)
(0.278959 19.9988 0)
(0.27905 19.9988 0)
(0.279141 19.9988 0)
(0.279233 19.9988 0)