/*--------------------------------*- C++ -*----------------------------------*\
| =========                 |                                                 |
| \\      /  F ield         | OpenFOAM: The Open Source CFD Toolbox           |
|  \\    /   O peration     | Version:  2512                                  |
|   \\  /    A nd           | Website:  www.openfoam.com                      |
|    \\/     M anipulation  |                                                 |
\*---------------------------------------------------------------------------*/
FoamFile
{
    version     2.0;
    format      ascii;
    arch        "LSB;label=32;scalar=64";
    class       volScalarField;
    location    "0.006";
    object      k;
}
// * * * * * * * * * * * * * * * * * * * * * * * * * * * * * * * * * * * * * //

dimensions      [0 2 -2 0 0 0 0];

internalField   nonuniform List<scalar> 
100000
(
0.113758
0.0223162
0.00919851
0.00502962
0.00324986
0.00234654
0.00183244
0.00151609
0.00130889
0.00116593
0.00106294
0.000986049
0.000926867
0.000880101
0.000842291
0.000811105
0.000784931
0.000762635
0.000743398
0.00072662
0.000711852
0.000698751
0.000687051
0.000676542
0.000667054
0.000658452
0.00065062
0.000643465
0.000636907
0.000630877
0.00062532
0.000620183
0.000615425
0.000611006
0.000606895
0.000603062
0.000599481
0.000596129
0.000592987
0.000590034
0.000587256
0.000584638
0.000582165
0.000579826
0.00057761
0.000575507
0.000573508
0.000571605
0.000569791
0.000568058
0.0005664
0.000564812
0.000563287
0.000561823
0.000560413
0.000559054
0.000557743
0.000556475
0.000555247
0.000554058
0.000552903
0.00055178
0.000550688
0.000549623
0.000548584
0.000547569
0.000546576
0.000545604
0.00054465
0.000543714
0.000542793
0.000541887
0.000540994
0.000540113
0.000539242
0.000538381
0.000537528
0.000536683
0.000535846
0.000535015
0.000534189
0.000533369
0.000532555
0.000531745
0.00053094
0.000530139
0.000529342
0.000528549
0.000527759
0.000526973
0.000526191
0.000525411
0.000524635
0.000523861
0.00052309
0.000522322
0.000521557
0.000520794
0.000520033
0.000519274
0.000518518
0.000517764
0.000517012
0.000516262
0.000515513
0.000514767
0.000514023
0.00051328
0.00051254
0.000511801
0.000511063
0.000510326
0.000509591
0.000508857
0.000508124
0.000507392
0.00050666
0.000505928
0.000505197
0.000504467
0.000503736
0.000503006
0.000502276
0.000501546
0.000500816
0.000500086
0.000499357
0.000498629
0.0004979
0.000497172
0.000496445
0.000495718
0.000494991
0.000494265
0.00049354
0.000492815
0.000492091
0.000491367
0.000490645
0.000489923
0.000489201
0.000488481
0.000487761
0.000487042
0.000486323
0.000485606
0.000484889
0.000484172
0.000483456
0.000482741
0.000482027
0.000481312
0.000480599
0.000479886
0.000479173
0.000478461
0.000477749
0.000477037
0.000476326
0.000475615
0.000474905
0.000474195
0.000473486
0.000472777
0.000472068
0.00047136
0.000470652
0.000469945
0.000469238
0.000468532
0.000467826
0.00046712
0.000466416
0.000465711
0.000465007
0.000464304
0.000463601
0.000462898
0.000462196
0.000461495
0.000460794
0.000460093
0.000459393
0.000458693
0.000457993
0.000457294
0.000456595
0.000455897
0.000455199
0.000454501
0.000453804
0.000453108
0.000452412
0.000451716
0.000451021
0.000450326
0.000449632
0.000448939
0.000448246
0.000447554
0.000446862
0.00044617
0.000445479
0.000444789
0.000444099
0.00044341
0.000442721
0.000442033
0.000441345
0.000440657
0.00043997
0.000439283
0.000438597
0.000437911
0.000437225
0.00043654
0.000435855
0.000435171
0.000434487
0.000433803
0.00043312
0.000432437
0.000431754
0.000431072
0.000430391
0.000429709
0.000429028
0.000428348
0.000427668
0.000426988
0.000426309
0.000425631
0.000424952
0.000424275
0.000423597
0.00042292
0.000422244
0.000421568
0.000420892
0.000420217
0.000419543
0.000418869
0.000418195
0.000417522
0.000416849
0.000416176
0.000415504
0.000414833
0.000414162
0.000413491
0.000412821
0.000412151
0.000411482
0.000410813
0.000410145
0.000409477
0.000408809
0.000408142
0.000407475
0.000406809
0.000406143
0.000405478
0.000404813
0.000404148
0.000403484
0.00040282
0.000402157
0.000401494
0.000400832
0.00040017
0.000399508
0.000398847
0.000398186
0.000397526
0.000396866
0.000396206
0.000395547
0.000394889
0.00039423
0.000393573
0.000392915
0.000392258
0.000391602
0.000390946
0.00039029
0.000389635
0.00038898
0.000388325
0.000387671
0.000387018
0.000386364
0.000385712
0.000385059
0.000384407
0.000383756
0.000383105
0.000382454
0.000381803
0.000381154
0.000380504
0.000379855
0.000379206
0.000378558
0.00037791
0.000377263
0.000376616
0.000375969
0.000375323
0.000374677
0.000374032
0.000373387
0.000372742
0.000372098
0.000371454
0.000370811
0.000370168
0.000369526
0.000368884
0.000368242
0.000367601
0.00036696
0.00036632
0.00036568
0.00036504
0.000364401
0.000363762
0.000363124
0.000362486
0.000361848
0.000361211
0.000360574
0.000359938
0.000359302
0.000358667
0.000358032
0.000357397
0.000356763
0.000356129
0.000355496
0.000354863
0.00035423
0.000353598
0.000352967
0.000352335
0.000351704
0.000351074
0.000350444
0.000349814
0.000349185
0.000348556
0.000347928
0.0003473
0.000346673
0.000346046
0.000345419
0.000344793
0.000344167
0.000343541
0.000342916
0.000342292
0.000341668
0.000341044
0.000340421
0.000339798
0.000339175
0.000338553
0.000337932
0.000337311
0.00033669
0.000336069
0.00033545
0.00033483
0.000334211
0.000333592
0.000332974
0.000332356
0.000331739
0.000331122
0.000330506
0.00032989
0.000329274
0.000328659
0.000328044
0.00032743
0.000326816
0.000326202
0.000325589
0.000324976
0.000324364
0.000323752
0.000323141
0.00032253
0.00032192
0.00032131
0.0003207
0.000320091
0.000319482
0.000318874
0.000318266
0.000317659
0.000317052
0.000316445
0.000315839
0.000315233
0.000314628
0.000314023
0.000313419
0.000312815
0.000312211
0.000311608
0.000311006
0.000310404
0.000309802
0.000309201
0.0003086
0.000307999
0.000307399
0.0003068
0.000306201
0.000305602
0.000305004
0.000304406
0.000303809
0.000303212
0.000302616
0.00030202
0.000301424
0.000300829
0.000300235
0.00029964
0.000299047
0.000298454
0.000297861
0.000297268
0.000296677
0.000296085
0.000295494
0.000294904
0.000294313
0.000293724
0.000293135
0.000292546
0.000291958
0.00029137
0.000290783
0.000290196
0.000289609
0.000289023
0.000288438
0.000287853
0.000287268
0.000286684
0.0002861
0.000285517
0.000284934
0.000284352
0.00028377
0.000283189
0.000282608
0.000282028
0.000281448
0.000280868
0.000280289
0.000279711
0.000279133
0.000278555
0.000277978
0.000277401
0.000276825
0.000276249
0.000275674
0.000275099
0.000274525
0.000273951
0.000273378
0.000272805
0.000272233
0.000271661
0.000271089
0.000270518
0.000269948
0.000269378
0.000268808
0.000268239
0.000267671
0.000267103
0.000266535
0.000265968
0.000265401
0.000264835
0.00026427
0.000263705
0.00026314
0.000262576
0.000262012
0.000261449
0.000260886
0.000260324
0.000259762
0.000259201
0.00025864
0.00025808
0.00025752
0.000256961
0.000256402
0.000255844
0.000255286
0.000254729
0.000254172
0.000253616
0.00025306
0.000252504
0.00025195
0.000251395
0.000250842
0.000250288
0.000249736
0.000249183
0.000248632
0.00024808
0.00024753
0.000246979
0.00024643
0.00024588
0.000245332
0.000244783
0.000244236
0.000243689
0.000243142
0.000242596
0.00024205
0.000241505
0.00024096
0.000240416
0.000239873
0.00023933
0.000238787
0.000238245
0.000237704
0.000237163
0.000236622
0.000236082
0.000235543
0.000235004
0.000234465
0.000233928
0.00023339
0.000232854
0.000232317
0.000231782
0.000231246
0.000230712
0.000230178
0.000229644
0.000229111
0.000228578
0.000228046
0.000227515
0.000226984
0.000226453
0.000225924
0.000225394
0.000224866
0.000224337
0.00022381
0.000223282
0.000222756
0.00022223
0.000221704
0.000221179
0.000220655
0.000220131
0.000219607
0.000219085
0.000218562
0.000218041
0.000217519
0.000216999
0.000216479
0.000215959
0.00021544
0.000214922
0.000214404
0.000213887
0.00021337
0.000212854
0.000212338
0.000211823
0.000211309
0.000210795
0.000210281
0.000209769
0.000209256
0.000208745
0.000208234
0.000207723
0.000207213
0.000206704
0.000206195
0.000205686
0.000205179
0.000204672
0.000204165
0.000203659
0.000203154
0.000202649
0.000202144
0.000201641
0.000201138
0.000200635
0.000200133
0.000199632
0.000199131
0.00019863
0.000198131
0.000197632
0.000197133
0.000196635
0.000196138
0.000195641
0.000195145
0.000194649
0.000194154
0.00019366
0.000193166
0.000192673
0.00019218
0.000191688
0.000191197
0.000190706
0.000190216
0.000189726
0.000189237
0.000188749
0.000188261
0.000187773
0.000187287
0.000186801
0.000186315
0.00018583
0.000185346
0.000184862
0.000184379
0.000183897
0.000183415
0.000182934
0.000182453
0.000181973
0.000181494
0.000181015
0.000180537
0.000180059
0.000179582
0.000179106
0.00017863
0.000178155
0.00017768
0.000177206
0.000176733
0.00017626
0.000175788
0.000175317
0.000174846
0.000174376
0.000173906
0.000173437
0.000172969
0.000172501
0.000172034
0.000171567
0.000171102
0.000170636
0.000170172
0.000169708
0.000169244
0.000168782
0.00016832
0.000167858
0.000167397
0.000166937
0.000166478
0.000166019
0.000165561
0.000165103
0.000164646
0.00016419
0.000163734
0.000163279
0.000162824
0.000162371
0.000161917
0.000161465
0.000161013
0.000160562
0.000160111
0.000159661
0.000159212
0.000158763
0.000158315
0.000157868
0.000157421
0.000156975
0.00015653
0.000156085
0.000155641
0.000155198
0.000154755
0.000154313
0.000153871
0.000153431
0.00015299
0.000152551
0.000152112
0.000151674
0.000151236
0.0001508
0.000150363
0.000149928
0.000149493
0.000149059
0.000148625
0.000148192
0.00014776
0.000147329
0.000146898
0.000146467
0.000146038
0.000145609
0.000145181
0.000144753
0.000144326
0.0001439
0.000143475
0.00014305
0.000142626
0.000142202
0.000141779
0.000141357
0.000140936
0.000140515
0.000140095
0.000139676
0.000139257
0.000138839
0.000138421
0.000138005
0.000137589
0.000137173
0.000136759
0.000136345
0.000135931
0.000135519
0.000135107
0.000134696
0.000134285
0.000133875
0.000133466
0.000133058
0.00013265
0.000132243
0.000131837
0.000131431
0.000131026
0.000130622
0.000130218
0.000129815
0.000129413
0.000129011
0.00012861
0.00012821
0.000127811
0.000127412
0.000127014
0.000126617
0.00012622
0.000125824
0.000125429
0.000125034
0.000124641
0.000124247
0.000123855
0.000123463
0.000123072
0.000122682
0.000122292
0.000121903
0.000121515
0.000121128
0.000120741
0.000120355
0.00011997
0.000119585
0.000119201
0.000118818
0.000118435
0.000118054
0.000117672
0.000117292
0.000116912
0.000116534
0.000116155
0.000115778
0.000115401
0.000115025
0.00011465
0.000114275
0.000113901
0.000113528
0.000113155
0.000112784
0.000112412
0.000112042
0.000111673
0.000111304
0.000110936
0.000110568
0.000110201
0.000109835
0.00010947
0.000109106
0.000108742
0.000108379
0.000108016
0.000107655
0.000107294
0.000106934
0.000106574
0.000106215
0.000105857
0.0001055
0.000105143
0.000104788
0.000104433
0.000104078
0.000103725
0.000103372
0.000103019
0.000102668
0.000102317
0.000101967
0.000101618
0.00010127
0.000100922
0.000100575
0.000100229
9.98829e-05
9.95381e-05
9.9194e-05
9.88506e-05
9.8508e-05
9.81661e-05
9.78249e-05
9.74845e-05
9.71448e-05
9.68059e-05
9.64677e-05
9.61302e-05
9.57934e-05
9.54575e-05
9.51222e-05
9.47877e-05
9.44539e-05
9.41208e-05
9.37885e-05
9.3457e-05
9.31262e-05
9.27961e-05
9.24667e-05
9.21381e-05
9.18103e-05
9.14832e-05
9.11568e-05
9.08311e-05
9.05063e-05
9.01821e-05
8.98587e-05
8.9536e-05
8.92141e-05
8.88929e-05
8.85725e-05
8.82528e-05
8.79338e-05
8.76156e-05
8.72981e-05
8.69814e-05
8.66654e-05
8.63502e-05
8.60357e-05
8.5722e-05
8.54089e-05
8.50967e-05
8.47852e-05
8.44744e-05
8.41643e-05
8.38551e-05
8.35465e-05
8.32387e-05
8.29316e-05
8.26253e-05
8.23198e-05
8.20149e-05
8.17108e-05
8.14075e-05
8.11049e-05
8.0803e-05
8.05019e-05
8.02015e-05
7.99019e-05
7.9603e-05
7.93049e-05
7.90075e-05
7.87108e-05
7.84149e-05
7.81197e-05
7.78253e-05
7.75315e-05
7.72386e-05
7.69464e-05
7.66549e-05
7.63641e-05
7.60741e-05
7.57848e-05
7.54963e-05
7.52085e-05
7.49214e-05
7.46351e-05
7.43495e-05
7.40646e-05
7.37805e-05
7.34971e-05
7.32144e-05
7.29324e-05
7.26512e-05
7.23707e-05
7.2091e-05
7.1812e-05
7.15336e-05
7.12561e-05
7.09792e-05
7.07031e-05
7.04277e-05
7.0153e-05
6.9879e-05
6.96057e-05
6.93332e-05
6.90614e-05
6.87903e-05
6.85199e-05
6.82502e-05
6.79812e-05
6.7713e-05
6.74454e-05
6.71786e-05
6.69125e-05
6.66471e-05
6.63824e-05
6.61184e-05
6.58551e-05
6.55925e-05
6.53307e-05
6.50695e-05
6.48091e-05
6.45494e-05
6.42904e-05
6.40321e-05
6.37746e-05
6.35178e-05
6.32618e-05
6.30064e-05
6.27519e-05
6.24981e-05
6.22451e-05
6.19929e-05
6.17416e-05
6.14911e-05
6.12414e-05
6.09927e-05
6.07449e-05
6.04982e-05
6.02525e-05
6.00079e-05
5.97645e-05
5.95225e-05
5.92818e-05
5.90428e-05
5.88055e-05
5.85703e-05
5.83377e-05
5.81081e-05
5.78826e-05
5.76623e-05
5.74494e-05
5.72464e-05
5.70575e-05
5.68881e-05
5.67455e-05
5.66378e-05
5.6579e-05
5.66066e-05
5.67316e-05
0.298983
0.0576182
0.0153673
0.00588359
0.00305273
0.00198237
0.00150543
0.00126871
0.00114234
0.00107122
0.00102948
0.00100404
0.000987936
0.000977299
0.000969938
0.000964586
0.000960502
0.000957244
0.000954549
0.000952256
0.000950262
0.000948501
0.00094693
0.000945515
0.000944233
0.000943066
0.000941999
0.00094102
0.000940119
0.000939288
0.000938518
0.000937804
0.00093714
0.000936522
0.000935944
0.000935403
0.000934896
0.00093442
0.000933971
0.000933549
0.00093315
0.000932772
0.000932414
0.000932074
0.000931751
0.000931443
0.00093115
0.000930869
0.0009306
0.000930343
0.000930095
0.000929857
0.000929628
0.000929407
0.000929194
0.000928987
0.000928787
0.000928593
0.000928404
0.00092822
0.000928042
0.000927867
0.000927697
0.00092753
0.000927367
0.000927207
0.00092705
0.000926895
0.000926743
0.000926593
0.000926445
0.000926299
0.000926154
0.000926011
0.000925868
0.000925727
0.000925587
0.000925448
0.00092531
0.000925173
0.000925037
0.000924902
0.000924767
0.000924634
0.000924501
0.000924368
0.000924237
0.000924106
0.000923976
0.000923847
0.000923718
0.000923589
0.000923461
0.000923334
0.000923207
0.000923081
0.000922955
0.00092283
0.000922704
0.00092258
0.000922456
0.000922332
0.000922208
0.000922085
0.000921962
0.00092184
0.000921718
0.000921596
0.000921474
0.000921353
0.000921232
0.000921111
0.00092099
0.000920869
0.000920749
0.000920628
0.000920508
0.000920387
0.000920267
0.000920146
0.000920026
0.000919906
0.000919786
0.000919666
0.000919546
0.000919427
0.000919307
0.000919188
0.000919068
0.000918949
0.00091883
0.000918712
0.000918593
0.000918474
0.000918356
0.000918238
0.00091812
0.000918002
0.000917885
0.000917767
0.00091765
0.000917533
0.000917416
0.000917299
0.000917182
0.000917066
0.000916949
0.000916833
0.000916717
0.000916601
0.000916485
0.000916369
0.000916254
0.000916138
0.000916023
0.000915907
0.000915792
0.000915677
0.000915562
0.000915447
0.000915332
0.000915218
0.000915103
0.000914989
0.000914874
0.00091476
0.000914646
0.000914532
0.000914419
0.000914305
0.000914192
0.000914078
0.000913965
0.000913852
0.000913739
0.000913626
0.000913513
0.000913401
0.000913288
0.000913176
0.000913063
0.000912951
0.000912839
0.000912727
0.000912615
0.000912504
0.000912392
0.000912281
0.000912169
0.000912058
0.000911947
0.000911836
0.000911725
0.000911614
0.000911504
0.000911393
0.000911283
0.000911173
0.000911063
0.000910953
0.000910843
0.000910734
0.000910624
0.000910515
0.000910406
0.000910297
0.000910188
0.000910079
0.00090997
0.000909862
0.000909753
0.000909645
0.000909536
0.000909428
0.00090932
0.000909212
0.000909104
0.000908997
0.000908889
0.000908782
0.000908674
0.000908567
0.00090846
0.000908353
0.000908246
0.000908139
0.000908032
0.000907926
0.000907819
0.000907713
0.000907607
0.000907501
0.000907395
0.000907289
0.000907184
0.000907078
0.000906973
0.000906867
0.000906762
0.000906657
0.000906552
0.000906448
0.000906343
0.000906238
0.000906134
0.00090603
0.000905925
0.000905821
0.000905717
0.000905614
0.00090551
0.000905406
0.000905303
0.0009052
0.000905097
0.000904994
0.000904891
0.000904788
0.000904685
0.000904582
0.00090448
0.000904378
0.000904276
0.000904173
0.000904071
0.00090397
0.000903868
0.000903766
0.000903665
0.000903563
0.000903462
0.000903361
0.00090326
0.000903159
0.000903058
0.000902958
0.000902857
0.000902757
0.000902656
0.000902556
0.000902456
0.000902356
0.000902256
0.000902157
0.000902057
0.000901958
0.000901858
0.000901759
0.00090166
0.000901561
0.000901462
0.000901364
0.000901265
0.000901166
0.000901068
0.00090097
0.000900872
0.000900774
0.000900676
0.000900578
0.00090048
0.000900383
0.000900285
0.000900188
0.000900091
0.000899993
0.000899897
0.0008998
0.000899703
0.000899606
0.00089951
0.000899413
0.000899317
0.000899221
0.000899125
0.000899029
0.000898933
0.000898838
0.000898742
0.000898647
0.000898551
0.000898456
0.000898361
0.000898266
0.000898171
0.000898076
0.000897982
0.000897887
0.000897793
0.000897698
0.000897604
0.00089751
0.000897416
0.000897322
0.000897229
0.000897135
0.000897042
0.000896948
0.000896855
0.000896762
0.000896669
0.000896576
0.000896483
0.000896391
0.000896298
0.000896206
0.000896113
0.000896021
0.000895929
0.000895837
0.000895745
0.000895654
0.000895562
0.000895471
0.000895379
0.000895288
0.000895197
0.000895106
0.000895015
0.000894924
0.000894833
0.000894743
0.000894652
0.000894562
0.000894472
0.000894382
0.000894292
0.000894202
0.000894112
0.000894022
0.000893933
0.000893843
0.000893754
0.000893665
0.000893576
0.000893487
0.000893398
0.000893309
0.000893221
0.000893132
0.000893044
0.000892955
0.000892867
0.000892779
0.000892691
0.000892603
0.000892516
0.000892428
0.000892341
0.000892253
0.000892166
0.000892079
0.000891992
0.000891905
0.000891818
0.000891731
0.000891645
0.000891558
0.000891472
0.000891386
0.0008913
0.000891214
0.000891128
0.000891042
0.000890956
0.000890871
0.000890785
0.0008907
0.000890615
0.00089053
0.000890445
0.00089036
0.000890275
0.00089019
0.000890106
0.000890021
0.000889937
0.000889853
0.000889769
0.000889685
0.000889601
0.000889517
0.000889433
0.00088935
0.000889266
0.000889183
0.0008891
0.000889017
0.000888934
0.000888851
0.000888768
0.000888686
0.000888603
0.000888521
0.000888438
0.000888356
0.000888274
0.000888192
0.00088811
0.000888028
0.000887947
0.000887865
0.000887784
0.000887702
0.000887621
0.00088754
0.000887459
0.000887378
0.000887297
0.000887217
0.000887136
0.000887056
0.000886975
0.000886895
0.000886815
0.000886735
0.000886655
0.000886575
0.000886496
0.000886416
0.000886337
0.000886257
0.000886178
0.000886099
0.00088602
0.000885941
0.000885862
0.000885784
0.000885705
0.000885626
0.000885548
0.00088547
0.000885392
0.000885314
0.000885236
0.000885158
0.00088508
0.000885002
0.000884925
0.000884848
0.00088477
0.000884693
0.000884616
0.000884539
0.000884462
0.000884385
0.000884309
0.000884232
0.000884156
0.00088408
0.000884003
0.000883927
0.000883851
0.000883775
0.0008837
0.000883624
0.000883548
0.000883473
0.000883397
0.000883322
0.000883247
0.000883172
0.000883097
0.000883022
0.000882947
0.000882873
0.000882798
0.000882724
0.00088265
0.000882575
0.000882501
0.000882427
0.000882354
0.00088228
0.000882206
0.000882133
0.000882059
0.000881986
0.000881912
0.000881839
0.000881766
0.000881693
0.000881621
0.000881548
0.000881475
0.000881403
0.00088133
0.000881258
0.000881186
0.000881114
0.000881042
0.00088097
0.000880898
0.000880826
0.000880755
0.000880683
0.000880612
0.000880541
0.00088047
0.000880398
0.000880328
0.000880257
0.000880186
0.000880115
0.000880045
0.000879974
0.000879904
0.000879834
0.000879764
0.000879694
0.000879624
0.000879554
0.000879484
0.000879415
0.000879345
0.000879276
0.000879206
0.000879137
0.000879068
0.000878999
0.00087893
0.000878861
0.000878793
0.000878724
0.000878656
0.000878587
0.000878519
0.000878451
0.000878383
0.000878315
0.000878247
0.000878179
0.000878111
0.000878044
0.000877976
0.000877909
0.000877842
0.000877775
0.000877708
0.000877641
0.000877574
0.000877507
0.00087744
0.000877374
0.000877307
0.000877241
0.000877175
0.000877108
0.000877042
0.000876976
0.000876911
0.000876845
0.000876779
0.000876714
0.000876648
0.000876583
0.000876517
0.000876452
0.000876387
0.000876322
0.000876257
0.000876193
0.000876128
0.000876063
0.000875999
0.000875935
0.00087587
0.000875806
0.000875742
0.000875678
0.000875614
0.00087555
0.000875487
0.000875423
0.00087536
0.000875296
0.000875233
0.00087517
0.000875107
0.000875044
0.000874981
0.000874918
0.000874855
0.000874793
0.00087473
0.000874668
0.000874606
0.000874543
0.000874481
0.000874419
0.000874357
0.000874296
0.000874234
0.000874172
0.000874111
0.000874049
0.000873988
0.000873927
0.000873866
0.000873804
0.000873744
0.000873683
0.000873622
0.000873561
0.000873501
0.00087344
0.00087338
0.00087332
0.000873259
0.000873199
0.000873139
0.000873079
0.00087302
0.00087296
0.0008729
0.000872841
0.000872781
0.000872722
0.000872663
0.000872604
0.000872545
0.000872486
0.000872427
0.000872368
0.00087231
0.000872251
0.000872193
0.000872134
0.000872076
0.000872018
0.00087196
0.000871902
0.000871844
0.000871786
0.000871728
0.000871671
0.000871613
0.000871556
0.000871498
0.000871441
0.000871384
0.000871327
0.00087127
0.000871213
0.000871156
0.0008711
0.000871043
0.000870987
0.00087093
0.000870874
0.000870818
0.000870762
0.000870706
0.00087065
0.000870594
0.000870538
0.000870482
0.000870427
0.000870371
0.000870316
0.000870261
0.000870206
0.00087015
0.000870095
0.000870041
0.000869986
0.000869931
0.000869876
0.000869822
0.000869767
0.000869713
0.000869659
0.000869605
0.00086955
0.000869496
0.000869443
0.000869389
0.000869335
0.000869281
0.000869228
0.000869174
0.000869121
0.000869068
0.000869015
0.000868962
0.000868909
0.000868856
0.000868803
0.00086875
0.000868697
0.000868645
0.000868592
0.00086854
0.000868488
0.000868436
0.000868384
0.000868332
0.00086828
0.000868228
0.000868176
0.000868124
0.000868073
0.000868021
0.00086797
0.000867919
0.000867868
0.000867817
0.000867766
0.000867715
0.000867664
0.000867613
0.000867562
0.000867512
0.000867461
0.000867411
0.000867361
0.00086731
0.00086726
0.00086721
0.00086716
0.00086711
0.000867061
0.000867011
0.000866961
0.000866912
0.000866862
0.000866813
0.000866764
0.000866715
0.000866666
0.000866617
0.000866568
0.000866519
0.00086647
0.000866422
0.000866373
0.000866325
0.000866276
0.000866228
0.00086618
0.000866132
0.000866084
0.000866036
0.000865988
0.00086594
0.000865892
0.000865845
0.000865797
0.00086575
0.000865703
0.000865655
0.000865608
0.000865561
0.000865514
0.000865467
0.000865421
0.000865374
0.000865327
0.000865281
0.000865234
0.000865188
0.000865141
0.000865095
0.000865049
0.000865003
0.000864957
0.000864911
0.000864866
0.00086482
0.000864774
0.000864729
0.000864683
0.000864638
0.000864593
0.000864547
0.000864502
0.000864457
0.000864412
0.000864368
0.000864323
0.000864278
0.000864234
0.000864189
0.000864145
0.0008641
0.000864056
0.000864012
0.000863968
0.000863924
0.00086388
0.000863836
0.000863792
0.000863749
0.000863705
0.000863661
0.000863618
0.000863575
0.000863531
0.000863488
0.000863445
0.000863402
0.000863359
0.000863316
0.000863274
0.000863231
0.000863188
0.000863146
0.000863103
0.000863061
0.000863019
0.000862977
0.000862935
0.000862893
0.000862851
0.000862809
0.000862767
0.000862725
0.000862684
0.000862642
0.000862601
0.000862559
0.000862518
0.000862477
0.000862436
0.000862395
0.000862354
0.000862313
0.000862272
0.000862232
0.000862191
0.00086215
0.00086211
0.000862069
0.000862029
0.000861989
0.000861949
0.000861909
0.000861869
0.000861829
0.000861789
0.000861749
0.00086171
0.00086167
0.000861631
0.000861591
0.000861552
0.000861513
0.000861473
0.000861434
0.000861395
0.000861356
0.000861317
0.000861279
0.00086124
0.000861201
0.000861163
0.000861124
0.000861086
0.000861048
0.000861009
0.000860971
0.000860933
0.000860895
0.000860857
0.000860819
0.000860782
0.000860744
0.000860706
0.000860669
0.000860631
0.000860594
0.000860557
0.000860519
0.000860482
0.000860445
0.000860408
0.000860371
0.000860335
0.000860298
0.000860261
0.000860225
0.000860188
0.000860152
0.000860115
0.000860079
0.000860043
0.000860007
0.000859971
0.000859935
0.000859899
0.000859863
0.000859827
0.000859791
0.000859756
0.00085972
0.000859685
0.000859649
0.000859614
0.000859579
0.000859544
0.000859509
0.000859474
0.000859439
0.000859404
0.000859369
0.000859335
0.0008593
0.000859266
0.000859231
0.000859197
0.000859163
0.000859128
0.000859094
0.00085906
0.000859026
0.000858992
0.000858959
0.000858925
0.000858891
0.000858858
0.000858825
0.000858791
0.000858758
0.000858725
0.000858692
0.000858659
0.000858626
0.000858593
0.000858561
0.000858528
0.000858496
0.000858464
0.000858432
0.0008584
0.000858368
0.000858337
0.000858305
0.000858274
0.000858243
0.000858212
0.000858181
0.000858151
0.000858121
0.000858091
0.000858061
0.000858031
0.000858001
0.000857972
0.000857942
0.000857912
0.000857882
0.000857851
0.000857821
0.00085779
0.000857761
0.000857734
0.000857712
0.0008577
0.000857703
0.000857718
0.527055
0.17316
0.0646622
0.0292315
0.0162135
0.0108263
0.00836649
0.00715922
0.0065375
0.00620808
0.00603129
0.00593644
0.0058862
0.00586032
0.00584763
0.00584196
0.00583992
0.00583968
0.00584025
0.00584113
0.00584208
0.00584298
0.00584379
0.00584451
0.00584513
0.00584567
0.00584614
0.00584654
0.00584689
0.0058472
0.00584747
0.0058477
0.00584791
0.0058481
0.00584826
0.0058484
0.00584853
0.00584864
0.00584874
0.00584883
0.00584891
0.00584898
0.00584904
0.00584909
0.00584914
0.00584918
0.00584922
0.00584925
0.00584927
0.0058493
0.00584932
0.00584933
0.00584934
0.00584935
0.00584936
0.00584936
0.00584937
0.00584937
0.00584936
0.00584936
0.00584935
0.00584935
0.00584934
0.00584932
0.00584931
0.00584929
0.00584928
0.00584926
0.00584923
0.00584921
0.00584918
0.00584915
0.00584912
0.00584909
0.00584905
0.00584901
0.00584897
0.00584893
0.00584889
0.00584885
0.00584881
0.00584877
0.00584873
0.00584869
0.00584865
0.00584861
0.00584857
0.00584853
0.0058485
0.00584846
0.00584843
0.00584839
0.00584836
0.00584832
0.00584829
0.00584826
0.00584822
0.00584819
0.00584816
0.00584813
0.00584809
0.00584806
0.00584803
0.005848
0.00584797
0.00584794
0.00584791
0.00584788
0.00584785
0.00584781
0.00584778
0.00584775
0.00584772
0.00584768
0.00584765
0.00584761
0.00584758
0.00584754
0.00584751
0.00584747
0.00584744
0.0058474
0.00584737
0.00584733
0.0058473
0.00584726
0.00584723
0.00584719
0.00584716
0.00584713
0.00584709
0.00584706
0.00584703
0.005847
0.00584697
0.00584693
0.0058469
0.00584687
0.00584684
0.00584681
0.00584678
0.00584675
0.00584672
0.00584669
0.00584666
0.00584663
0.0058466
0.00584656
0.00584653
0.0058465
0.00584647
0.00584644
0.00584641
0.00584638
0.00584635
0.00584631
0.00584628
0.00584625
0.00584622
0.00584619
0.00584616
0.00584613
0.0058461
0.00584607
0.00584603
0.005846
0.00584597
0.00584594
0.00584591
0.00584588
0.00584585
0.00584582
0.00584579
0.00584576
0.00584573
0.0058457
0.00584567
0.00584564
0.00584561
0.00584558
0.00584555
0.00584552
0.00584549
0.00584546
0.00584543
0.0058454
0.00584537
0.00584534
0.00584531
0.00584528
0.00584525
0.00584522
0.0058452
0.00584517
0.00584514
0.00584511
0.00584508
0.00584505
0.00584502
0.00584499
0.00584497
0.00584494
0.00584491
0.00584488
0.00584485
0.00584482
0.00584479
0.00584477
0.00584474
0.00584471
0.00584468
0.00584465
0.00584462
0.00584459
0.00584456
0.00584454
0.00584451
0.00584448
0.00584445
0.00584442
0.00584439
0.00584436
0.00584434
0.00584431
0.00584428
0.00584425
0.00584422
0.0058442
0.00584417
0.00584414
0.00584411
0.00584408
0.00584406
0.00584403
0.005844
0.00584397
0.00584395
0.00584392
0.00584389
0.00584386
0.00584384
0.00584381
0.00584378
0.00584376
0.00584373
0.0058437
0.00584367
0.00584365
0.00584362
0.00584359
0.00584357
0.00584354
0.00584351
0.00584349
0.00584346
0.00584343
0.00584341
0.00584338
0.00584335
0.00584333
0.0058433
0.00584327
0.00584325
0.00584322
0.00584319
0.00584317
0.00584314
0.00584311
0.00584309
0.00584306
0.00584304
0.00584301
0.00584298
0.00584296
0.00584293
0.00584291
0.00584288
0.00584285
0.00584283
0.0058428
0.00584278
0.00584275
0.00584272
0.0058427
0.00584267
0.00584265
0.00584262
0.0058426
0.00584257
0.00584255
0.00584252
0.00584249
0.00584247
0.00584244
0.00584242
0.00584239
0.00584237
0.00584234
0.00584232
0.00584229
0.00584227
0.00584224
0.00584222
0.00584219
0.00584217
0.00584214
0.00584212
0.00584209
0.00584207
0.00584204
0.00584202
0.005842
0.00584197
0.00584195
0.00584192
0.0058419
0.00584187
0.00584185
0.00584182
0.0058418
0.00584178
0.00584175
0.00584173
0.0058417
0.00584168
0.00584165
0.00584163
0.00584161
0.00584158
0.00584156
0.00584153
0.00584151
0.00584149
0.00584146
0.00584144
0.00584142
0.00584139
0.00584137
0.00584134
0.00584132
0.0058413
0.00584127
0.00584125
0.00584123
0.0058412
0.00584118
0.00584116
0.00584113
0.00584111
0.00584109
0.00584106
0.00584104
0.00584102
0.005841
0.00584097
0.00584095
0.00584093
0.0058409
0.00584088
0.00584086
0.00584083
0.00584081
0.00584079
0.00584077
0.00584074
0.00584072
0.0058407
0.00584068
0.00584065
0.00584063
0.00584061
0.00584059
0.00584056
0.00584054
0.00584052
0.0058405
0.00584048
0.00584045
0.00584043
0.00584041
0.00584039
0.00584036
0.00584034
0.00584032
0.0058403
0.00584028
0.00584026
0.00584023
0.00584021
0.00584019
0.00584017
0.00584015
0.00584013
0.0058401
0.00584008
0.00584006
0.00584004
0.00584002
0.00584
0.00583997
0.00583995
0.00583993
0.00583991
0.00583989
0.00583987
0.00583985
0.00583983
0.0058398
0.00583978
0.00583976
0.00583974
0.00583972
0.0058397
0.00583968
0.00583966
0.00583964
0.00583962
0.0058396
0.00583958
0.00583955
0.00583953
0.00583951
0.00583949
0.00583947
0.00583945
0.00583943
0.00583941
0.00583939
0.00583937
0.00583935
0.00583933
0.00583931
0.00583929
0.00583927
0.00583925
0.00583923
0.00583921
0.00583919
0.00583917
0.00583915
0.00583913
0.00583911
0.00583909
0.00583907
0.00583905
0.00583903
0.00583901
0.00583899
0.00583897
0.00583895
0.00583893
0.00583891
0.00583889
0.00583887
0.00583885
0.00583883
0.00583881
0.00583879
0.00583877
0.00583875
0.00583874
0.00583872
0.0058387
0.00583868
0.00583866
0.00583864
0.00583862
0.0058386
0.00583858
0.00583856
0.00583854
0.00583853
0.00583851
0.00583849
0.00583847
0.00583845
0.00583843
0.00583841
0.00583839
0.00583837
0.00583836
0.00583834
0.00583832
0.0058383
0.00583828
0.00583826
0.00583824
0.00583823
0.00583821
0.00583819
0.00583817
0.00583815
0.00583813