/*--------------------------------*- C++ -*----------------------------------*\
| =========                 |                                                 |
| \\      /  F ield         | OpenFOAM: The Open Source CFD Toolbox           |
|  \\    /   O peration     | Version:  2512                                  |
|   \\  /    A nd           | Website:  www.openfoam.com                      |
|    \\/     M anipulation  |                                                 |
\*---------------------------------------------------------------------------*/
FoamFile
{
    version     2.0;
    format      ascii;
    arch        "LSB;label=32;scalar=64";
    class       volScalarField;
    location    "0.006";
    object      nut;
}
// * * * * * * * * * * * * * * * * * * * * * * * * * * * * * * * * * * * * * //

dimensions      [0 2 -1 0 0 0 0];

internalField   nonuniform List<scalar> 
100000
(
1.37945e-07
2.7061e-08
1.11542e-08
6.09895e-09
3.94079e-09
2.84543e-09
2.22202e-09
1.83841e-09
1.58717e-09
1.41381e-09
1.28893e-09
1.19569e-09
1.12392e-09
1.06721e-09
1.02137e-09
9.8355e-10
9.51812e-10
9.24776e-10
9.01449e-10
8.81105e-10
8.63197e-10
8.4731e-10
8.33123e-10
8.20379e-10
8.08875e-10
7.98443e-10
7.88947e-10
7.8027e-10
7.72318e-10
7.65007e-10
7.58267e-10
7.52039e-10
7.46269e-10
7.40911e-10
7.35926e-10
7.31278e-10
7.26936e-10
7.22871e-10
7.1906e-10
7.15481e-10
7.12112e-10
7.08936e-10
7.05938e-10
7.03101e-10
7.00414e-10
6.97864e-10
6.95441e-10
6.93133e-10
6.90933e-10
6.88831e-10
6.86821e-10
6.84895e-10
6.83047e-10
6.81271e-10
6.79562e-10
6.77914e-10
6.76323e-10
6.74786e-10
6.73298e-10
6.71855e-10
6.70454e-10
6.69093e-10
6.67768e-10
6.66477e-10
6.65217e-10
6.63987e-10
6.62783e-10
6.61604e-10
6.60447e-10
6.59312e-10
6.58196e-10
6.57097e-10
6.56014e-10
6.54945e-10
6.53889e-10
6.52845e-10
6.51811e-10
6.50787e-10
6.49771e-10
6.48763e-10
6.47762e-10
6.46768e-10
6.4578e-10
6.44798e-10
6.43822e-10
6.4285e-10
6.41884e-10
6.40922e-10
6.39965e-10
6.39012e-10
6.38063e-10
6.37118e-10
6.36176e-10
6.35238e-10
6.34304e-10
6.33372e-10
6.32444e-10
6.31518e-10
6.30596e-10
6.29676e-10
6.28759e-10
6.27844e-10
6.26932e-10
6.26023e-10
6.25116e-10
6.24211e-10
6.23308e-10
6.22408e-10
6.2151e-10
6.20613e-10
6.19719e-10
6.18826e-10
6.17934e-10
6.17044e-10
6.16155e-10
6.15267e-10
6.14379e-10
6.13493e-10
6.12606e-10
6.1172e-10
6.10834e-10
6.09948e-10
6.09063e-10
6.08178e-10
6.07293e-10
6.06409e-10
6.05524e-10
6.04641e-10
6.03757e-10
6.02875e-10
6.01992e-10
6.01111e-10
6.0023e-10
5.99349e-10
5.9847e-10
5.97591e-10
5.96713e-10
5.95836e-10
5.94959e-10
5.94084e-10
5.93209e-10
5.92335e-10
5.91462e-10
5.9059e-10
5.89719e-10
5.88849e-10
5.87979e-10
5.87111e-10
5.86243e-10
5.85376e-10
5.84509e-10
5.83643e-10
5.82778e-10
5.81913e-10
5.81049e-10
5.80185e-10
5.79322e-10
5.78459e-10
5.77597e-10
5.76735e-10
5.75873e-10
5.75013e-10
5.74152e-10
5.73292e-10
5.72433e-10
5.71574e-10
5.70716e-10
5.69859e-10
5.69001e-10
5.68145e-10
5.67289e-10
5.66434e-10
5.65579e-10
5.64725e-10
5.63871e-10
5.63018e-10
5.62166e-10
5.61314e-10
5.60462e-10
5.59612e-10
5.58762e-10
5.57912e-10
5.57063e-10
5.56214e-10
5.55366e-10
5.54518e-10
5.53671e-10
5.52824e-10
5.51977e-10
5.51132e-10
5.50286e-10
5.49442e-10
5.48598e-10
5.47754e-10
5.46911e-10
5.46069e-10
5.45227e-10
5.44386e-10
5.43546e-10
5.42706e-10
5.41868e-10
5.41029e-10
5.40191e-10
5.39354e-10
5.38518e-10
5.37682e-10
5.36846e-10
5.36012e-10
5.35177e-10
5.34344e-10
5.3351e-10
5.32678e-10
5.31845e-10
5.31014e-10
5.30182e-10
5.29351e-10
5.28521e-10
5.27691e-10
5.26862e-10
5.26033e-10
5.25204e-10
5.24376e-10
5.23548e-10
5.22721e-10
5.21894e-10
5.21068e-10
5.20243e-10
5.19417e-10
5.18593e-10
5.17769e-10
5.16945e-10
5.16122e-10
5.153e-10
5.14478e-10
5.13657e-10
5.12836e-10
5.12016e-10
5.11196e-10
5.10377e-10
5.09558e-10
5.0874e-10
5.07923e-10
5.07106e-10
5.06289e-10
5.05473e-10
5.04658e-10
5.03843e-10
5.03029e-10
5.02215e-10
5.01402e-10
5.00589e-10
4.99777e-10
4.98965e-10
4.98154e-10
4.97344e-10
4.96534e-10
4.95724e-10
4.94915e-10
4.94107e-10
4.93299e-10
4.92492e-10
4.91685e-10
4.90878e-10
4.90072e-10
4.89267e-10
4.88462e-10
4.87658e-10
4.86854e-10
4.86051e-10
4.85248e-10
4.84446e-10
4.83644e-10
4.82843e-10
4.82042e-10
4.81242e-10
4.80442e-10
4.79643e-10
4.78844e-10
4.78046e-10
4.77248e-10
4.76451e-10
4.75655e-10
4.74858e-10
4.74063e-10
4.73268e-10
4.72473e-10
4.71679e-10
4.70885e-10
4.70092e-10
4.693e-10
4.68508e-10
4.67716e-10
4.66925e-10
4.66134e-10
4.65344e-10
4.64555e-10
4.63766e-10
4.62977e-10
4.62189e-10
4.61401e-10
4.60614e-10
4.59828e-10
4.59042e-10
4.58256e-10
4.57471e-10
4.56686e-10
4.55902e-10
4.55119e-10
4.54336e-10
4.53553e-10
4.52771e-10
4.51989e-10
4.51208e-10
4.50428e-10
4.49648e-10
4.48868e-10
4.48089e-10
4.4731e-10
4.46532e-10
4.45755e-10
4.44978e-10
4.44201e-10
4.43425e-10
4.42649e-10
4.41874e-10
4.411e-10
4.40326e-10
4.39552e-10
4.38779e-10
4.38007e-10
4.37234e-10
4.36463e-10
4.35692e-10
4.34921e-10
4.34151e-10
4.33382e-10
4.32613e-10
4.31844e-10
4.31076e-10
4.30309e-10
4.29542e-10
4.28775e-10
4.28009e-10
4.27244e-10
4.26479e-10
4.25714e-10
4.2495e-10
4.24187e-10
4.23424e-10
4.22661e-10
4.21899e-10
4.21138e-10
4.20377e-10
4.19617e-10
4.18857e-10
4.18097e-10
4.17338e-10
4.1658e-10
4.15822e-10
4.15065e-10
4.14308e-10
4.13552e-10
4.12796e-10
4.1204e-10
4.11286e-10
4.10531e-10
4.09778e-10
4.09024e-10
4.08272e-10
4.07519e-10
4.06768e-10
4.06016e-10
4.05266e-10
4.04516e-10
4.03766e-10
4.03017e-10
4.02268e-10
4.0152e-10
4.00773e-10
4.00026e-10
3.99279e-10
3.98533e-10
3.97788e-10
3.97043e-10
3.96298e-10
3.95554e-10
3.94811e-10
3.94068e-10
3.93326e-10
3.92584e-10
3.91842e-10
3.91102e-10
3.90361e-10
3.89622e-10
3.88882e-10
3.88144e-10
3.87406e-10
3.86668e-10
3.85931e-10
3.85194e-10
3.84458e-10
3.83723e-10
3.82988e-10
3.82253e-10
3.81519e-10
3.80786e-10
3.80053e-10
3.79321e-10
3.78589e-10
3.77858e-10
3.77127e-10
3.76397e-10
3.75667e-10
3.74938e-10
3.74209e-10
3.73481e-10
3.72754e-10
3.72027e-10
3.713e-10
3.70574e-10
3.69849e-10
3.69124e-10
3.684e-10
3.67676e-10
3.66953e-10
3.6623e-10
3.65508e-10
3.64787e-10
3.64066e-10
3.63345e-10
3.62625e-10
3.61906e-10
3.61187e-10
3.60469e-10
3.59751e-10
3.59034e-10
3.58317e-10
3.57601e-10
3.56886e-10
3.56171e-10
3.55456e-10
3.54742e-10
3.54029e-10
3.53316e-10
3.52604e-10
3.51892e-10
3.51181e-10
3.50471e-10
3.49761e-10
3.49051e-10
3.48342e-10
3.47634e-10
3.46926e-10
3.46219e-10
3.45513e-10
3.44806e-10
3.44101e-10
3.43396e-10
3.42692e-10
3.41988e-10
3.41285e-10
3.40582e-10
3.3988e-10
3.39178e-10
3.38477e-10
3.37777e-10
3.37077e-10
3.36378e-10
3.35679e-10
3.34981e-10
3.34283e-10
3.33586e-10
3.3289e-10
3.32194e-10
3.31499e-10
3.30804e-10
3.3011e-10
3.29417e-10
3.28724e-10
3.28032e-10
3.2734e-10
3.26649e-10
3.25958e-10
3.25268e-10
3.24579e-10
3.2389e-10
3.23201e-10
3.22514e-10
3.21827e-10
3.2114e-10
3.20454e-10
3.19769e-10
3.19084e-10
3.184e-10
3.17717e-10
3.17034e-10
3.16351e-10
3.15669e-10
3.14988e-10
3.14308e-10
3.13628e-10
3.12948e-10
3.1227e-10
3.11591e-10
3.10914e-10
3.10237e-10
3.0956e-10
3.08885e-10
3.0821e-10
3.07535e-10
3.06861e-10
3.06188e-10
3.05515e-10
3.04843e-10
3.04171e-10
3.035e-10
3.0283e-10
3.0216e-10
3.01491e-10
3.00823e-10
3.00155e-10
2.99488e-10
2.98821e-10
2.98155e-10
2.9749e-10
2.96825e-10
2.96161e-10
2.95497e-10
2.94834e-10
2.94172e-10
2.93511e-10
2.9285e-10
2.92189e-10
2.91529e-10
2.9087e-10
2.90212e-10
2.89554e-10
2.88896e-10
2.8824e-10
2.87584e-10
2.86929e-10
2.86274e-10
2.8562e-10
2.84966e-10
2.84313e-10
2.83661e-10
2.8301e-10
2.82359e-10
2.81708e-10
2.81059e-10
2.8041e-10
2.79761e-10
2.79114e-10
2.78467e-10
2.7782e-10
2.77175e-10
2.76529e-10
2.75885e-10
2.75241e-10
2.74598e-10
2.73955e-10
2.73314e-10
2.72672e-10
2.72032e-10
2.71392e-10
2.70753e-10
2.70114e-10
2.69476e-10
2.68839e-10
2.68202e-10
2.67566e-10
2.66931e-10
2.66296e-10
2.65662e-10
2.65029e-10
2.64397e-10
2.63765e-10
2.63133e-10
2.62503e-10
2.61873e-10
2.61243e-10
2.60615e-10
2.59987e-10
2.5936e-10
2.58733e-10
2.58107e-10
2.57482e-10
2.56857e-10
2.56233e-10
2.5561e-10
2.54988e-10
2.54366e-10
2.53745e-10
2.53124e-10
2.52504e-10
2.51885e-10
2.51267e-10
2.50649e-10
2.50032e-10
2.49416e-10
2.488e-10
2.48185e-10
2.47571e-10
2.46957e-10
2.46344e-10
2.45732e-10
2.45121e-10
2.4451e-10
2.439e-10
2.4329e-10
2.42682e-10
2.42073e-10
2.41466e-10
2.4086e-10
2.40254e-10
2.39648e-10
2.39044e-10
2.3844e-10
2.37837e-10
2.37235e-10
2.36633e-10
2.36032e-10
2.35432e-10
2.34832e-10
2.34234e-10
2.33636e-10
2.33038e-10
2.32442e-10
2.31846e-10
2.3125e-10
2.30656e-10
2.30062e-10
2.29469e-10
2.28877e-10
2.28285e-10
2.27694e-10
2.27104e-10
2.26515e-10
2.25926e-10
2.25338e-10
2.24751e-10
2.24164e-10
2.23578e-10
2.22993e-10
2.22409e-10
2.21826e-10
2.21243e-10
2.20661e-10
2.20079e-10
2.19499e-10
2.18919e-10
2.1834e-10
2.17761e-10
2.17184e-10
2.16607e-10
2.1603e-10
2.15455e-10
2.1488e-10
2.14306e-10
2.13733e-10
2.13161e-10
2.12589e-10
2.12018e-10
2.11448e-10
2.10879e-10
2.1031e-10
2.09742e-10
2.09175e-10
2.08608e-10
2.08043e-10
2.07478e-10
2.06914e-10
2.0635e-10
2.05788e-10
2.05226e-10
2.04665e-10
2.04105e-10
2.03545e-10
2.02986e-10
2.02428e-10
2.01871e-10
2.01315e-10
2.00759e-10
2.00204e-10
1.9965e-10
1.99096e-10
1.98544e-10
1.97992e-10
1.97441e-10
1.96891e-10
1.96341e-10
1.95792e-10
1.95244e-10
1.94697e-10
1.94151e-10
1.93605e-10
1.93061e-10
1.92517e-10
1.91973e-10
1.91431e-10
1.90889e-10
1.90348e-10
1.89808e-10
1.89269e-10
1.8873e-10
1.88193e-10
1.87656e-10
1.8712e-10
1.86584e-10
1.8605e-10
1.85516e-10
1.84983e-10
1.84451e-10
1.8392e-10
1.83389e-10
1.82859e-10
1.82331e-10
1.81802e-10
1.81275e-10
1.80749e-10
1.80223e-10
1.79698e-10
1.79174e-10
1.78651e-10
1.78128e-10
1.77606e-10
1.77086e-10
1.76565e-10
1.76046e-10
1.75528e-10
1.7501e-10
1.74493e-10
1.73977e-10
1.73462e-10
1.72948e-10
1.72434e-10
1.71922e-10
1.7141e-10
1.70899e-10
1.70389e-10
1.69879e-10
1.69371e-10
1.68863e-10
1.68356e-10
1.6785e-10
1.67344e-10
1.6684e-10
1.66336e-10
1.65834e-10
1.65332e-10
1.6483e-10
1.6433e-10
1.63831e-10
1.63332e-10
1.62834e-10
1.62337e-10
1.61841e-10
1.61346e-10
1.60851e-10
1.60358e-10
1.59865e-10
1.59373e-10
1.58882e-10
1.58392e-10
1.57902e-10
1.57414e-10
1.56926e-10
1.56439e-10
1.55953e-10
1.55468e-10
1.54983e-10
1.545e-10
1.54017e-10
1.53535e-10
1.53054e-10
1.52574e-10
1.52095e-10
1.51617e-10
1.51139e-10
1.50662e-10
1.50186e-10
1.49711e-10
1.49237e-10
1.48764e-10
1.48292e-10
1.4782e-10
1.47349e-10
1.46879e-10
1.4641e-10
1.45942e-10
1.45475e-10
1.45009e-10
1.44543e-10
1.44078e-10
1.43615e-10
1.43152e-10
1.42689e-10
1.42228e-10
1.41768e-10
1.41308e-10
1.4085e-10
1.40392e-10
1.39935e-10
1.39479e-10
1.39024e-10
1.3857e-10
1.38116e-10
1.37664e-10
1.37212e-10
1.36761e-10
1.36311e-10
1.35862e-10
1.35414e-10
1.34967e-10
1.3452e-10
1.34075e-10
1.3363e-10
1.33186e-10
1.32743e-10
1.32301e-10
1.3186e-10
1.3142e-10
1.3098e-10
1.30542e-10
1.30104e-10
1.29667e-10
1.29231e-10
1.28796e-10
1.28362e-10
1.27929e-10
1.27497e-10
1.27065e-10
1.26635e-10
1.26205e-10
1.25776e-10
1.25348e-10
1.24921e-10
1.24495e-10
1.2407e-10
1.23645e-10
1.23222e-10
1.22799e-10
1.22378e-10
1.21957e-10
1.21537e-10
1.21118e-10
1.207e-10
1.20282e-10
1.19866e-10
1.19451e-10
1.19036e-10
1.18622e-10
1.18209e-10
1.17798e-10
1.17387e-10
1.16976e-10
1.16567e-10
1.16159e-10
1.15751e-10
1.15345e-10
1.14939e-10
1.14535e-10
1.14131e-10
1.13728e-10
1.13326e-10
1.12925e-10
1.12524e-10
1.12125e-10
1.11726e-10
1.11329e-10
1.10932e-10
1.10536e-10
1.10142e-10
1.09748e-10
1.09355e-10
1.08962e-10
1.08571e-10
1.08181e-10
1.07791e-10
1.07403e-10
1.07015e-10
1.06628e-10
1.06242e-10
1.05857e-10
1.05473e-10
1.0509e-10
1.04708e-10
1.04327e-10
1.03946e-10
1.03567e-10
1.03188e-10
1.0281e-10
1.02433e-10
1.02057e-10
1.01682e-10
1.01308e-10
1.00935e-10
1.00563e-10
1.00191e-10
9.98207e-11
9.9451e-11
9.90823e-11
9.87145e-11
9.83475e-11
9.79815e-11
9.76163e-11
9.72521e-11
9.68888e-11
9.65263e-11
9.61648e-11
9.58042e-11
9.54444e-11
9.50856e-11
9.47277e-11
9.43706e-11
9.40145e-11
9.36592e-11
9.33049e-11
9.29514e-11
9.25988e-11
9.22472e-11
9.18964e-11
9.15465e-11
9.11975e-11
9.08494e-11
9.05022e-11
9.01559e-11
8.98105e-11
8.94659e-11
8.91223e-11
8.87795e-11
8.84376e-11
8.80966e-11
8.77565e-11
8.74172e-11
8.70789e-11
8.67414e-11
8.64048e-11
8.60691e-11
8.57343e-11
8.54003e-11
8.50672e-11
8.4735e-11
8.44036e-11
8.40731e-11
8.37435e-11
8.34148e-11
8.30869e-11
8.27599e-11
8.24337e-11
8.21085e-11
8.1784e-11
8.14605e-11
8.11378e-11
8.08159e-11
8.0495e-11
8.01748e-11
7.98556e-11
7.95372e-11
7.92197e-11
7.8903e-11
7.85872e-11
7.82723e-11
7.79583e-11
7.76451e-11
7.73328e-11
7.70214e-11
7.67109e-11
7.64013e-11
7.60927e-11
7.57849e-11
7.54781e-11
7.51723e-11
7.48675e-11
7.45638e-11
7.42611e-11
7.39595e-11
7.3659e-11
7.33598e-11
7.30619e-11
7.27653e-11
7.24702e-11
7.21766e-11
7.18848e-11
7.1595e-11
7.13073e-11
7.10221e-11
7.074e-11
7.04616e-11
7.01881e-11
6.9921e-11
6.96628e-11
6.94167e-11
6.91876e-11
6.89822e-11
6.88093e-11
6.86787e-11
6.86074e-11
6.86409e-11
6.87924e-11
2.53929e-06
4.1155e-07
1.08166e-07
4.13574e-08
2.14578e-08
1.39353e-08
1.05833e-08
8.91959e-09
8.03137e-09
7.53151e-09
7.23817e-09
7.05941e-09
6.94621e-09
6.87146e-09
6.81973e-09
6.78213e-09
6.75342e-09
6.73053e-09
6.7116e-09
6.69548e-09
6.68147e-09
6.6691e-09
6.65805e-09
6.64811e-09
6.6391e-09
6.6309e-09
6.6234e-09
6.61652e-09
6.61019e-09
6.60435e-09
6.59894e-09
6.59392e-09
6.58925e-09
6.5849e-09
6.58084e-09
6.57704e-09
6.57348e-09
6.57013e-09
6.56698e-09
6.56401e-09
6.5612e-09
6.55855e-09
6.55603e-09
6.55364e-09
6.55137e-09
6.54921e-09
6.54714e-09
6.54517e-09
6.54328e-09
6.54147e-09
6.53973e-09
6.53806e-09
6.53645e-09
6.53489e-09
6.53339e-09
6.53194e-09
6.53053e-09
6.52917e-09
6.52784e-09
6.52655e-09
6.52529e-09
6.52407e-09
6.52287e-09
6.5217e-09
6.52055e-09
6.51943e-09
6.51832e-09
6.51724e-09
6.51617e-09
6.51511e-09
6.51407e-09
6.51304e-09
6.51202e-09
6.51101e-09
6.51001e-09
6.50902e-09
6.50804e-09
6.50706e-09
6.50609e-09
6.50513e-09
6.50417e-09
6.50322e-09
6.50227e-09
6.50133e-09
6.5004e-09
6.49947e-09
6.49854e-09
6.49762e-09
6.49671e-09
6.4958e-09
6.49489e-09
6.49399e-09
6.49309e-09
6.4922e-09
6.4913e-09
6.49041e-09
6.48953e-09
6.48865e-09
6.48777e-09
6.48689e-09
6.48602e-09
6.48515e-09
6.48428e-09
6.48341e-09
6.48255e-09
6.48169e-09
6.48083e-09
6.47998e-09
6.47912e-09
6.47827e-09
6.47741e-09
6.47656e-09
6.47571e-09
6.47487e-09
6.47402e-09
6.47317e-09
6.47232e-09
6.47147e-09
6.47063e-09
6.46978e-09
6.46894e-09
6.46809e-09
6.46725e-09
6.46641e-09
6.46556e-09
6.46472e-09
6.46388e-09
6.46304e-09
6.4622e-09
6.46137e-09
6.46053e-09
6.45969e-09
6.45886e-09
6.45803e-09
6.45719e-09
6.45636e-09
6.45553e-09
6.45471e-09
6.45388e-09
6.45305e-09
6.45223e-09
6.45141e-09
6.45058e-09
6.44976e-09
6.44894e-09
6.44812e-09
6.4473e-09
6.44649e-09
6.44567e-09
6.44485e-09
6.44404e-09
6.44322e-09
6.44241e-09
6.4416e-09
6.44079e-09
6.43998e-09
6.43917e-09
6.43836e-09
6.43755e-09
6.43674e-09
6.43593e-09
6.43513e-09
6.43432e-09
6.43352e-09
6.43271e-09
6.43191e-09
6.43111e-09
6.43031e-09
6.42951e-09
6.42871e-09
6.42791e-09
6.42712e-09
6.42632e-09
6.42552e-09
6.42473e-09
6.42394e-09
6.42314e-09
6.42235e-09
6.42156e-09
6.42077e-09
6.41998e-09
6.41919e-09
6.4184e-09
6.41762e-09
6.41683e-09
6.41604e-09
6.41526e-09
6.41448e-09
6.41369e-09
6.41291e-09
6.41213e-09
6.41135e-09
6.41057e-09
6.40979e-09
6.40901e-09
6.40824e-09
6.40746e-09
6.40669e-09
6.40591e-09
6.40514e-09
6.40437e-09
6.4036e-09
6.40283e-09
6.40206e-09
6.40129e-09
6.40053e-09
6.39976e-09
6.399e-09
6.39823e-09
6.39747e-09
6.3967e-09
6.39594e-09
6.39518e-09
6.39442e-09
6.39366e-09
6.3929e-09
6.39214e-09
6.39139e-09
6.39063e-09
6.38987e-09
6.38912e-09
6.38836e-09
6.38761e-09
6.38686e-09
6.38611e-09
6.38535e-09
6.3846e-09
6.38386e-09
6.38311e-09
6.38236e-09
6.38161e-09
6.38087e-09
6.38012e-09
6.37938e-09
6.37864e-09
6.3779e-09
6.37715e-09
6.37641e-09
6.37567e-09
6.37494e-09
6.3742e-09
6.37346e-09
6.37273e-09
6.37199e-09
6.37126e-09
6.37052e-09
6.36979e-09
6.36906e-09
6.36833e-09
6.3676e-09
6.36687e-09
6.36614e-09
6.36541e-09
6.36469e-09
6.36396e-09
6.36324e-09
6.36251e-09
6.36179e-09
6.36107e-09
6.36035e-09
6.35963e-09
6.35891e-09
6.35819e-09
6.35747e-09
6.35675e-09
6.35604e-09
6.35532e-09
6.35461e-09
6.3539e-09
6.35318e-09
6.35247e-09
6.35176e-09
6.35105e-09
6.35034e-09
6.34963e-09
6.34892e-09
6.34822e-09
6.34751e-09
6.34681e-09
6.3461e-09
6.3454e-09
6.34469e-09
6.34399e-09
6.34329e-09
6.34259e-09
6.34189e-09
6.34119e-09
6.3405e-09
6.3398e-09
6.3391e-09
6.33841e-09
6.33771e-09
6.33702e-09
6.33633e-09
6.33564e-09
6.33495e-09
6.33426e-09
6.33357e-09
6.33288e-09
6.33219e-09
6.3315e-09
6.33082e-09
6.33013e-09
6.32945e-09
6.32876e-09
6.32808e-09
6.3274e-09
6.32672e-09
6.32604e-09
6.32536e-09
6.32468e-09
6.324e-09
6.32333e-09
6.32265e-09
6.32197e-09
6.3213e-09
6.32063e-09
6.31995e-09
6.31928e-09
6.31861e-09
6.31794e-09
6.31727e-09
6.3166e-09
6.31593e-09
6.31527e-09
6.3146e-09
6.31394e-09
6.31327e-09
6.31261e-09
6.31194e-09
6.31128e-09
6.31062e-09
6.30996e-09
6.3093e-09
6.30864e-09
6.30798e-09
6.30733e-09
6.30667e-09
6.30601e-09
6.30536e-09
6.30471e-09
6.30405e-09
6.3034e-09
6.30275e-09
6.3021e-09
6.30145e-09
6.3008e-09
6.30015e-09
6.2995e-09
6.29886e-09
6.29821e-09
6.29757e-09
6.29692e-09
6.29628e-09
6.29564e-09
6.29499e-09
6.29435e-09
6.29371e-09
6.29307e-09
6.29244e-09
6.2918e-09
6.29116e-09
6.29053e-09
6.28989e-09
6.28926e-09
6.28862e-09
6.28799e-09
6.28736e-09
6.28673e-09
6.2861e-09
6.28547e-09
6.28484e-09
6.28421e-09
6.28358e-09
6.28296e-09
6.28233e-09
6.28171e-09
6.28108e-09
6.28046e-09
6.27984e-09
6.27921e-09
6.27859e-09
6.27797e-09
6.27735e-09
6.27674e-09
6.27612e-09
6.2755e-09
6.27489e-09
6.27427e-09
6.27366e-09
6.27304e-09
6.27243e-09
6.27182e-09
6.27121e-09
6.2706e-09
6.26999e-09
6.26938e-09
6.26877e-09
6.26816e-09
6.26756e-09
6.26695e-09
6.26635e-09
6.26574e-09
6.26514e-09
6.26454e-09
6.26394e-09
6.26333e-09
6.26273e-09
6.26214e-09
6.26154e-09
6.26094e-09
6.26034e-09
6.25975e-09
6.25915e-09
6.25856e-09
6.25796e-09
6.25737e-09
6.25678e-09
6.25619e-09
6.2556e-09
6.25501e-09
6.25442e-09
6.25383e-09
6.25324e-09
6.25266e-09
6.25207e-09
6.25148e-09
6.2509e-09
6.25032e-09
6.24973e-09
6.24915e-09
6.24857e-09
6.24799e-09
6.24741e-09
6.24683e-09
6.24625e-09
6.24568e-09
6.2451e-09
6.24452e-09
6.24395e-09
6.24338e-09
6.2428e-09
6.24223e-09
6.24166e-09
6.24109e-09
6.24052e-09
6.23995e-09
6.23938e-09
6.23881e-09
6.23824e-09
6.23768e-09
6.23711e-09
6.23655e-09
6.23598e-09
6.23542e-09
6.23486e-09
6.23429e-09
6.23373e-09
6.23317e-09
6.23261e-09
6.23205e-09
6.2315e-09
6.23094e-09
6.23038e-09
6.22983e-09
6.22927e-09
6.22872e-09
6.22816e-09
6.22761e-09
6.22706e-09
6.22651e-09
6.22596e-09
6.22541e-09
6.22486e-09
6.22431e-09
6.22377e-09
6.22322e-09
6.22267e-09
6.22213e-09
6.22158e-09
6.22104e-09
6.2205e-09
6.21996e-09
6.21941e-09
6.21887e-09
6.21833e-09
6.2178e-09
6.21726e-09
6.21672e-09
6.21618e-09
6.21565e-09
6.21511e-09
6.21458e-09
6.21404e-09
6.21351e-09
6.21298e-09
6.21245e-09
6.21192e-09
6.21139e-09
6.21086e-09
6.21033e-09
6.2098e-09
6.20928e-09
6.20875e-09
6.20822e-09
6.2077e-09
6.20718e-09
6.20665e-09
6.20613e-09
6.20561e-09
6.20509e-09
6.20457e-09
6.20405e-09
6.20353e-09
6.20301e-09
6.20249e-09
6.20198e-09
6.20146e-09
6.20095e-09
6.20043e-09
6.19992e-09
6.19941e-09
6.19889e-09
6.19838e-09
6.19787e-09
6.19736e-09
6.19685e-09
6.19634e-09
6.19584e-09
6.19533e-09
6.19482e-09
6.19432e-09
6.19381e-09
6.19331e-09
6.19281e-09
6.1923e-09
6.1918e-09
6.1913e-09
6.1908e-09
6.1903e-09
6.1898e-09
6.1893e-09
6.18881e-09
6.18831e-09
6.18781e-09
6.18732e-09
6.18682e-09
6.18633e-09
6.18584e-09
6.18534e-09
6.18485e-09
6.18436e-09
6.18387e-09
6.18338e-09
6.18289e-09
6.18241e-09
6.18192e-09
6.18143e-09
6.18095e-09
6.18046e-09
6.17998e-09
6.17949e-09
6.17901e-09
6.17853e-09
6.17805e-09
6.17756e-09
6.17708e-09
6.17661e-09
6.17613e-09
6.17565e-09
6.17517e-09
6.17469e-09
6.17422e-09
6.17374e-09
6.17327e-09
6.1728e-09
6.17232e-09
6.17185e-09
6.17138e-09
6.17091e-09
6.17044e-09
6.16997e-09
6.1695e-09
6.16903e-09
6.16856e-09
6.1681e-09
6.16763e-09
6.16717e-09
6.1667e-09
6.16624e-09
6.16577e-09
6.16531e-09
6.16485e-09
6.16439e-09
6.16393e-09
6.16347e-09
6.16301e-09
6.16255e-09
6.1621e-09
6.16164e-09
6.16118e-09
6.16073e-09
6.16027e-09
6.15982e-09
6.15937e-09
6.15891e-09
6.15846e-09
6.15801e-09
6.15756e-09
6.15711e-09
6.15666e-09
6.15621e-09
6.15576e-09
6.15532e-09
6.15487e-09
6.15442e-09
6.15398e-09
6.15354e-09
6.15309e-09
6.15265e-09
6.15221e-09
6.15176e-09
6.15132e-09
6.15088e-09
6.15044e-09
6.15001e-09
6.14957e-09
6.14913e-09
6.14869e-09
6.14826e-09
6.14782e-09
6.14739e-09
6.14695e-09
6.14652e-09
6.14609e-09
6.14566e-09
6.14522e-09
6.14479e-09
6.14436e-09
6.14393e-09
6.14351e-09
6.14308e-09
6.14265e-09
6.14222e-09
6.1418e-09
6.14137e-09
6.14095e-09
6.14052e-09
6.1401e-09
6.13968e-09
6.13926e-09
6.13884e-09
6.13842e-09
6.138e-09
6.13758e-09
6.13716e-09
6.13674e-09
6.13632e-09
6.13591e-09
6.13549e-09
6.13508e-09
6.13466e-09
6.13425e-09
6.13384e-09
6.13342e-09
6.13301e-09
6.1326e-09
6.13219e-09
6.13178e-09
6.13137e-09
6.13096e-09
6.13055e-09
6.13015e-09
6.12974e-09
6.12934e-09
6.12893e-09
6.12853e-09
6.12812e-09
6.12772e-09
6.12732e-09
6.12691e-09
6.12651e-09
6.12611e-09
6.12571e-09
6.12531e-09
6.12492e-09
6.12452e-09
6.12412e-09
6.12372e-09
6.12333e-09
6.12293e-09
6.12254e-09
6.12214e-09
6.12175e-09
6.12136e-09
6.12097e-09
6.12058e-09
6.12018e-09
6.11979e-09
6.1194e-09
6.11902e-09
6.11863e-09
6.11824e-09
6.11785e-09
6.11747e-09
6.11708e-09
6.1167e-09
6.11631e-09
6.11593e-09
6.11555e-09
6.11516e-09
6.11478e-09
6.1144e-09
6.11402e-09
6.11364e-09
6.11326e-09
6.11288e-09
6.11251e-09
6.11213e-09
6.11175e-09
6.11138e-09
6.111e-09
6.11063e-09
6.11025e-09
6.10988e-09
6.10951e-09
6.10914e-09
6.10876e-09
6.10839e-09
6.10802e-09
6.10765e-09
6.10729e-09
6.10692e-09
6.10655e-09
6.10618e-09
6.10582e-09
6.10545e-09
6.10509e-09
6.10472e-09
6.10436e-09
6.104e-09
6.10363e-09
6.10327e-09
6.10291e-09
6.10255e-09
6.10219e-09
6.10183e-09
6.10147e-09
6.10111e-09
6.10076e-09
6.1004e-09
6.10004e-09
6.09969e-09
6.09933e-09
6.09898e-09
6.09862e-09
6.09827e-09
6.09792e-09
6.09757e-09
6.09722e-09
6.09686e-09
6.09651e-09
6.09617e-09
6.09582e-09
6.09547e-09
6.09512e-09
6.09477e-09
6.09443e-09
6.09408e-09
6.09374e-09
6.09339e-09
6.09305e-09
6.09271e-09
6.09236e-09
6.09202e-09
6.09168e-09
6.09134e-09
6.091e-09
6.09066e-09
6.09032e-09
6.08998e-09
6.08965e-09
6.08931e-09
6.08897e-09
6.08864e-09
6.0883e-09
6.08797e-09
6.08763e-09
6.0873e-09
6.08697e-09
6.08663e-09
6.0863e-09
6.08597e-09
6.08564e-09
6.08531e-09
6.08498e-09
6.08465e-09
6.08433e-09
6.084e-09
6.08367e-09
6.08335e-09
6.08302e-09
6.0827e-09
6.08237e-09
6.08205e-09
6.08172e-09
6.0814e-09
6.08108e-09
6.08076e-09
6.08044e-09
6.08012e-09
6.0798e-09
6.07948e-09
6.07916e-09
6.07884e-09
6.07853e-09
6.07821e-09
6.07789e-09
6.07758e-09
6.07726e-09
6.07695e-09
6.07664e-09
6.07632e-09
6.07601e-09
6.0757e-09
6.07539e-09
6.07508e-09
6.07477e-09
6.07446e-09
6.07415e-09
6.07384e-09
6.07353e-09
6.07323e-09
6.07292e-09
6.07261e-09
6.07231e-09
6.072e-09
6.0717e-09
6.0714e-09
6.07109e-09
6.07079e-09
6.07049e-09
6.07019e-09
6.06989e-09
6.06959e-09
6.06929e-09
6.06899e-09
6.06869e-09
6.06839e-09
6.06809e-09
6.0678e-09
6.0675e-09
6.06721e-09
6.06691e-09
6.06662e-09
6.06632e-09
6.06603e-09
6.06574e-09
6.06545e-09
6.06515e-09
6.06486e-09
6.06457e-09
6.06428e-09
6.06399e-09
6.06371e-09
6.06342e-09
6.06313e-09
6.06284e-09
6.06256e-09
6.06227e-09
6.06199e-09
6.0617e-09
6.06142e-09
6.06114e-09
6.06085e-09
6.06057e-09
6.06029e-09
6.06001e-09
6.05973e-09
6.05945e-09
6.05917e-09
6.05889e-09
6.05861e-09
6.05833e-09
6.05806e-09
6.05778e-09
6.0575e-09
6.05723e-09
6.05695e-09
6.05668e-09
6.0564e-09
6.05613e-09
6.05586e-09
6.05559e-09
6.05531e-09
6.05504e-09
6.05477e-09
6.0545e-09
6.05423e-09
6.05396e-09
6.0537e-09
6.05343e-09
6.05316e-09
6.05289e-09
6.05263e-09
6.05236e-09
6.0521e-09
6.05183e-09
6.05157e-09
6.05131e-09
6.05104e-09
6.05078e-09
6.05052e-09
6.05026e-09
6.05e-09
6.04974e-09
6.04948e-09
6.04922e-09
6.04896e-09
6.0487e-09
6.04845e-09
6.04819e-09
6.04793e-09
6.04768e-09
6.04742e-09
6.04717e-09
6.04691e-09
6.04666e-09
6.04641e-09
6.04615e-09
6.0459e-09
6.04565e-09
6.0454e-09
6.04515e-09
6.0449e-09
6.04465e-09
6.0444e-09
6.04415e-09
6.04391e-09
6.04366e-09
6.04341e-09
6.04317e-09
6.04292e-09
6.04268e-09
6.04243e-09
6.04219e-09
6.04195e-09
6.0417e-09
6.04146e-09
6.04122e-09
6.04098e-09
6.04074e-09
6.0405e-09
6.04026e-09
6.04002e-09
6.03978e-09
6.03955e-09
6.03931e-09
6.03907e-09
6.03884e-09
6.0386e-09
6.03837e-09
6.03813e-09
6.0379e-09
6.03767e-09
6.03744e-09
6.03721e-09
6.03698e-09
6.03675e-09
6.03652e-09
6.03629e-09
6.03607e-09
6.03584e-09
6.03562e-09
6.03539e-09
6.03517e-09
6.03495e-09
6.03473e-09
6.03451e-09
6.0343e-09
6.03408e-09
6.03387e-09
6.03365e-09
6.03344e-09
6.03323e-09
6.03302e-09
6.03282e-09
6.03261e-09
6.0324e-09
6.03219e-09
6.03198e-09
6.03176e-09
6.03155e-09
6.03133e-09
6.03112e-09
6.03094e-09
6.03079e-09
6.0307e-09
6.03072e-09
6.03083e-09
1.80179e-05
3.88846e-06
1.35607e-06
6.04915e-07
3.34618e-07
2.23332e-07
1.72589e-07
1.47699e-07
1.34884e-07
1.28096e-07
1.24455e-07
1.22502e-07
1.21469e-07
1.20938e-07
1.20678e-07
1.20562e-07
1.20521e-07
1.20517e-07
1.2053e-07
1.20549e-07
1.20569e-07
1.20588e-07
1.20605e-07
1.2062e-07
1.20633e-07
1.20645e-07
1.20655e-07
1.20663e-07
1.20671e-07
1.20677e-07
1.20683e-07
1.20688e-07
1.20692e-07
1.20696e-07
1.207e-07
1.20703e-07
1.20705e-07
1.20708e-07
1.2071e-07
1.20712e-07
1.20713e-07
1.20715e-07
1.20716e-07
1.20717e-07
1.20718e-07
1.20719e-07
1.2072e-07
1.20721e-07
1.20721e-07
1.20722e-07
1.20722e-07
1.20723e-07
1.20723e-07
1.20723e-07
1.20723e-07
1.20723e-07
1.20723e-07
1.20723e-07
1.20723e-07
1.20723e-07
1.20723e-07
1.20723e-07
1.20723e-07
1.20723e-07
1.20722e-07
1.20722e-07
1.20722e-07
1.20721e-07
1.20721e-07
1.2072e-07
1.2072e-07
1.20719e-07
1.20719e-07
1.20718e-07
1.20717e-07
1.20716e-07
1.20715e-07
1.20715e-07
1.20714e-07
1.20713e-07
1.20712e-07
1.20711e-07
1.2071e-07
1.2071e-07
1.20709e-07
1.20708e-07
1.20707e-07
1.20706e-07
1.20706e-07
1.20705e-07
1.20704e-07
1.20703e-07
1.20703e-07
1.20702e-07
1.20701e-07
1.20701e-07
1.207e-07
1.20699e-07
1.20699e-07
1.20698e-07
1.20697e-07
1.20697e-07
1.20696e-07
1.20695e-07
1.20695e-07
1.20694e-07
1.20694e-07
1.20693e-07
1.20692e-07
1.20692e-07
1.20691e-07
1.2069e-07
1.2069e-07
1.20689e-07
1.20688e-07
1.20687e-07
1.20687e-07
1.20686e-07
1.20685e-07
1.20685e-07
1.20684e-07
1.20683e-07
1.20682e-07
1.20682e-07
1.20681e-07
1.2068e-07
1.20679e-07
1.20679e-07
1.20678e-07
1.20677e-07
1.20677e-07
1.20676e-07
1.20675e-07
1.20675e-07
1.20674e-07
1.20673e-07
1.20673e-07
1.20672e-07
1.20671e-07
1.20671e-07
1.2067e-07
1.2067e-07
1.20669e-07
1.20668e-07
1.20668e-07
1.20667e-07
1.20666e-07
1.20666e-07
1.20665e-07
1.20664e-07
1.20664e-07
1.20663e-07
1.20663e-07
1.20662e-07
1.20661e-07
1.20661e-07
1.2066e-07
1.20659e-07
1.20659e-07
1.20658e-07
1.20657e-07
1.20657e-07
1.20656e-07
1.20655e-07
1.20655e-07
1.20654e-07
1.20654e-07
1.20653e-07
1.20652e-07
1.20652e-07
1.20651e-07
1.2065e-07
1.2065e-07
1.20649e-07
1.20649e-07
1.20648e-07
1.20647e-07
1.20647e-07
1.20646e-07
1.20646e-07
1.20645e-07
1.20644e-07
1.20644e-07
1.20643e-07
1.20642e-07
1.20642e-07
1.20641e-07
1.20641e-07
1.2064e-07
1.20639e-07
1.20639e-07
1.20638e-07
1.20638e-07
1.20637e-07
1.20636e-07
1.20636e-07
1.20635e-07
1.20635e-07
1.20634e-07
1.20633e-07
1.20633e-07
1.20632e-07
1.20632e-07
1.20631e-07
1.2063e-07
1.2063e-07
1.20629e-07
1.20629e-07
1.20628e-07
1.20627e-07
1.20627e-07
1.20626e-07
1.20626e-07
1.20625e-07
1.20624e-07
1.20624e-07
1.20623e-07
1.20623e-07
1.20622e-07
1.20622e-07
1.20621e-07
1.2062e-07
1.2062e-07
1.20619e-07
1.20619e-07
1.20618e-07
1.20617e-07
1.20617e-07
1.20616e-07
1.20616e-07
1.20615e-07
1.20615e-07
1.20614e-07
1.20613e-07
1.20613e-07
1.20612e-07
1.20612e-07
1.20611e-07
1.20611e-07
1.2061e-07
1.20609e-07
1.20609e-07
1.20608e-07
1.20608e-07
1.20607e-07
1.20607e-07
1.20606e-07
1.20606e-07
1.20605e-07
1.20604e-07
1.20604e-07
1.20603e-07
1.20603e-07
1.20602e-07
1.20602e-07
1.20601e-07
1.20601e-07
1.206e-07
1.20599e-07
1.20599e-07
1.20598e-07
1.20598e-07
1.20597e-07
1.20597e-07
1.20596e-07
1.20596e-07
1.20595e-07
1.20595e-07
1.20594e-07
1.20593e-07
1.20593e-07
1.20592e-07
1.20592e-07
1.20591e-07
1.20591e-07
1.2059e-07
1.2059e-07
1.20589e-07
1.20589e-07
1.20588e-07
1.20588e-07
1.20587e-07
1.20587e-07
1.20586e-07
1.20585e-07
1.20585e-07
1.20584e-07
1.20584e-07
1.20583e-07
1.20583e-07
1.20582e-07
1.20582e-07
1.20581e-07
1.20581e-07
1.2058e-07
1.2058e-07
1.20579e-07
1.20579e-07
1.20578e-07
1.20578e-07
1.20577e-07
1.20577e-07
1.20576e-07
1.20576e-07
1.20575e-07
1.20575e-07
1.20574e-07
1.20573e-07
1.20573e-07
1.20572e-07
1.20572e-07
1.20571e-07
1.20571e-07
1.2057e-07
1.2057e-07
1.20569e-07
1.20569e-07
1.20568e-07
1.20568e-07
1.20567e-07
1.20567e-07
1.20566e-07
1.20566e-07
1.20565e-07
1.20565e-07
1.20564e-07
1.20564e-07
1.20563e-07
1.20563e-07
1.20562e-07
1.20562e-07
1.20561e-07
1.20561e-07
1.2056e-07
1.2056e-07
1.20559e-07
1.20559e-07
1.20558e-07
1.20558e-07
1.20558e-07
1.20557e-07
1.20557e-07
1.20556e-07
1.20556e-07
1.20555e-07
1.20555e-07
1.20554e-07
1.20554e-07
1.20553e-07
1.20553e-07
1.20552e-07
1.20552e-07
1.20551e-07
1.20551e-07
1.2055e-07
1.2055e-07
1.20549e-07
1.20549e-07
1.20548e-07
1.20548e-07
1.20547e-07
1.20547e-07
1.20547e-07
1.20546e-07
1.20546e-07
1.20545e-07
1.20545e-07
1.20544e-07
1.20544e-07
1.20543e-07
1.20543e-07
1.20542e-07
1.20542e-07
1.20541e-07
1.20541e-07
1.20541e-07
1.2054e-07
1.2054e-07
1.20539e-07
1.20539e-07
1.20538e-07
1.20538e-07
1.20537e-07
1.20537e-07
1.20536e-07
1.20536e-07
1.20536e-07
1.20535e-07
1.20535e-07
1.20534e-07
1.20534e-07
1.20533e-07
1.20533e-07
1.20532e-07
1.20532e-07
1.20531e-07
1.20531e-07
1.20531e-07
1.2053e-07
1.2053e-07
1.20529e-07
1.20529e-07
1.20528e-07
1.20528e-07
1.20528e-07
1.20527e-07
1.20527e-07
1.20526e-07
1.20526e-07
1.20525e-07
1.20525e-07
1.20524e-07
1.20524e-07
1.20524e-07
1.20523e-07
1.20523e-07
1.20522e-07
1.20522e-07
1.20521e-07
1.20521e-07
1.20521e-07
1.2052e-07
1.2052e-07
1.20519e-07
1.20519e-07
1.20518e-07
1.20518e-07
1.20518e-07
1.20517e-07
1.20517e-07
1.20516e-07
1.20516e-07
1.20516e-07
1.20515e-07
1.20515e-07
1.20514e-07
1.20514e-07
1.20513e-07
1.20513e-07
1.20513e-07
1.20512e-07
1.20512e-07
1.20511e-07
1.20511e-07
1.20511e-07
1.2051e-07
1.2051e-07