/*--------------------------------*- C++ -*----------------------------------*\
| =========                 |                                                 |
| \\      /  F ield         | OpenFOAM: The Open Source CFD Toolbox           |
|  \\    /   O peration     | Version:  2512                                  |
|   \\  /    A nd           | Website:  www.openfoam.com                      |
|    \\/     M anipulation  |                                                 |
\*---------------------------------------------------------------------------*/
FoamFile
{
    version     2.0;
    format      ascii;
    arch        "LSB;label=32;scalar=64";
    class       volScalarField;
    location    "0.006";
    object      p;
}
// * * * * * * * * * * * * * * * * * * * * * * * * * * * * * * * * * * * * * //

dimensions      [1 -1 -2 0 0 0 0];

internalField   nonuniform List<scalar> 
100000
(
0
-62.12
-90.0499
-103.029
-110.508
-115.178
-118.235
-120.364
-121.946
-123.188
-124.209
-125.08
-125.845
-126.533
-127.164
-127.748
-128.294
-128.809
-129.296
-129.759
-130.2
-130.622
-131.026
-131.413
-131.785
-132.143
-132.488
-132.821
-133.143
-133.455
-133.756
-134.049
-134.333
-134.608
-134.877
-135.138
-135.392
-135.641
-135.883
-136.119
-136.351
-136.577
-136.798
-137.015
-137.227
-137.435
-137.639
-137.839
-138.035
-138.228
-138.418
-138.604
-138.787
-138.966
-139.143
-139.317
-139.488
-139.656
-139.822
-139.985
-140.145
-140.303
-140.458
-140.611
-140.761
-140.909
-141.055
-141.198
-141.339
-141.478
-141.615
-141.75
-141.882
-142.012
-142.14
-142.266
-142.389
-142.511
-142.63
-142.748
-142.863
-142.976
-143.086
-143.195
-143.301
-143.406
-143.508
-143.608
-143.705
-143.801
-143.894
-143.986
-144.075
-144.161
-144.246
-144.329
-144.409
-144.487
-144.563
-144.637
-144.708
-144.777
-144.844
-144.909
-144.972
-145.032
-145.09
-145.146
-145.199
-145.25
-145.299
-145.346
-145.391
-145.433
-145.472
-145.51
-145.545
-145.578
-145.608
-145.636
-145.662
-145.685
-145.706
-145.725
-145.741
-145.754
-145.765
-145.774
-145.78
-145.784
-145.785
-145.784
-145.78
-145.773
-145.764
-145.753
-145.739
-145.722
-145.702
-145.681
-145.656
-145.629
-145.599
-145.567
-145.531
-145.493
-145.453
-145.41
-145.364
-145.315
-145.264
-145.209
-145.152
-145.093
-145.03
-144.965
-144.896
-144.825
-144.751
-144.674
-144.595
-144.512
-144.427
-144.338
-144.247
-144.152
-144.055
-143.954
-143.851
-143.745
-143.635
-143.523
-143.407
-143.288
-143.166
-143.042
-142.914
-142.782
-142.648
-142.51
-142.37
-142.226
-142.079
-141.928
-141.774
-141.617
-141.457
-141.294
-141.127
-140.956
-140.783
-140.606
-140.425
-140.241
-140.054
-139.863
-139.669
-139.472
-139.27
-139.066
-138.858
-138.646
-138.43
-138.211
-137.989
-137.763
-137.533
-137.299
-137.062
-136.821
-136.577
-136.329
-136.076
-135.821
-135.561
-135.298
-135.03
-134.759
-134.484
-134.205
-133.923
-133.636
-133.345
-133.051
-132.752
-132.449
-132.143
-131.832
-131.517
-131.199
-130.876
-130.549
-130.218
-129.882
-129.543
-129.199
-128.851
-128.499
-128.142
-127.782
-127.417
-127.047
-126.674
-126.296
-125.913
-125.526
-125.135
-124.739
-124.339
-123.934
-123.525
-123.111
-122.693
-122.27
-121.843
-121.411
-120.974
-120.532
-120.086
-119.636
-119.18
-118.72
-118.255
-117.785
-117.31
-116.831
-116.346
-115.857
-115.363
-114.864
-114.36
-113.851
-113.337
-112.818
-112.294
-111.765
-111.23
-110.691
-110.147
-109.597
-109.042
-108.482
-107.917
-107.346
-106.771
-106.19
-105.603
-105.012
-104.415
-103.812
-103.204
-102.591
-101.972
-101.348
-100.718
-100.083
-99.4417
-98.7953
-98.1432
-97.4855
-96.8221
-96.1531
-95.4783
-94.7979
-94.1116
-93.4196
-92.7218
-92.0182
-91.3087
-90.5933
-89.872
-89.1448
-88.4117
-87.6726
-86.9274
-86.1763
-85.4191
-84.6558
-83.8864
-83.1109
-82.3292
-81.5414
-80.7473
-79.9471
-79.1405
-78.3277
-77.5086
-76.6831
-75.8513
-75.0131
-74.1685
-73.3175
-72.46
-71.596
-70.7255
-69.8484
-68.9648
-68.0746
-67.1778
-66.2743
-65.3642
-64.4474
-63.5238
-62.5935
-61.6564
-60.7125
-59.7618
-58.8043
-57.8398
-56.8684
-55.8901
-54.9049
-53.9126
-52.9133
-51.907
-50.8936
-49.8731
-48.8455
-47.8108
-46.7688
-45.7197
-44.6633
-43.5997
-42.5287
-41.4505
-40.3649
-39.2719
-38.1716
-37.0638
-35.9485
-34.8258
-33.6956
-32.5578
-31.4125
-30.2596
-29.099
-27.9309
-26.755
-25.5714
-24.3802
-23.1811
-21.9743
-20.7596
-19.5371
-18.3068
-17.0685
-15.8223
-14.5682
-13.3061
-12.0359
-10.7578
-9.47152
-8.17719
-6.87473
-5.56411
-4.24532
-2.91832
-1.58307
-0.239567
1.11224
2.47236
3.84084
5.2177
6.60297
7.99667
9.39884
10.8095
12.2287
13.6564
15.0928
16.5377
17.9913
19.4535
20.9245
22.4041
23.8926
25.3898
26.8958
28.4107
29.9344
31.467
33.0086
34.5591
36.1186
37.6871
39.2647
40.8514
42.4471
44.052
45.666
47.2893
48.9217
50.5635
52.2145
53.8748
55.5444
57.2234
58.9118
60.6097
62.3169
64.0337
65.76
67.4959
69.2413
70.9963
72.7609
74.5352
76.3193
78.113
79.9165
81.7297
83.5528
85.3857
87.2285
89.0812
90.9438
92.8164
94.699
96.5916
98.4942
100.407
102.33
104.263
106.206
108.159
110.123
112.097
114.081
116.075
118.08
120.095
122.121
124.157
126.203
128.26
130.327
132.405
134.494
136.593
138.703
140.824
142.955
145.097
147.25
149.413
151.588
153.773
155.969
158.176
160.394
162.623
164.863
167.114
169.376
171.649
173.934
176.229
178.536
180.854
183.183
185.523
187.875
190.238
192.612
194.998
197.395
199.804
202.224
204.656
207.099
209.554
212.02
214.498
216.988
219.489
222.002
224.527
227.064
229.612
232.172
234.745
237.329
239.925
242.533
245.153
247.785
250.429
253.085
255.753
258.433
261.126
263.831
266.548
269.277
272.019
274.772
277.539
280.317
283.108
285.912
288.728
291.556
294.397
297.251
300.117
302.995
305.887
308.791
311.708
314.637
317.579
320.534
323.502
326.483
329.477
332.483
335.503
338.535
341.581
344.639
347.711
350.795
353.893
357.004
360.128
363.265
366.416
369.58
372.757
375.947
379.151
382.368
385.599
388.843
392.1
395.371
398.656
401.954
405.266
408.591
411.93
415.283
418.649
422.029
425.423
428.83
432.252
435.687
439.136
442.599
446.076
449.567
453.072
456.591
460.124
463.671
467.232
470.808
474.397
478.001
481.619
485.251
488.897
492.558
496.233
499.922
503.626
507.344
511.077
514.824
518.586
522.362
526.153
529.958
533.778
537.613
541.462
545.326
549.204
553.098
557.006
560.929
564.867
568.82
572.787
576.77
580.767
584.78
588.807
592.85
596.907
600.98
605.067
609.17
613.288
617.422
621.57
625.734
629.913
634.107
638.316
642.541
646.782
651.037
655.309
659.595
663.897
668.215
672.548
676.897
681.261
685.641
690.037
694.448
698.875
703.318
707.776
712.251
716.741
721.247
725.768
730.306
734.86
739.429
744.015
748.616
753.233
757.867
762.517
767.182
771.864
776.562
781.276
786.006
790.753
795.516
800.295
805.09
809.902
814.729
819.574
824.435
829.312
834.205
839.115
844.042
848.985
853.945
858.921
863.914
868.923
873.949
878.992
884.052
889.128
894.221
899.33
904.457
909.6
914.76
919.937
925.131
930.342
935.569
940.814
946.076
951.354
956.65
961.963
967.293
972.639
978.003
983.385
988.783
994.199
999.631
1005.08
1010.55
1016.03
1021.53
1027.05
1032.59
1038.14
1043.72
1049.3
1054.91
1060.53
1066.18
1071.83
1077.51
1083.2
1088.92
1094.64
1100.39
1106.16
1111.94
1117.74
1123.55
1129.39
1135.24
1141.11
1147
1152.91
1158.83
1164.77
1170.73
1176.71
1182.7
1188.72
1194.75
1200.8
1206.87
1212.95
1219.06
1225.18
1231.32
1237.47
1243.65
1249.84
1256.06
1262.29
1268.54
1274.8
1281.09
1287.39
1293.71
1300.05
1306.41
1312.79
1319.18
1325.6
1332.03
1338.48
1344.95
1351.43
1357.94
1364.46
1371.01
1377.57
1384.15
1390.75
1397.36
1404
1410.65
1417.33
1424.02
1430.73
1437.46
1444.21
1450.97
1457.76
1464.56
1471.38
1478.23
1485.09
1491.97
1498.86
1505.78
1512.72
1519.67
1526.65
1533.64
1540.65
1547.68
1554.73
1561.8
1568.89
1576
1583.12
1590.27
1597.43
1604.61
1611.82
1619.04
1626.28
1633.54
1640.82
1648.12
1655.43
1662.77
1670.13
1677.5
1684.9
1692.31
1699.75
1707.2
1714.67
1722.16
1729.67
1737.2
1744.75
1752.32
1759.91
1767.52
1775.15
1782.79
1790.46
1798.15
1805.85
1813.58
1821.32
1829.09
1836.87
1844.67
1852.5
1860.34
1868.2
1876.09
1883.99
1891.91
1899.85
1907.81
1915.79
1923.79
1931.81
1939.85
1947.91
1955.99
1964.09
1972.21
1980.35
1988.51
1996.69
2004.88
2013.1
2021.34
2029.6
2037.88
2046.17
2054.49
2062.83
2071.19
2079.57
2087.96
2096.38
2104.82
2113.28
2121.76
2130.25
2138.77
2147.31
2155.87
2164.45
2173.04
2181.66
2190.3
2198.96
2207.64
2216.34
2225.06
2233.79
2242.55
2251.33
2260.13
2268.95
2277.79
2286.65
2295.53
2304.43
2313.36
2322.3
2331.26
2340.24
2349.24
2358.26
2367.31
2376.37
2385.45
2394.56
2403.68
2412.82
2421.99
2431.17
2440.38
2449.6
2458.85
2468.12
2477.4
2486.71
2496.04
2505.39
2514.76
2524.14
2533.55
2542.98
2552.43
2561.9
2571.4
2580.91
2590.44
2599.99
2609.57
2619.16
2628.77
2638.41
2648.06
2657.74
2667.44
2677.15
2686.89
2696.65
2706.43
2716.23
2726.05
2735.89
2745.75
2755.63
2765.53
2775.46
2785.4
2795.36
2805.35
2815.36
2825.38
2835.43
2845.5
2855.59
2865.7
2875.83
2885.98
2896.15
2906.34
2916.56
2926.79
2937.05
2947.33
2957.62
2967.94
2978.28
2988.64
2999.02
3009.43
3019.85
3030.3
3040.76
3051.25
3061.76
3072.29
3082.84
3093.42
3104.01
3114.63
3125.27
3135.93
3146.61
3157.32
3168.04
3178.79
3189.56
3200.36
3211.17
3222.01
3232.87
3243.76
3254.67
3265.6
3276.55
3287.52
3298.52
3309.53
-59.3159
-79.284
-93.994
-103.453
-109.803
-114.209
-117.343
-119.648
-121.406
-122.797
-123.937
-124.901
-125.739
-126.483
-127.157
-127.775
-128.348
-128.885
-129.389
-129.867
-130.32
-130.752
-131.164
-131.558
-131.936
-132.3
-132.65
-132.987
-133.312
-133.627
-133.932
-134.227
-134.513
-134.791
-135.061
-135.324
-135.58
-135.83
-136.073
-136.311
-136.543
-136.77
-136.992
-137.21
-137.423
-137.631
-137.836
-138.037
-138.234
-138.427
-138.617
-138.804
-138.987
-139.167
-139.344
-139.519
-139.69
-139.858
-140.024
-140.187
-140.348
-140.506
-140.661
-140.814
-140.965
-141.113
-141.259
-141.403
-141.544
-141.683
-141.82
-141.954
-142.087
-142.217
-142.345
-142.471
-142.595
-142.716
-142.836
-142.953
-143.068
-143.181
-143.292
-143.401
-143.507
-143.611
-143.714
-143.813
-143.911
-144.007
-144.1
-144.192
-144.281
-144.368
-144.452
-144.535
-144.615
-144.693
-144.769
-144.843
-144.914
-144.984
-145.051
-145.116
-145.178
-145.238
-145.296
-145.352
-145.406
-145.457
-145.506
-145.553
-145.597
-145.639
-145.679
-145.717
-145.752
-145.785
-145.815
-145.843
-145.869
-145.892
-145.913
-145.932
-145.948
-145.961
-145.972
-145.981
-145.987
-145.991
-145.992
-145.991
-145.987
-145.98
-145.971
-145.96
-145.946
-145.929
-145.91
-145.888
-145.863
-145.836
-145.806
-145.774
-145.739
-145.701
-145.66
-145.617
-145.571
-145.523
-145.471
-145.417
-145.36
-145.3
-145.238
-145.172
-145.104
-145.033
-144.959
-144.882
-144.803
-144.72
-144.634
-144.546
-144.455
-144.36
-144.263
-144.162
-144.059
-143.953
-143.843
-143.731
-143.615
-143.496
-143.375
-143.25
-143.122
-142.991
-142.856
-142.719
-142.578
-142.434
-142.287
-142.136
-141.983
-141.826
-141.666
-141.502
-141.335
-141.165
-140.991
-140.814
-140.634
-140.45
-140.263
-140.072
-139.878
-139.68
-139.479
-139.274
-139.066
-138.855
-138.639
-138.42
-138.198
-137.972
-137.742
-137.508
-137.271
-137.03
-136.786
-136.538
-136.285
-136.03
-135.77
-135.507
-135.239
-134.968
-134.693
-134.415
-134.132
-133.845
-133.555
-133.26
-132.961
-132.659
-132.352
-132.042
-131.727
-131.408
-131.085
-130.758
-130.427
-130.092
-129.752
-129.409
-129.061
-128.709
-128.352
-127.991
-127.626
-127.257
-126.883
-126.505
-126.123
-125.736
-125.345
-124.949
-124.549
-124.144
-123.735
-123.321
-122.903
-122.48
-122.053
-121.621
-121.184
-120.743
-120.297
-119.846
-119.39
-118.93
-118.465
-117.995
-117.521
-117.041
-116.557
-116.068
-115.573
-115.074
-114.57
-114.061
-113.547
-113.028
-112.504
-111.975
-111.441
-110.902
-110.357
-109.808
-109.253
-108.693
-108.128
-107.557
-106.982
-106.401
-105.814
-105.222
-104.625
-104.023
-103.415
-102.802
-102.183
-101.559
-100.929
-100.294
-99.6529
-99.0064
-98.3544
-97.6967
-97.0333
-96.3643
-95.6896
-95.0092
-94.323
-93.631
-92.9332
-92.2296
-91.5201
-90.8048
-90.0835
-89.3564
-88.6232
-87.8841
-87.139
-86.3879
-85.6307
-84.8675
-84.0981
-83.3226
-82.541
-81.7532
-80.9591
-80.1589
-79.3524
-78.5396
-77.7205
-76.8951
-76.0633
-75.2251
-74.3805
-73.5295
-72.672
-71.8081
-70.9376
-70.0606
-69.177
-68.2868
-67.39
-66.4866
-65.5765
-64.6597
-63.7362
-62.8059
-61.8688
-60.925
-59.9743
-59.0167
-58.0523
-57.081
-56.1027
-55.1174
-54.1252
-53.126
-52.1197
-51.1063
-50.0859
-49.0583
-48.0235
-46.9816
-45.9325
-44.8761
-43.8125
-42.7416
-41.6634
-40.5778
-39.4849
-38.3846
-37.2768
-36.1616
-35.0389
-33.9087
-32.771
-31.6257
-30.4728
-29.3123
-28.1441
-26.9683
-25.7847
-24.5935
-23.3945
-22.1877
-20.973
-19.7506
-18.5202
-17.282
-16.0358
-14.7817
-13.5196
-12.2495
-10.9714
-9.68517
-8.39086
-7.08843
-5.77785
-4.45908
-3.1321
-1.79689
-0.453409
0.898365
2.25846
3.62691
5.00375
6.38899
7.78266
9.18481
10.5954
12.0146
13.4423
14.8786
16.3235
17.7771
19.2393
20.7102
22.1899
23.6783
25.1754
26.6814
28.1963
29.72
31.2526
32.7941
34.3446
35.9041
37.4726
39.0501
40.6367
42.2325
43.8373
45.4513
47.0746
48.707
50.3487
51.9996
53.6599
55.3295
57.0085
58.6969
60.3947
62.102
63.8187
65.545
67.2808
69.0262
70.7812
72.5458
74.3201
76.1041
77.8978
79.7012
81.5144
83.3375
85.1704
87.0131
88.8658
90.7284
92.6009
94.4835
96.376
98.2787
100.191
102.114
104.047
105.99
107.943
109.907
111.881
113.865
115.859
117.864
119.879
121.905
123.941
125.987
128.044
130.111
132.189
134.278
136.377
138.487
140.608
142.739
144.881
147.034
149.197
151.371
153.557
155.753
157.96
160.178
162.407
164.647
166.898
169.16
171.433
173.717
176.012
178.319
180.637
182.966
185.306
187.658
190.021
192.395
194.781
197.178
199.587
202.007
204.439
206.882
209.337
211.803
214.281
216.771
219.272
221.785
224.31
226.846
229.395
231.955
234.527
237.111
239.707
242.315
244.935
247.567
250.211
252.867
255.535
258.216
260.908
263.613
266.33
269.059
271.801
274.555
277.321
280.099
282.89
285.694
288.51
291.338
294.179
297.033
299.899
302.777
305.669
308.573
311.49
314.419
317.361
320.316
323.284
326.265
329.258
332.265
335.284
338.317
341.362
344.421
347.492
350.577
353.675
356.786
359.91
363.047
366.197
369.361
372.538
375.729
378.932
382.15
385.38
388.624
391.882
395.153
398.437
401.735
405.047
408.372
411.711
415.064
418.43
421.81
425.204
428.611
432.033
435.468
438.917
442.38
445.857
449.348
452.853
456.372
459.905
463.452
467.013
470.588
474.178
477.781
481.399
485.031
488.678
492.338
496.013
499.703
503.407
507.125
510.857
514.604
518.366
522.142
525.933
529.738
533.558
537.393
541.242
545.106
548.984
552.878
556.786
560.709
564.647
568.599
572.567
576.549
580.547
584.559
588.587
592.629
596.687
600.759
604.847
608.95
613.068
617.201
621.349
625.513
629.692
633.886
638.096
642.321
646.561
650.817
655.088
659.374
663.677
667.994
672.327
676.676
681.04
685.42
689.816
694.227
698.654
703.097
707.555
712.029
716.52
721.025
725.547
730.085
734.638
739.208
743.793
748.395
753.012
757.645
762.295
766.961
771.642
776.34
781.054
785.785
790.531
795.294
800.073
804.868
809.68
814.508
819.352
824.213
829.09
833.983
838.893
843.82
848.763
853.723
858.699
863.692
868.701
873.727
878.77
883.829
888.905
893.998
899.108
904.234
909.378
914.538
919.715
924.908
930.119
935.347
940.591
945.853
951.132
956.427
961.74
967.07
972.417
977.781
983.162
988.56
993.976
999.408
1004.86
1010.33
1015.81
1021.31
1026.83
1032.37
1037.92
1043.49
1049.08
1054.69
1060.31
1065.95
1071.61
1077.29
1082.98
1088.69
1094.42
1100.17
1105.93
1111.71
1117.51
1123.33
1129.17
1135.02
1140.89
1146.78
1152.68
1158.61
1164.55
1170.51
1176.49
1182.48
1188.49
1194.53
1200.58
1206.64
1212.73
1218.83
1224.95
1231.09
1237.25
1243.43
1249.62
1255.83
1262.06
1268.31
1274.58
1280.86
1287.17
1293.49
1299.83
1306.19
1312.56
1318.96
1325.37
1331.8
1338.25
1344.72
1351.21
1357.72
1364.24
1370.78
1377.34
1383.92
1390.52
1397.14
1403.78
1410.43
1417.1
1423.79
1430.5
1437.23
1443.98
1450.75
1457.53
1464.34
1471.16
1478
1484.86
1491.74
1498.64
1505.56
1512.49
1519.45
1526.42
1533.41
1540.43
1547.46
1554.51
1561.57
1568.66
1575.77
1582.9
1590.04
1597.21
1604.39
1611.59
1618.81
1626.05
1633.31
1640.59
1647.89
1655.21
1662.55
1669.9
1677.28
1684.67
1692.09
1699.52
1706.97
1714.44
1721.94
1729.45
1736.98
1744.53
1752.1
1759.68
1767.29
1774.92
1782.57
1790.23
1797.92
1805.63
1813.35
1821.1
1828.86
1836.64
1844.45
1852.27
1860.11
1867.98
1875.86
1883.76
1891.68
1899.62
1907.58
1915.56
1923.56
1931.59
1939.62
1947.68
1955.76
1963.86
1971.98
1980.12
1988.28
1996.46
2004.66
2012.88
2021.11
2029.37
2037.65
2045.95
2054.27
2062.6
2070.96
2079.34
2087.74
2096.15
2104.59
2113.05
2121.53
2130.03
2138.54
2147.08
2155.64
2164.22
2172.82
2181.43
2190.07
2198.73
2207.41
2216.11
2224.83
2233.57
2242.33
2251.11
2259.9
2268.72
2277.56
2286.43
2295.31
2304.21
2313.13
2322.07
2331.03
2340.01
2349.01
2358.04
2367.08
2376.14
2385.22
2394.33
2403.45
2412.6
2421.76
2430.95
2440.15
2449.38
2458.62
2467.89
2477.18
2486.48
2495.81
2505.16
2514.53
2523.92
2533.33
2542.75
2552.21
2561.68
2571.17
2580.68
2590.21
2599.76
2609.34
2618.93
2628.54
2638.18
2647.83
2657.51
2667.21
2676.92
2686.66
2696.42
2706.2
2716
2725.82
2735.66
2745.52
2755.4
2765.3
2775.23
2785.17
2795.13
2805.12
2815.13
2825.15
2835.2
2845.27
2855.36
2865.47
2875.6
2885.75
2895.92
2906.11
2916.33
2926.56
2936.82
2947.1
2957.39
2967.71
2978.05
2988.41
2998.79
3009.2
3019.62
3030.07
3040.53
3051.02
3061.53
3072.06
3082.61
3093.19
3103.78
3114.4
3125.04
3135.7
3146.38
3157.09
3167.81
3178.56
3189.33
3200.12
3210.94
3221.78
3232.64
3243.52
3254.43
3265.36
3276.31
3287.28
3298.28
3309.29
-82.4823
-89.8793
-97.6384
-104.375
-109.695
-113.753
-116.834
-119.199
-121.051
-122.537
-123.76
-124.793
-125.686
-126.475
-127.184
-127.83
-128.426
-128.981
-129.501
-129.99
-130.453
-130.893
-131.312
-131.713
-132.096
-132.464
-132.818
-133.159
-133.487
-133.805
-134.112
-134.409
-134.697
-134.977
-135.248
-135.513
-135.77
-136.021
-136.266
-136.504
-136.737
-136.965
-137.188
-137.407
-137.62
-137.83
-138.035
-138.236
-138.434
-138.627
-138.818
-139.005
-139.188
-139.369
-139.546
-139.721
-139.892
-140.061
-140.227
-140.391
-140.551
-140.709
-140.865
-141.018
-141.169
-141.317
-141.463
-141.607
-141.749
-141.888
-142.025
-142.159
-142.292
-142.422
-142.55
-142.676
-142.8
-142.922
-143.041
-143.159
-143.274
-143.387
-143.498
-143.606
-143.713
-143.817
-143.919
-144.019
-144.117
-144.213
-144.306
-144.397
-144.487
-144.574
-144.658
-144.741
-144.821
-144.899
-144.975
-145.049
-145.121
-145.19
-145.257
-145.322
-145.384
-145.445
-145.503
-145.559
-145.612
-145.664
-145.713
-145.759
-145.804
-145.846
-145.886
-145.923
-145.958
-145.991
-146.022
-146.05
-146.076
-146.099
-146.12
-146.138
-146.154
-146.168
-146.179
-146.188
-146.194
-146.198
-146.199
-146.198
-146.194
-146.187
-146.178
-146.167
-146.153
-146.136
-146.117
-146.095
-146.07
-146.043
-146.014
-145.981
-145.946
-145.908
-145.868
-145.824
-145.779
-145.73
-145.678
-145.624
-145.567
-145.508
-145.445
-145.38
-145.311
-145.24
-145.167
-145.09
-145.01
-144.927
-144.842
-144.753
-144.662
-144.568
-144.47
-144.37
-144.267
-144.16
-144.051
-143.938
-143.823
-143.704
-143.582
-143.458
-143.33
-143.198
-143.064
-142.927
-142.786
-142.642
-142.495
-142.344
-142.191
-142.034
-141.874
-141.71
-141.543
-141.373
-141.199
-141.022
-140.842
-140.658
-140.471
-140.28
-140.086
-139.889
-139.687
-139.483
-139.275
-139.063
-138.848
-138.629
-138.406
-138.18
-137.95
-137.717
-137.48
-137.239
-136.994
-136.746
-136.494
-136.238
-135.979
-135.715
-135.448
-135.177
-134.902
-134.623
-134.341
-134.054
-133.763
-133.469
-133.17
-132.868
-132.561
-132.25
-131.936
-131.617
-131.294
-130.967
-130.636
-130.301
-129.961
-129.618
-129.27
-128.918
-128.561
-128.201
-127.836
-127.466
-127.093
-126.715
-126.332
-125.945
-125.554
-125.158
-124.758
-124.354
-123.944
-123.531
-123.112
-122.69
-122.262
-121.83
-121.393
-120.952
-120.506
-120.055
-119.6
-119.14
-118.675
-118.205
-117.73
-117.251
-116.766
-116.277
-115.783
-115.284
-114.78
-114.271
-113.757
-113.238
-112.714
-112.185
-111.651
-111.112
-110.567
-110.018
-109.463
-108.903
-108.338
-107.767
-107.192
-106.611
-106.024
-105.433
-104.836
-104.233
-103.625
-103.012
-102.393
-101.769
-101.139
-100.504
-99.8631
-99.2167
-98.5647
-97.907
-97.2437
-96.5747
-95.9
-95.2196
-94.5334
-93.8414
-93.1437
-92.4401
-91.7306
-91.0153
-90.2941
-89.5669
-88.8338
-88.0948
-87.3497
-86.5986
-85.8414
-85.0782
-84.3088
-83.5334
-82.7518
-81.964
-81.17
-80.3697
-79.5632
-78.7505
-77.9314
-77.106
-76.2742
-75.4361
-74.5915
-73.7405
-72.8831
-72.0191
-71.1487
-70.2717
-69.3881
-68.4979
-67.6012
-66.6977
-65.7877
-64.8709
-63.9474
-63.0171
-62.0801
-61.1362
-60.1856
-59.228
-58.2636
-57.2923
-56.314
-55.3288
-54.3366
-53.3374
-52.3311
-51.3178
-50.2973
-49.2698
-48.2351
-47.1932
-46.1441
-45.0877
-44.0241
-42.9532
-41.875
-40.7895
-39.6966
-38.5963
-37.4885
-36.3733
-35.2507
-34.1205
-32.9828
-31.8375
-30.6846
-29.5241
-28.356
-27.1802
-25.9967
-24.8054
-23.6064
-22.3996
-21.185
-19.9626
-18.7323
-17.4941
-16.2479
-14.9938
-13.7318
-12.4617
-11.1836
-9.89737
-8.60308
-7.30067
-5.9901
-4.67135
-3.3444
-2.00921
-0.665746
0.686009
2.04609
3.41452
4.79133
6.17655
7.57021
8.97233
10.383
11.8021
13.2298
14.6661
16.111
17.5645
19.0267
20.4976
21.9772
23.4656
24.9627
26.4687
27.9835
29.5072
31.0398
32.5813
34.1318
35.6912
37.2597
38.8372
40.4238
42.0195
43.6244
45.2384
46.8616
48.494
50.1357
51.7866
53.4469
55.1164
56.7954
58.4838
60.1816
61.8888
63.6055
65.3318
67.0676
68.8129
70.5679
72.3325
74.1068
75.8907
77.6844
79.4878
81.3011
83.1241
84.9569
86.7997
88.6523
90.5149
92.3874
94.2699
96.1625
98.0651
99.9777
101.901
103.833
105.777
107.73
109.693
111.667
113.651
115.645
117.65
119.665
121.691
123.727
125.773
127.83
129.897
131.975
134.064
136.163
138.273
140.394
142.525
144.667
146.819
148.983
151.157
153.343
155.539
157.746
159.964
162.192
164.432
166.683
168.945
171.219
173.503
175.798
178.105
180.423
182.752
185.092
187.444
189.807
192.181
194.567
196.964
199.372
201.792
204.224
206.667
209.122
211.588
214.066
216.556
219.057
221.57
224.095
226.632
229.18
231.74
234.312
236.896
239.492
242.1
244.72
247.352
249.996
252.652
255.32
258.001
260.693
263.398
266.115
268.844
271.586
274.34
277.106
279.884
282.675
285.479
288.295
291.123
293.964
296.817
299.683
302.562
305.453
308.357
311.274
314.204
317.146
320.101
323.069
326.049
329.043
332.049
335.069
338.101
341.147
344.205
347.277
350.361
353.459
356.57
359.694
362.831
365.982
369.145
372.322
375.513
378.717
381.934
385.164
388.408
391.666
394.937
398.221
401.519
404.831
408.156
411.495
414.847
418.214
421.594
424.987
428.395
431.816
435.252
438.701
442.164
445.641
449.132
452.636
456.155
459.688
463.235
466.796
470.372
473.961
477.565
481.183
484.815
488.461
492.122
495.797
499.486
503.19
506.908
510.641
514.388
518.149
521.925
525.716
529.521
533.341
537.176
541.025
544.889
548.767
552.661
556.569
560.492
564.43
568.382
572.35
576.332
580.33
584.342
588.37
592.412
596.469
600.542
604.63
608.732
612.85
616.984
621.132
625.296
629.475
633.669
637.878
642.103
646.343
650.599
654.87
659.157
663.459
667.777
672.11
676.458
680.823
685.203
689.598
694.009
698.436
702.879
707.337
711.812
716.302
720.807
725.329
729.867
734.42
738.99
743.575
748.177
752.794
757.427
762.077
766.743
771.424
776.122
780.836
785.566
790.313
795.076
799.854
804.65
809.461
814.289
819.134
823.994
828.871
833.765
838.675
843.601
848.545
853.504
858.48
863.473
868.482
873.508
878.551
883.611
888.687
893.78
898.889
904.016
909.159
914.319
919.496
924.69
929.9
935.128
940.373
945.634
950.913
956.208
961.521
966.851
972.198
977.562
982.943
988.341
993.756
999.189
1004.64
1010.11
1015.59
1021.09
1026.61
1032.15
1037.7
1043.27
1048.86
1054.47
1060.09
1065.73
1071.39
1077.07
1082.76
1088.47
1094.2
1099.95
1105.71
1111.49
1117.29
1123.11
1128.95
1134.8
1140.67
1146.56
1152.46
1158.39
1164.33
1170.29
1176.27
1182.26
1188.27
1194.31
1200.36
1206.42
1212.51
1218.61
1224.73
1230.87
1237.03
1243.21
1249.4
1255.61
1261.84
1268.09
1274.36
1280.64
1286.95
1293.27
1299.61
1305.97
1312.34
1318.74
1325.15
1331.58
1338.03
1344.5
1350.99
1357.5
1364.02
1370.56
1377.12
1383.7
1390.3
1396.92
1403.55
1410.21
1416.88
1423.57
1430.28
1437.01
1443.76
1450.53
1457.31
1464.12
1470.94
1477.78
1484.64
1491.52
1498.42
1505.33
1512.27
1519.23
1526.2
1533.19
1540.2
1547.23
1554.28
1561.35
1568.44
1575.55
1582.67
1589.82
1596.98
1604.17
1611.37
1618.59
1625.83
1633.09
1640.37
1647.67
1654.99
1662.32
1669.68
1677.06
1684.45
1691.86
1699.3
1706.75
1714.22
1721.71
1729.22
1736.76
1744.3
1751.87
1759.46
1767.07
1774.7
1782.35
1790.01
1797.7
1805.4
1813.13
1820.87
1828.64
1836.42
1844.23
1852.05
1859.89
1867.75
1875.64
1883.54
1891.46
1899.4
1907.36
1915.34
1923.34
1931.36
1939.4
1947.46
1955.54
1963.64
1971.76
1979.9
1988.06
1996.24
2004.43
2012.65
2020.89
2029.15
2037.43
2045.72
2054.04
2062.38
2070.74
2079.12
2087.51
2095.93
2104.37
2112.83
2121.3
2129.8
2138.32
2146.86
2155.42
2163.99
2172.59
2181.21
2189.85
2198.51
2207.19
2215.88
2224.6
2233.34
2242.1
2250.88
2259.68
2268.5
2277.34
2286.2
2295.08
2303.98
2312.9
2321.84
2330.81
2339.79
2348.79
2357.81
2366.85
2375.92
2385
2394.1
2403.23
2412.37
2421.54
2430.72
2439.93
2449.15
2458.4
2467.66
2476.95
2486.26
2495.59
2504.93
2514.3
2523.69
2533.1
2542.53
2551.98
2561.45
2570.94
2580.45
2589.99
2599.54
2609.11
2618.71
2628.32
2637.95
2647.61
2657.28
2666.98
2676.7
2686.44
2696.19
2705.97
2715.77
2725.59
2735.43
2745.29
2755.18
2765.08
2775
2784.94
2794.91
2804.89
2814.9
2824.93
2834.97
2845.04
2855.13
2865.24
2875.37
2885.52
2895.69
2905.89
2916.1
2926.34
2936.59
2946.87
2957.17
2967.48
2977.82
2988.19
2998.57
3008.97
3019.39
3029.84
3040.31
3050.79
3061.3
3071.83
3082.39
3092.96
3103.55
3114.17
3124.81
3135.47
3146.15
3156.86
3167.58
3178.33
3189.1
3199.89
3210.71
3221.55
3232.41
3243.29
3254.2
3265.12
3276.07
3287.05
3298.04
3309.05
-93.9801
-97.341
-101.74
-106.417
-110.607
-114.087
-116.898
-119.157
-120.984
-122.481
-123.731
-124.794
-125.717
-126.531
-127.262
-127.926
-128.537
-129.103
-129.633
-130.13
-130.6
-131.046
-131.47
-131.874
-132.261
-132.632
-132.988
-133.331
-133.661
-133.98
-134.289
-134.587
-134.877
-135.157
-135.43
-135.695
-135.954
-136.205
-136.45
-136.69
-136.923
-137.152
-137.375
-137.594
-137.808
-138.017
-138.223
-138.425
-138.622
-138.816
-139.007
-139.194
-139.378
-139.559
-139.736
-139.911
-140.083
-140.252
-140.418
-140.581
-140.742
-140.9
-141.056
-141.21
-141.36
-141.509
-141.655
-141.799
-141.94
-142.079
-142.216
-142.351
-142.484
-142.614
-142.742
-142.868
-142.992
-143.114
-143.233
-143.35
-143.466
-143.579
-143.689
-143.798
-143.905
-144.009
-144.111
-144.211
-144.309
-144.405
-144.498
-144.589
-144.678
-144.765
-144.85
-144.933
-145.013
-145.091
-145.167
-145.241
-145.313
-145.382
-145.449
-145.514
-145.576
-145.637
-145.695
-145.751
-145.804
-145.856
-145.905
-145.951
-145.996
-146.038
-146.078
-146.115
-146.151
-146.183
-146.214
-146.242
-146.268
-146.291
-146.312
-146.33
-146.346
-146.36
-146.371
-146.38
-146.386
-146.39
-146.391
-146.39
-146.386
-146.379
-146.371
-146.359
-146.345
-146.328
-146.309
-146.287
-146.263
-146.236
-146.206
-146.173
-146.138
-146.1
-146.06
-146.017
-145.971
-145.922
-145.871
-145.817
-145.76
-145.7
-145.637
-145.572
-145.504
-145.433
-145.359
-145.282
-145.202
-145.12
-145.034
-144.946
-144.854
-144.76
-144.663
-144.562
-144.459
-144.353
-144.243
-144.131
-144.015
-143.897
-143.775
-143.65
-143.522
-143.391
-143.257
-143.119
-142.978
-142.834
-142.687
-142.537
-142.383
-142.226
-142.066
-141.903
-141.736
-141.565
-141.392
-141.215
-141.035
-140.851
-140.664
-140.473
-140.279
-140.081
-139.88
-139.675
-139.467
-139.255
-139.04
-138.821
-138.599
-138.373
-138.143
-137.909
-137.672
-137.432
-137.187
-136.939
-136.687
-136.431
-136.171
-135.908
-135.641
-135.37
-135.095
-134.816
-134.533
-134.247
-133.956
-133.661
-133.363
-133.06
-132.754
-132.443
-132.129
-131.81
-131.487
-131.16
-130.829
-130.494
-130.154
-129.81
-129.463
-129.11
-128.754
-128.393
-128.028
-127.659
-127.285
-126.907
-126.525
-126.138
-125.747
-125.351
-124.951
-124.546
-124.137
-123.724
-123.305
-122.883
-122.455
-122.023
-121.586
-121.145
-120.699
-120.248
-119.793
-119.333
-118.868
-118.398
-117.923
-117.444
-116.959
-116.47
-115.976
-115.477
-114.973
-114.464
-113.95
-113.431
-112.907
-112.378
-111.844
-111.305
-110.76
-110.211
-109.656
-109.096
-108.531
-107.96
-107.385
-106.804
-106.217
-105.626
-105.029
-104.426
-103.818
-103.205
-102.586
-101.962
-101.332
-100.697
-100.056
-99.4098
-98.7577
-98.1001
-97.4368
-96.7678
-96.0931
-95.4127
-94.7265
-94.0345
-93.3368
-92.6332
-91.9237
-91.2084
-90.4872
-89.76
-89.027
-88.2879
-87.5428
-86.7917
-86.0345
-85.2713
-84.502
-83.7265
-82.9449
-82.1571
-81.3631
-80.5629
-79.7564
-78.9436
-78.1245
-77.2991
-76.4674
-75.6292
-74.7847
-73.9337
-73.0762
-72.2123
-71.3418
-70.4648
-69.5813
-68.6911
-67.7944
-66.8909
-65.9809
-65.0641
-64.1406
-63.2103
-62.2733
-61.3294
-60.3788
-59.4213
-58.4569
-57.4855
-56.5073
-55.5221
-54.5299
-53.5306
-52.5244
-51.511
-50.4906
-49.463
-48.4283
-47.3864
-46.3373
-45.281
-44.2174
-43.1465
-42.0683
-40.9828
-39.8899
-38.7896
-37.6818
-36.5666
-35.444
-34.3138
-33.1761
-32.0308
-30.8779
-29.7174
-28.5493
-27.3735
-26.19
-24.9988
-23.7998
-22.593
-21.3784
-20.1559
-18.9256
-17.6874
-16.4413
-15.1872
-13.9251
-12.655
-11.3769
-10.0907
-8.79644
-7.49403
-6.18347
-4.86473
-3.53778
-2.20259
-0.859129
0.492622
1.8527
3.22112
4.59793
5.98315
7.3768
8.77893
10.1895
11.6087
13.0364
14.4727
15.9175
17.3711
18.8333
20.3042
21.7838
23.2721
24.7693
26.2753
27.7901
29.3138
30.8463
32.3879
33.9383
35.4978
37.0663
38.6438
40.2304
41.8261
43.4309
45.0449
46.6681
48.3005
49.9422
51.5931
53.2534
54.923
56.6019
58.2903
59.9881
61.6953
63.412
65.1383
66.874
68.6194
70.3744
72.139
73.9132
75.6972
77.4909
79.2943
81.1075
82.9305
84.7634
86.6061
88.4588
90.3213
92.1939
94.0764
95.9689
97.8715
99.7842
101.707
103.64
105.583
107.536
109.5
111.473
113.458
115.452
117.457
119.472
121.497
123.533
125.58
127.636
129.704
131.782
133.87
135.97
138.079
140.2
142.331
144.473
146.626
148.789
150.964
153.149
155.345