/*--------------------------------*- C++ -*----------------------------------*\
| =========                 |                                                 |
| \\      /  F ield         | OpenFOAM: The Open Source CFD Toolbox           |
|  \\    /   O peration     | Version:  2512                                  |
|   \\  /    A nd           | Website:  www.openfoam.com                      |
|    \\/     M anipulation  |                                                 |
\*---------------------------------------------------------------------------*/
FoamFile
{
    version     2.0;
    format      ascii;
    arch        "LSB;label=32;scalar=64";
    class       volScalarField;
    location    "0.006";
    object      p_rgh;
}
// * * * * * * * * * * * * * * * * * * * * * * * * * * * * * * * * * * * * * //

dimensions      [1 -1 -2 0 0 0 0];

internalField   nonuniform List<scalar> 
100000
(
-248044
-248106
-248134
-248147
-248154
-248159
-248162
-248164
-248166
-248167
-248168
-248169
-248170
-248170
-248171
-248172
-248172
-248173
-248173
-248174
-248174
-248175
-248175
-248175
-248176
-248176
-248176
-248177
-248177
-248177
-248178
-248178
-248178
-248179
-248179
-248179
-248179
-248180
-248180
-248180
-248180
-248180
-248181
-248181
-248181
-248181
-248182
-248182
-248182
-248182
-248182
-248183
-248183
-248183
-248183
-248183
-248183
-248184
-248184
-248184
-248184
-248184
-248184
-248185
-248185
-248185
-248185
-248185
-248185
-248185
-248186
-248186
-248186
-248186
-248186
-248186
-248186
-248186
-248187
-248187
-248187
-248187
-248187
-248187
-248187
-248187
-248187
-248188
-248188
-248188
-248188
-248188
-248188
-248188
-248188
-248188
-248188
-248188
-248188
-248189
-248189
-248189
-248189
-248189
-248189
-248189
-248189
-248189
-248189
-248189
-248189
-248189
-248189
-248189
-248189
-248189
-248189
-248189
-248190
-248190
-248190
-248190
-248190
-248190
-248190
-248190
-248190
-248190
-248190
-248190
-248190
-248190
-248190
-248190
-248190
-248190
-248190
-248190
-248190
-248190
-248190
-248190
-248190
-248189
-248189
-248189
-248189
-248189
-248189
-248189
-248189
-248189
-248189
-248189
-248189
-248189
-248189
-248189
-248189
-248189
-248189
-248188
-248188
-248188
-248188
-248188
-248188
-248188
-248188
-248188
-248188
-248187
-248187
-248187
-248187
-248187
-248187
-248187
-248187
-248186
-248186
-248186
-248186
-248186
-248186
-248186
-248185
-248185
-248185
-248185
-248185
-248185
-248184
-248184
-248184
-248184
-248184
-248183
-248183
-248183
-248183
-248183
-248182
-248182
-248182
-248182
-248181
-248181
-248181
-248181
-248180
-248180
-248180
-248180
-248179
-248179
-248179
-248179
-248178
-248178
-248178
-248178
-248177
-248177
-248177
-248176
-248176
-248176
-248175
-248175
-248175
-248174
-248174
-248174
-248173
-248173
-248173
-248172
-248172
-248172
-248171
-248171
-248171
-248170
-248170
-248169
-248169
-248169
-248168
-248168
-248167
-248167
-248167
-248166
-248166
-248165
-248165
-248164
-248164
-248164
-248163
-248163
-248162
-248162
-248161
-248161
-248160
-248160
-248159
-248159
-248158
-248158
-248157
-248157
-248156
-248156
-248155
-248155
-248154
-248154
-248153
-248152
-248152
-248151
-248151
-248150
-248150
-248149
-248148
-248148
-248147
-248147
-248146
-248145
-248145
-248144
-248143
-248143
-248142
-248141
-248141
-248140
-248139
-248139
-248138
-248137
-248137
-248136
-248135
-248135
-248134
-248133
-248132
-248132
-248131
-248130
-248129
-248129
-248128
-248127
-248126
-248125
-248125
-248124
-248123
-248122
-248121
-248121
-248120
-248119
-248118
-248117
-248116
-248116
-248115
-248114
-248113
-248112
-248111
-248110
-248109
-248108
-248107
-248107
-248106
-248105
-248104
-248103
-248102
-248101
-248100
-248099
-248098
-248097
-248096
-248095
-248094
-248093
-248092
-248091
-248090
-248089
-248088
-248086
-248085
-248084
-248083
-248082
-248081
-248080
-248079
-248078
-248076
-248075
-248074
-248073
-248072
-248071
-248069
-248068
-248067
-248066
-248065
-248063
-248062
-248061
-248060
-248058
-248057
-248056
-248055
-248053
-248052
-248051
-248049
-248048
-248047
-248045
-248044
-248043
-248041
-248040
-248039
-248037
-248036
-248035
-248033
-248032
-248030
-248029
-248027
-248026
-248024
-248023
-248022
-248020
-248019
-248017
-248015
-248014
-248012
-248011
-248009
-248008
-248006
-248005
-248003
-248001
-248000
-247998
-247997
-247995
-247993
-247992
-247990
-247988
-247987
-247985
-247983
-247982
-247980
-247978
-247976
-247975
-247973
-247971
-247969
-247968
-247966
-247964
-247962
-247960
-247959
-247957
-247955
-247953
-247951
-247949
-247947
-247945
-247944
-247942
-247940
-247938
-247936
-247934
-247932
-247930
-247928
-247926
-247924
-247922
-247920
-247918
-247916
-247914
-247912
-247909
-247907
-247905
-247903
-247901
-247899
-247897
-247894
-247892
-247890
-247888
-247886
-247884
-247881
-247879
-247877
-247875
-247872
-247870
-247868
-247865
-247863
-247861
-247858
-247856
-247854
-247851
-247849
-247847
-247844
-247842
-247839
-247837
-247834
-247832
-247829
-247827
-247824
-247822
-247819
-247817
-247814
-247812
-247809
-247807
-247804
-247801
-247799
-247796
-247793
-247791
-247788
-247785
-247783
-247780
-247777
-247775
-247772
-247769
-247766
-247764
-247761
-247758
-247755
-247752
-247750
-247747
-247744
-247741
-247738
-247735
-247732
-247729
-247726
-247723
-247720
-247717
-247714
-247711
-247708
-247705
-247702
-247699
-247696
-247693
-247690
-247687
-247684
-247681
-247677
-247674
-247671
-247668
-247665
-247662
-247658
-247655
-247652
-247649
-247645
-247642
-247639
-247635
-247632
-247629
-247625
-247622
-247618
-247615
-247612
-247608
-247605
-247601
-247598
-247594
-247591
-247587
-247584
-247580
-247577
-247573
-247570
-247566
-247562
-247559
-247555
-247551
-247548
-247544
-247540
-247537
-247533
-247529
-247525
-247522
-247518
-247514
-247510
-247506
-247502
-247499
-247495
-247491
-247487
-247483
-247479
-247475
-247471
-247467
-247463
-247459
-247455
-247451
-247447
-247443
-247439
-247435
-247431
-247426
-247422
-247418
-247414
-247410
-247406
-247401
-247397
-247393
-247389
-247384
-247380
-247376
-247371
-247367
-247363
-247358
-247354
-247349
-247345
-247341
-247336
-247332
-247327
-247323
-247318
-247314
-247309
-247304
-247300
-247295
-247291
-247286
-247281
-247277
-247272
-247267
-247263
-247258
-247253
-247248
-247244
-247239
-247234
-247229
-247224
-247219
-247215
-247210
-247205
-247200
-247195
-247190
-247185
-247180
-247175
-247170
-247165
-247160
-247155
-247150
-247145
-247139
-247134
-247129
-247124
-247119
-247114
-247108
-247103
-247098
-247093
-247087
-247082
-247077
-247071
-247066
-247061
-247055
-247050
-247044
-247039
-247033
-247028
-247022
-247017
-247011
-247006
-247000
-246995
-246989
-246983
-246978
-246972
-246966
-246961
-246955
-246949
-246944
-246938
-246932
-246926
-246920
-246915
-246909
-246903
-246897
-246891
-246885
-246879
-246873
-246867
-246861
-246855
-246849
-246843
-246837
-246831
-246825
-246819
-246813
-246806
-246800
-246794
-246788
-246782
-246775
-246769
-246763
-246757
-246750
-246744
-246737
-246731
-246725
-246718
-246712
-246705
-246699
-246692
-246686
-246679
-246673
-246666
-246660
-246653
-246647
-246640
-246633
-246627
-246620
-246613
-246606
-246600
-246593
-246586
-246579
-246573
-246566
-246559
-246552
-246545
-246538
-246531
-246524
-246517
-246510
-246503
-246496
-246489
-246482
-246475
-246468
-246461
-246454
-246446
-246439
-246432
-246425
-246418
-246410
-246403
-246396
-246388
-246381
-246374
-246366
-246359
-246352
-246344
-246337
-246329
-246322
-246314
-246307
-246299
-246292
-246284
-246276
-246269
-246261
-246253
-246246
-246238
-246230
-246223
-246215
-246207
-246199
-246191
-246184
-246176
-246168
-246160
-246152
-246144
-246136
-246128
-246120
-246112
-246104
-246096
-246088
-246080
-246072
-246064
-246055
-246047
-246039
-246031
-246023
-246014
-246006
-245998
-245989
-245981
-245973
-245964
-245956
-245948
-245939
-245931
-245922
-245914
-245905
-245897
-245888
-245879
-245871
-245862
-245854
-245845
-245836
-245828
-245819
-245810
-245801
-245793
-245784
-245775
-245766
-245757
-245748
-245739
-245731
-245722
-245713
-245704
-245695
-245686
-245677
-245668
-245658
-245649
-245640
-245631
-245622
-245613
-245604
-245594
-245585
-245576
-245567
-245557
-245548
-245539
-245529
-245520
-245510
-245501
-245491
-245482
-245473
-245463
-245453
-245444
-245434
-245425
-245415
-245406
-245396
-245386
-245376
-245367
-245357
-245347
-245337
-245328
-245318
-245308
-245298
-245288
-245278
-245268
-245259
-245249
-245239
-245229
-245219
-245208
-245198
-245188
-245178
-245168
-245158
-245148
-245138
-245127
-245117
-245107
-245097
-245086
-245076
-245066
-245055
-245045
-245034
-245024
-245014
-245003
-244993
-244982
-244972
-244961
-244950
-244940
-244929
-244919
-244908
-244897
-244887
-244876
-244865
-244854
-244844
-244833
-244822
-244811
-244800
-244789
-244778
-244767
-244756
-244745
-244734
-248103
-248123
-248138
-248147
-248154
-248158
-248161
-248163
-248165
-248167
-248168
-248169
-248169
-248170
-248171
-248171
-248172
-248173
-248173
-248174
-248174
-248174
-248175
-248175
-248176
-248176
-248176
-248177
-248177
-248177
-248178
-248178
-248178
-248179
-248179
-248179
-248179
-248180
-248180
-248180
-248180
-248180
-248181
-248181
-248181
-248181
-248182
-248182
-248182
-248182
-248182
-248183
-248183
-248183
-248183
-248183
-248183
-248184
-248184
-248184
-248184
-248184
-248184
-248185
-248185
-248185
-248185
-248185
-248185
-248185
-248186
-248186
-248186
-248186
-248186
-248186
-248186
-248186
-248187
-248187
-248187
-248187
-248187
-248187
-248187
-248187
-248187
-248188
-248188
-248188
-248188
-248188
-248188
-248188
-248188
-248188
-248188
-248188
-248188
-248189
-248189
-248189
-248189
-248189
-248189
-248189
-248189
-248189
-248189
-248189
-248189
-248189
-248189
-248189
-248189
-248189
-248189
-248190
-248190
-248190
-248190
-248190
-248190
-248190
-248190
-248190
-248190
-248190
-248190
-248190
-248190
-248190
-248190
-248190
-248190
-248190
-248190
-248190
-248190
-248190
-248190
-248190
-248190
-248189
-248189
-248189
-248189
-248189
-248189
-248189
-248189
-248189
-248189
-248189
-248189
-248189
-248189
-248189
-248189
-248189
-248189
-248188
-248188
-248188
-248188
-248188
-248188
-248188
-248188
-248188
-248188
-248187
-248187
-248187
-248187
-248187
-248187
-248187
-248187
-248186
-248186
-248186
-248186
-248186
-248186
-248186
-248185
-248185
-248185
-248185
-248185
-248185
-248184
-248184
-248184
-248184
-248184
-248183
-248183
-248183
-248183
-248183
-248182
-248182
-248182
-248182
-248181
-248181
-248181
-248181
-248181
-248180
-248180
-248180
-248179
-248179
-248179
-248179
-248178
-248178
-248178
-248178
-248177
-248177
-248177
-248176
-248176
-248176
-248175
-248175
-248175
-248174
-248174
-248174
-248173
-248173
-248173
-248172
-248172
-248172
-248171
-248171
-248171
-248170
-248170
-248169
-248169
-248169
-248168
-248168
-248167
-248167
-248167
-248166
-248166
-248165
-248165
-248164
-248164
-248164
-248163
-248163
-248162
-248162
-248161
-248161
-248160
-248160
-248159
-248159
-248158
-248158
-248157
-248157
-248156
-248156
-248155
-248155
-248154
-248154
-248153
-248152
-248152
-248151
-248151
-248150
-248150
-248149
-248148
-248148
-248147
-248147
-248146
-248145
-248145
-248144
-248143
-248143
-248142
-248141
-248141
-248140
-248139
-248139
-248138
-248137
-248137
-248136
-248135
-248135
-248134
-248133
-248132
-248132
-248131
-248130
-248129
-248129
-248128
-248127
-248126
-248125
-248125
-248124
-248123
-248122
-248121
-248121
-248120
-248119
-248118
-248117
-248116
-248116
-248115
-248114
-248113
-248112
-248111
-248110
-248109
-248108
-248107
-248107
-248106
-248105
-248104
-248103
-248102
-248101
-248100
-248099
-248098
-248097
-248096
-248095
-248094
-248093
-248092
-248091
-248090
-248089
-248088
-248086
-248085
-248084
-248083
-248082
-248081
-248080
-248079
-248078
-248076
-248075
-248074
-248073
-248072
-248071
-248070
-248068
-248067
-248066
-248065
-248063
-248062
-248061
-248060
-248059
-248057
-248056
-248055
-248053
-248052
-248051
-248049
-248048
-248047
-248046
-248044
-248043
-248041
-248040
-248039
-248037
-248036
-248035
-248033
-248032
-248030
-248029
-248027
-248026
-248024
-248023
-248022
-248020
-248019
-248017
-248016
-248014
-248012
-248011
-248009
-248008
-248006
-248005
-248003
-248001
-248000
-247998
-247997
-247995
-247993
-247992
-247990
-247988
-247987
-247985
-247983
-247982
-247980
-247978
-247976
-247975
-247973
-247971
-247969
-247968
-247966
-247964
-247962
-247960
-247959
-247957
-247955
-247953
-247951
-247949
-247947
-247945
-247944
-247942
-247940
-247938
-247936
-247934
-247932
-247930
-247928
-247926
-247924
-247922
-247920
-247918
-247916
-247914
-247912
-247909
-247907
-247905
-247903
-247901
-247899
-247897
-247895
-247892
-247890
-247888
-247886
-247884
-247881
-247879
-247877
-247875
-247872
-247870
-247868
-247865
-247863
-247861
-247858
-247856
-247854
-247851
-247849
-247847
-247844
-247842
-247839
-247837
-247834
-247832
-247829
-247827
-247824
-247822
-247819
-247817
-247814
-247812
-247809
-247807
-247804
-247801
-247799
-247796
-247794
-247791
-247788
-247786
-247783
-247780
-247777
-247775
-247772
-247769
-247766
-247764
-247761
-247758
-247755
-247752
-247750
-247747
-247744
-247741
-247738
-247735
-247732
-247729
-247726
-247723
-247720
-247717
-247714
-247711
-247708
-247705
-247702
-247699
-247696
-247693
-247690
-247687
-247684
-247681
-247678
-247674
-247671
-247668
-247665
-247662
-247658
-247655
-247652
-247649
-247645
-247642
-247639
-247635
-247632
-247629
-247625
-247622
-247619
-247615
-247612
-247608
-247605
-247601
-247598
-247594
-247591
-247587
-247584
-247580
-247577
-247573
-247570
-247566
-247562
-247559
-247555
-247551
-247548
-247544
-247540
-247537
-247533
-247529
-247525
-247522
-247518
-247514
-247510
-247506
-247502
-247499
-247495
-247491
-247487
-247483
-247479
-247475
-247471
-247467
-247463
-247459
-247455
-247451
-247447
-247443
-247439
-247435
-247431
-247427
-247422
-247418
-247414
-247410
-247406
-247401
-247397
-247393
-247389
-247384
-247380
-247376
-247371
-247367
-247363
-247358
-247354
-247349
-247345
-247341
-247336
-247332
-247327
-247323
-247318
-247314
-247309
-247305
-247300
-247295
-247291
-247286
-247281
-247277
-247272
-247267
-247263
-247258
-247253
-247248
-247244
-247239
-247234
-247229
-247224
-247220
-247215
-247210
-247205
-247200
-247195
-247190
-247185
-247180
-247175
-247170
-247165
-247160
-247155
-247150
-247145
-247139
-247134
-247129
-247124
-247119
-247114
-247108
-247103
-247098
-247093
-247087
-247082
-247077
-247071
-247066
-247061
-247055
-247050
-247044
-247039
-247033
-247028
-247022
-247017
-247011
-247006
-247000
-246995
-246989
-246983
-246978
-246972
-246966
-246961
-246955
-246949
-246944
-246938
-246932
-246926
-246920
-246915
-246909
-246903
-246897
-246891
-246885
-246879
-246873
-246867
-246861
-246855
-246849
-246843
-246837
-246831
-246825
-246819
-246813
-246806
-246800
-246794
-246788
-246782
-246775
-246769
-246763
-246757
-246750
-246744
-246738
-246731
-246725
-246718
-246712
-246705
-246699
-246693
-246686
-246679
-246673
-246666
-246660
-246653
-246647
-246640
-246633
-246627
-246620
-246613
-246606
-246600
-246593
-246586
-246579
-246573
-246566
-246559
-246552
-246545
-246538
-246531
-246524
-246517
-246510
-246503
-246496
-246489
-246482
-246475
-246468
-246461
-246454
-246447
-246439
-246432
-246425
-246418
-246410
-246403
-246396
-246389
-246381
-246374
-246366
-246359
-246352
-246344
-246337
-246329
-246322
-246314
-246307
-246299
-246292
-246284
-246276
-246269
-246261
-246253
-246246
-246238
-246230
-246223
-246215
-246207
-246199
-246191
-246184
-246176
-246168
-246160
-246152
-246144
-246136
-246128
-246120
-246112
-246104
-246096
-246088
-246080
-246072
-246064
-246055
-246047
-246039
-246031
-246023
-246014
-246006
-245998
-245989
-245981
-245973
-245964
-245956
-245948
-245939
-245931
-245922
-245914
-245905
-245897
-245888
-245880
-245871
-245862
-245854
-245845
-245836
-245828
-245819
-245810
-245801
-245793
-245784
-245775
-245766
-245757
-245748
-245740
-245731
-245722
-245713
-245704
-245695
-245686
-245677
-245668
-245658
-245649
-245640
-245631
-245622
-245613
-245604
-245594
-245585
-245576
-245567
-245557
-245548
-245539
-245529
-245520
-245510
-245501
-245492
-245482
-245473
-245463
-245454
-245444
-245434
-245425
-245415
-245406
-245396
-245386
-245377
-245367
-245357
-245347
-245338
-245328
-245318
-245308
-245298
-245288
-245278
-245268
-245259
-245249
-245239
-245229
-245219
-245209
-245198
-245188
-245178
-245168
-245158
-245148
-245138
-245127
-245117
-245107
-245097
-245086
-245076
-245066
-245055
-245045
-245035
-245024
-245014
-245003
-244993
-244982
-244972
-244961
-244951
-244940
-244929
-244919
-244908
-244897
-244887
-244876
-244865
-244854
-244844
-244833
-244822
-244811
-244800
-244789
-244778
-244767
-244756
-244745
-244734
-248126
-248133
-248141
-248148
-248153
-248157
-248160
-248163
-248165
-248166
-248167
-248168
-248169
-248170
-248171
-248171
-248172
-248173
-248173
-248174
-248174
-248174
-248175
-248175
-248176
-248176
-248176
-248177
-248177
-248177
-248178
-248178
-248178
-248179
-248179
-248179
-248179
-248180
-248180
-248180
-248180
-248180
-248181
-248181
-248181
-248181
-248182
-248182
-248182
-248182
-248182
-248183
-248183
-248183
-248183
-248183
-248183
-248184
-248184
-248184
-248184
-248184
-248184
-248185
-248185
-248185
-248185
-248185
-248185
-248185
-248186
-248186
-248186
-248186
-248186
-248186
-248186
-248186
-248187
-248187
-248187
-248187
-248187
-248187
-248187
-248187
-248187
-248188
-248188
-248188
-248188
-248188
-248188
-248188
-248188
-248188
-248188
-248188
-248189
-248189
-248189
-248189
-248189
-248189
-248189
-248189
-248189
-248189
-248189
-248189
-248189
-248189
-248189
-248189
-248189
-248189
-248189
-248190
-248190
-248190
-248190
-248190
-248190
-248190
-248190
-248190
-248190
-248190
-248190
-248190
-248190
-248190
-248190
-248190
-248190
-248190
-248190
-248190
-248190
-248190
-248190
-248190
-248190
-248190
-248189
-248189
-248189
-248189
-248189
-248189
-248189
-248189
-248189
-248189
-248189
-248189
-248189
-248189
-248189
-248189
-248189
-248188
-248188
-248188
-248188
-248188
-248188
-248188
-248188
-248188
-248188
-248187
-248187
-248187
-248187
-248187
-248187
-248187
-248187
-248186
-248186
-248186
-248186
-248186
-248186
-248186
-248185
-248185
-248185
-248185
-248185
-248185
-248184
-248184
-248184
-248184
-248184
-248183
-248183
-248183
-248183
-248183
-248182
-248182
-248182
-248182
-248181
-248181
-248181
-248181
-248181
-248180
-248180
-248180
-248180
-248179
-248179
-248179
-248178
-248178
-248178
-248178
-248177
-248177
-248177
-248176
-248176
-248176
-248175
-248175
-248175
-248174
-248174
-248174
-248173
-248173
-248173
-248172
-248172
-248172
-248171
-248171
-248171
-248170
-248170
-248169
-248169
-248169
-248168
-248168
-248167
-248167
-248167
-248166
-248166
-248165
-248165
-248164
-248164
-248164
-248163
-248163
-248162
-248162
-248161
-248161
-248160
-248160
-248159
-248159
-248158
-248158
-248157
-248157
-248156
-248156
-248155
-248155
-248154
-248154
-248153
-248152
-248152
-248151
-248151
-248150
-248150
-248149
-248148
-248148
-248147
-248147
-248146
-248145
-248145
-248144
-248143
-248143
-248142
-248141
-248141
-248140
-248139
-248139
-248138
-248137
-248137
-248136
-248135
-248135
-248134
-248133
-248132
-248132
-248131
-248130
-248129
-248129
-248128
-248127
-248126
-248125
-248125
-248124
-248123
-248122
-248121
-248121
-248120
-248119
-248118
-248117
-248116
-248116
-248115
-248114
-248113
-248112
-248111
-248110
-248109
-248108
-248107
-248107
-248106
-248105
-248104
-248103
-248102
-248101
-248100
-248099
-248098
-248097
-248096
-248095
-248094
-248093
-248092
-248091
-248090
-248089
-248088
-248086
-248085
-248084
-248083
-248082
-248081
-248080
-248079
-248078
-248077
-248075
-248074
-248073
-248072
-248071
-248070
-248068
-248067
-248066
-248065
-248063
-248062
-248061
-248060
-248059
-248057
-248056
-248055
-248053
-248052
-248051
-248050
-248048
-248047
-248046
-248044
-248043
-248041
-248040
-248039
-248037
-248036
-248035
-248033
-248032
-248030
-248029
-248027
-248026
-248025
-248023
-248022
-248020
-248019
-248017
-248016
-248014
-248012
-248011
-248009
-248008
-248006
-248005
-248003
-248002
-248000
-247998
-247997
-247995
-247993
-247992
-247990
-247988
-247987
-247985
-247983
-247982
-247980
-247978
-247976
-247975
-247973
-247971
-247969
-247968
-247966
-247964
-247962
-247960
-247959
-247957
-247955
-247953
-247951
-247949
-247947
-247945
-247944
-247942
-247940
-247938
-247936
-247934
-247932
-247930
-247928
-247926
-247924
-247922
-247920
-247918
-247916
-247914
-247912
-247909
-247907
-247905
-247903
-247901
-247899
-247897
-247895
-247892
-247890
-247888
-247886
-247884
-247881
-247879
-247877
-247875
-247872
-247870
-247868
-247865
-247863
-247861
-247858
-247856
-247854
-247851
-247849
-247847
-247844
-247842
-247839
-247837
-247834
-247832
-247829
-247827
-247824
-247822
-247819
-247817
-247814
-247812
-247809
-247807
-247804
-247801
-247799
-247796
-247794
-247791
-247788
-247786
-247783
-247780
-247777
-247775
-247772
-247769
-247766
-247764
-247761
-247758
-247755
-247752
-247750
-247747
-247744
-247741
-247738
-247735
-247732
-247729
-247726
-247723
-247720
-247717
-247714
-247711
-247708
-247705
-247702
-247699
-247696
-247693
-247690
-247687
-247684
-247681
-247678
-247674
-247671
-247668
-247665
-247662
-247658
-247655
-247652
-247649
-247645
-247642
-247639
-247635
-247632
-247629
-247625
-247622
-247619
-247615
-247612
-247608
-247605
-247601
-247598
-247594
-247591
-247587
-247584
-247580
-247577
-247573
-247570
-247566
-247562
-247559
-247555
-247551
-247548
-247544
-247540
-247537
-247533
-247529
-247525
-247522
-247518
-247514
-247510
-247506
-247503
-247499
-247495
-247491
-247487
-247483
-247479
-247475
-247471
-247467
-247463
-247459
-247455
-247451
-247447
-247443
-247439
-247435
-247431
-247427
-247422
-247418
-247414
-247410
-247406
-247401
-247397
-247393
-247389
-247384
-247380
-247376
-247371
-247367
-247363
-247358
-247354
-247350
-247345
-247341
-247336
-247332
-247327
-247323
-247318
-247314
-247309
-247305
-247300
-247295
-247291
-247286
-247281
-247277
-247272
-247267
-247263
-247258
-247253
-247248
-247244
-247239
-247234
-247229
-247224
-247220
-247215
-247210
-247205
-247200
-247195
-247190
-247185
-247180
-247175
-247170
-247165
-247160
-247155
-247150
-247145
-247140
-247134
-247129
-247124
-247119
-247114
-247108
-247103
-247098
-247093
-247087
-247082
-247077
-247071
-247066
-247061
-247055
-247050
-247044
-247039
-247033
-247028
-247022
-247017
-247011
-247006
-247000
-246995
-246989
-246983
-246978
-246972
-246966
-246961
-246955
-246949
-246944
-246938
-246932
-246926
-246920
-246915
-246909
-246903
-246897
-246891
-246885
-246879
-246873
-246867
-246861
-246855
-246849
-246843
-246837
-246831
-246825
-246819
-246813
-246806
-246800
-246794
-246788
-246782
-246775
-246769
-246763
-246757
-246750
-246744
-246738
-246731
-246725
-246718
-246712
-246705
-246699
-246693
-246686
-246680
-246673
-246666
-246660
-246653
-246647
-246640
-246633
-246627
-246620
-246613
-246607
-246600
-246593
-246586
-246579
-246573
-246566
-246559
-246552
-246545
-246538
-246531
-246524
-246517
-246510
-246503
-246496
-246489
-246482
-246475
-246468
-246461
-246454
-246447
-246439
-246432
-246425
-246418
-246410
-246403
-246396
-246389
-246381
-246374
-246366
-246359
-246352
-246344
-246337
-246329
-246322
-246314
-246307
-246299
-246292
-246284
-246276
-246269
-246261
-246254
-246246
-246238
-246230
-246223
-246215
-246207
-246199
-246191
-246184
-246176
-246168
-246160
-246152
-246144
-246136
-246128
-246120
-246112
-246104
-246096
-246088
-246080
-246072
-246064
-246055
-246047
-246039
-246031
-246023
-246014
-246006
-245998
-245989
-245981
-245973
-245964
-245956
-245948
-245939
-245931
-245922
-245914
-245905
-245897
-245888
-245880
-245871
-245862
-245854
-245845
-245836
-245828
-245819
-245810
-245801
-245793
-245784
-245775
-245766
-245757
-245748
-245740
-245731
-245722
-245713
-245704
-245695
-245686
-245677
-245668
-245659
-245649
-245640
-245631
-245622
-245613
-245604
-245594
-245585
-245576
-245567
-245557
-245548
-245539
-245529
-245520
-245510
-245501
-245492
-245482
-245473
-245463
-245454
-245444
-245434
-245425
-245415
-245406
-245396
-245386
-245377
-245367
-245357
-245347
-245338
-245328
-245318
-245308
-245298
-245288
-245278
-245269
-245259
-245249
-245239
-245229
-245219
-245209
-245198
-245188
-245178
-245168
-245158
-245148
-245138
-245127
-245117
-245107
-245097
-245086
-245076
-245066
-245055
-245045
-245035
-245024
-245014
-245003
-244993
-244982
-244972
-244961
-244951
-244940
-244929
-244919
-244908
-244897
-244887
-244876
-244865
-244854
-244844
-244833
-244822
-244811
-244800
-244789
-244778
-244767
-244756
-244745
-244734
-248137
-248141
-248145
-248150
-248154
-248157
-248160
-248162
-248164
-248166
-248167
-248168
-248169
-248170
-248171
-248171
-248172
-248172
-248173
-248173
-248174
-248174
-248175
-248175
-248176
-248176
-248176
-248177
-248177
-248177
-248178
-248178
-248178
-248178
-248179
-248179
-248179
-248180
-248180
-248180
-248180
-248180
-248181
-248181
-248181
-248181
-248182
-248182
-248182
-248182
-248182
-248183
-248183
-248183
-248183
-248183
-248183
-248184
-248184
-248184
-248184
-248184
-248184
-248185
-248185
-248185
-248185
-248185
-248185
-248185
-248186
-248186
-248186
-248186
-248186
-248186
-248186
-248186
-248187
-248187
-248187
-248187
-248187
-248187
-248187
-248187
-248187
-248188
-248188
-248188
-248188
-248188
-248188
-248188
-248188
-248188
-248188
-248188
-248189
-248189
-248189
-248189
-248189
-248189
-248189
-248189
-248189
-248189
-248189
-248189
-248189
-248189
-248189
-248189
-248189
-248189
-248189
-248190
-248190
-248190
-248190
-248190
-248190
-248190
-248190
-248190
-248190
-248190
-248190
-248190
-248190
-248190
-248190
-248190
-248190
-248190
-248190
-248190
-248190
-248190
-248190
-248190
-248190
-248190
-248189
-248189
-248189
-248189
-248189
-248189
-248189
-248189
-248189
-248189
-248189
-248189
-248189
-248189
-248189
-248189
-248189
-248188
-248188
-248188
-248188
-248188
-248188
-248188
-248188
-248188
-248188
-248187
-248187
-248187
-248187
-248187
-248187
-248187
-248187
-248186
-248186
-248186
-248186
-248186
-248186
-248186
-248185
-248185
-248185
-248185
-248185
-248185
-248184
-248184
-248184
-248184
-248184
-248183
-248183
-248183
-248183
-248183
-248182
-248182
-248182
-248182
-248181
-248181
-248181
-248181
-248181
-248180
-248180
-248180
-248180
-248179
-248179
-248179
-248178
-248178
-248178
-248178
-248177
-248177
-248177
-248176
-248176
-248176
-248175
-248175
-248175
-248174
-248174
-248174
-248173
-248173
-248173
-248172
-248172
-248172
-248171
-248171
-248171
-248170
-248170
-248169
-248169
-248169
-248168
-248168
-248167
-248167
-248167
-248166
-248166
-248165
-248165
-248164
-248164
-248164
-248163
-248163
-248162
-248162
-248161
-248161
-248160
-248160
-248159
-248159
-248158
-248158
-248157
-248157
-248156
-248156
-248155
-248155
-248154
-248154
-248153
-248152
-248152
-248151
-248151
-248150
-248150
-248149
-248148
-248148
-248147
-248147
-248146
-248145
-248145
-248144
-248143
-248143
-248142
-248141
-248141
-248140
-248139
-248139
-248138
-248137
-248137
-248136
-248135
-248135
-248134
-248133
-248132
-248132
-248131
-248130
-248129
-248129
-248128
-248127
-248126
-248125
-248125
-248124
-248123
-248122
-248121
-248121
-248120
-248119
-248118
-248117
-248116
-248116
-248115
-248114
-248113
-248112
-248111
-248110
-248109
-248108
-248107
-248107
-248106
-248105
-248104
-248103
-248102
-248101
-248100
-248099
-248098
-248097
-248096
-248095
-248094
-248093
-248092
-248091
-248090
-248089
-248088
-248086
-248085
-248084
-248083
-248082
-248081
-248080
-248079
-248078
-248077
-248075
-248074
-248073
-248072
-248071
-248070
-248068
-248067
-248066
-248065
-248063
-248062
-248061
-248060
-248059
-248057
-248056
-248055
-248053
-248052
-248051
-248050
-248048
-248047
-248046
-248044
-248043
-248041
-248040
-248039
-248037
-248036
-248035
-248033
-248032
-248030
-248029
-248027
-248026
-248025
-248023
-248022
-248020
-248019
-248017
-248016
-248014
-248012
-248011
-248009
-248008
-248006
-248005
-248003
-248002
-248000
-247998
-247997
-247995
-247993
-247992
-247990
-247988
-247987
-247985
-247983
-247982
-247980
-247978
-247976
-247975
-247973
-247971
-247969
-247968
-247966
-247964
-247962
-247960
-247959
-247957
-247955
-247953
-247951
-247949
-247947
-247945
-247944
-247942
-247940
-247938
-247936
-247934
-247932
-247930
-247928
-247926
-247924
-247922
-247920
-247918
-247916
-247914
-247912
-247909
-247907
-247905
-247903
-247901
-247899
-247897
-247895
-247892
-247890
-247888
-247886
-247884
-247881
-247879
-247877
-247875
-247872
-247870
-247868
-247865
-247863
-247861
-247858
-247856
-247854
-247851
-247849
-247847
-247844
-247842
-247839
-247837
-247834
-247832
-247829
-247827
-247824
-247822
-247819
-247817
-247814
-247812
-247809
-247807
-247804
-247801
-247799
-247796
-247794
-247791
-247788
-247786
-247783
-247780
-247777
-247775
-247772
-247769
-247766
-247764
-247761
-247758
-247755
-247752
-247750
-247747
-247744
-247741
-247738
-247735
-247732
-247729
-247726
-247723
-247720
-247717
-247714
-247711
-247708
-247705
-247702
-247699
-247696
-247693
-247690
-247687
-247684
-247681
-247678
-247674
-247671
-247668
-247665
-247662
-247658
-247655
-247652
-247649
-247645
-247642
-247639
-247635
-247632
-247629
-247625
-247622
-247619
-247615
-247612
-247608
-247605
-247601
-247598
-247594
-247591
-247587
-247584
-247580
-247577
-247573
-247570
-247566
-247562
-247559
-247555
-247551
-247548
-247544
-247540
-247537
-247533
-247529
-247525
-247522
-247518
-247514
-247510
-247506
-247503
-247499
-247495
-247491
-247487
-247483
-247479
-247475
-247471
-247467
-247463
-247459
-247455
-247451
-247447
-247443
-247439
-247435
-247431
-247427