/*--------------------------------*- C++ -*----------------------------------*\
| =========                 |                                                 |
| \\      /  F ield         | OpenFOAM: The Open Source CFD Toolbox           |
|  \\    /   O peration     | Version:  2512                                  |
|   \\  /    A nd           | Website:  www.openfoam.com                      |
|    \\/     M anipulation  |                                                 |
\*---------------------------------------------------------------------------*/
FoamFile
{
    version     2.0;
    format      ascii;
    arch        "LSB;label=32;scalar=64";
    class       volScalarField;
    location    "0.006";
    object      pB;
}
// * * * * * * * * * * * * * * * * * * * * * * * * * * * * * * * * * * * * * //

dimensions      [1 1 -3 0 0 -1 0];

internalField   nonuniform List<scalar> 
100000
(
-156.918
-410.043
-639.021
-830.346
-980.636
-1092.16
-1169.38
-1217.58
-1242.05
-1247.73
-1238.97
-1219.45
-1192.16
-1159.5
-1123.32
-1085.03
-1045.66
-1005.98
-966.526
-927.658
-889.632
-852.607
-816.68
-781.901
-748.292
-715.85
-684.559
-654.391
-625.315
-597.295
-570.292
-544.269
-519.185
-495.005
-471.69
-449.205
-427.517
-406.594
-386.403
-366.917
-348.106
-329.945
-312.409
-295.473
-279.114
-263.312
-248.046
-233.297
-219.046
-205.275
-191.969
-179.111
-166.686
-154.68
-143.08
-131.874
-121.048
-110.591
-100.493
-90.7425
-81.3302
-72.2464
-63.4821
-55.0283
-46.8768
-39.0193
-31.4476
-24.1537
-17.1297
-10.3674
-3.85869
2.40488
8.43186
14.231
19.8112
25.1815
30.3511
35.3289
40.1241
44.7452
49.2008
53.4989
57.6473
61.6532
65.5233
69.264
72.8811
76.38
79.7658
83.0432
86.2164
89.2896
92.2665
95.1504
97.9447
100.652
103.276
105.819
108.283
110.67
112.983
115.223
117.393
119.493
121.526
123.493
125.394
127.233
129.009
130.724
132.38
133.978
135.518
137.004
138.437
139.819
141.151
142.435
143.675
144.871
146.027
147.143
148.223
149.267
150.279
151.259
152.209
153.131
154.025
154.894
155.738
156.558
157.354
158.129
158.882
159.614
160.326
161.018
161.69
162.344
162.978
163.594
164.192
164.773
165.335
165.881
166.409
166.921
167.416
167.896
168.36
168.809
169.243
169.664
170.071
170.466
170.848
171.218
171.577
171.925
172.262
172.59
172.908
173.216
173.516
173.808
174.091
174.366
174.633
174.893
175.145
175.39
175.628
175.859
176.083
176.301
176.512
176.717
176.916
177.108
177.295
177.476
177.652
177.823
177.99
178.151
178.308
178.462
178.611
178.757
178.899
179.039
179.175
179.308
179.438
179.564
179.688
179.809
179.927
180.042
180.154
180.262
180.367
180.47
180.569
180.664
180.757
180.846
180.933
181.016
181.096
181.174
181.249
181.321
181.391
181.459
181.524
181.588
181.649
181.709
181.767
181.824
181.88
181.934
181.987
182.039
182.09
182.14
182.189
182.237
182.284
182.331
182.376
182.42
182.464
182.507
182.549
182.589
182.63
182.669
182.707
182.745
182.781
182.817
182.852
182.887
182.92
182.953
182.985
183.016
183.047
183.077
183.106
183.134
183.162
183.189
183.215
183.241
183.265
183.29
183.313
183.336
183.358
183.379
183.4
183.421
183.44
183.459
183.478
183.495
183.513
183.53
183.546
183.562
183.577
183.592
183.607
183.621
183.634
183.647
183.66
183.672
183.684
183.696
183.707
183.717
183.728
183.737
183.747
183.756
183.765
183.773
183.781
183.789
183.797
183.804
183.81
183.817
183.823
183.829
183.835
183.84
183.846
183.851
183.855
183.86
183.864
183.868
183.872
183.876
183.879
183.883
183.886
183.889
183.892
183.895
183.897
183.9
183.902
183.904
183.906
183.908
183.91
183.911
183.913
183.914
183.916
183.917
183.918
183.919
183.92
183.921
183.922
183.922
183.923
183.924
183.924
183.925
183.925
183.925
183.925
183.925
183.926
183.926
183.926
183.926
183.925
183.925
183.925
183.925
183.924
183.924
183.924
183.923
183.923
183.922
183.922
183.921
183.921
183.92
183.919
183.919
183.918
183.917
183.917
183.916
183.915
183.914
183.913
183.912
183.911
183.911
183.91
183.909
183.908
183.907
183.906
183.905
183.904
183.903
183.902
183.9
183.899
183.898
183.897
183.896
183.895
183.894
183.893
183.892
183.89
183.889
183.888
183.887
183.886
183.884
183.883
183.882
183.881
183.88
183.878
183.877
183.876
183.875
183.873
183.872
183.871
183.87
183.868
183.867
183.866
183.864
183.863
183.862
183.861
183.859
183.858
183.857
183.855
183.854
183.853
183.851
183.85
183.849
183.848
183.846
183.845
183.844
183.842
183.841
183.84
183.838
183.837
183.836
183.834
183.833
183.832
183.83
183.829
183.828
183.826
183.825
183.823
183.822
183.821
183.819
183.818
183.817
183.815
183.814
183.813
183.811
183.81
183.808
183.807
183.806
183.804
183.803
183.802
183.8
183.799
183.797
183.796
183.795
183.793
183.792
183.791
183.789
183.788
183.786
183.785
183.784
183.782
183.781
183.779
183.778
183.777
183.775
183.774
183.772
183.771
183.77
183.768
183.767
183.765
183.764
183.762
183.761
183.76
183.758
183.757
183.755
183.754
183.752
183.751
183.75
183.748
183.747
183.745
183.744
183.742
183.741
183.739
183.738
183.737
183.735
183.734
183.732
183.731
183.729
183.728
183.726
183.725
183.723
183.722
183.72
183.719
183.717
183.716
183.714
183.713
183.711
183.71
183.708
183.707
183.705
183.704
183.702
183.701
183.699
183.698
183.696
183.695
183.693
183.692
183.69
183.689
183.687
183.686
183.684
183.682
183.681
183.679
183.678
183.676
183.675
183.673
183.671
183.67
183.668
183.667
183.665
183.664
183.662
183.66
183.659
183.657
183.656
183.654
183.652
183.651
183.649
183.647
183.646
183.644
183.642
183.641
183.639
183.638
183.636
183.634
183.633
183.631
183.629
183.628
183.626
183.624
183.622
183.621
183.619
183.617
183.616
183.614
183.612
183.611
183.609
183.607
183.605
183.604
183.602
183.6
183.598
183.597
183.595
183.593
183.591
183.59
183.588
183.586
183.584
183.582
183.581
183.579
183.577
183.575
183.573
183.571
183.57
183.568
183.566
183.564
183.562
183.56
183.558
183.557
183.555
183.553
183.551
183.549
183.547
183.545
183.543
183.541
183.539
183.538
183.536
183.534
183.532
183.53
183.528
183.526
183.524
183.522
183.52
183.518
183.516
183.514
183.512
183.51
183.508
183.506
183.504
183.502
183.499
183.497
183.495
183.493
183.491
183.489
183.487
183.485
183.483
183.48
183.478
183.476
183.474
183.472
183.47
183.467
183.465
183.463
183.461
183.458
183.456
183.454
183.452
183.449
183.447
183.445
183.443
183.44
183.438
183.436
183.433
183.431
183.429
183.426
183.424
183.421
183.419
183.416
183.414
183.412
183.409
183.407
183.404
183.402
183.399
183.397
183.394
183.391
183.389
183.386
183.384
183.381
183.378
183.376
183.373
183.37
183.368
183.365
183.362
183.359
183.357
183.354
183.351
183.348
183.345
183.342
183.339
183.336
183.333
183.33
183.327
183.324
183.321
183.318
183.315
183.312
183.309
183.306
183.302
183.299
183.296
183.293
183.289
183.286
183.282
183.279
183.276
183.272
183.269
183.265
183.261
183.258
183.254
183.25
183.246
183.243
183.239
183.235
183.231
183.227
183.223
183.219
183.214
183.21
183.206
183.201
183.197
183.193
183.188
183.183
183.179
183.174
183.169
183.164
183.159
183.154
183.149
183.144
183.139
183.134
183.128
183.123
183.117
183.111
183.105
183.1
183.094
183.087
183.081
183.075
183.068
183.062
183.055
183.048
183.041
183.034
183.027
183.019
183.012
183.004
182.996
182.988
182.98
182.972
182.963
182.955
182.946
182.937
182.927
182.918
182.908
182.898
182.888
182.878
182.867
182.856
182.845
182.834
182.822
182.81
182.798
182.785
182.772
182.759
182.746
182.732
182.718
182.703
182.688
182.673
182.658
182.641
182.625
182.608
182.591
182.573
182.555
182.536
182.517
182.497
182.477
182.456
182.435
182.413
182.39
182.367
182.343
182.319
182.293
182.268
182.241
182.214
182.186
182.157
182.127
182.096
182.065
182.033
181.999
181.965
181.93
181.894
181.857
181.818
181.779
181.738
181.696
181.653
181.609
181.564
181.517
181.468
181.419
181.367
181.315
181.26
181.204
181.147
181.087
181.026
180.963
180.898
180.832
180.763
180.692
180.619
180.543
180.466
180.386
180.303
180.218
180.131
180.041
179.948
179.852
179.753
179.651
179.546
179.438
179.327
179.212
179.093
178.971
178.845
178.715
178.581
178.443
178.301
178.154
178.003
177.846
177.685
177.52
177.348
177.172
176.99
176.802
176.608
176.409
176.203
175.99
175.771
175.545
175.312
175.072
174.824
174.568
174.304
174.032
173.751
173.461
173.162
172.854
172.536
172.207
171.869
171.519
171.159
170.787
170.403
170.007
169.599
169.177
168.742
168.293
167.829
167.351
166.858
166.348
165.822
165.28
164.72
164.141
163.544
162.928
162.292
161.635
160.957
160.257
159.534
158.787
158.016
157.22
156.397
155.548
154.67
153.763
152.826
151.858
150.858
149.824
148.755
147.65
146.507
145.325
144.103
142.839
141.531
140.178
138.777
137.327
135.826
134.271
132.66
130.991
129.26
127.466
125.605
123.674
121.67
119.588
117.426
115.178
112.841
110.409
107.877
105.239
102.488
99.6188
96.6225
93.4911
90.2152
86.7845
83.1871
79.4093
75.4349
71.2445
66.8139
62.1125
57.1011
51.728
45.9252
39.6017
32.6342
24.8532
16.0195
5.91116
-119.743
-366.999
-589.533
-777.635
-928.067
-1041.71
-1122.1
-1173.95
-1202.23
-1211.67
-1206.49
-1190.3
-1166.08
-1136.2
-1102.53
-1066.49
-1029.13
-991.234
-953.361
-915.903
-879.129
-843.218
-808.283
-774.391
-741.575
-709.844
-679.192
-649.6
-621.044
-593.495
-566.919
-541.284
-516.554
-492.696
-469.676
-447.462
-426.023
-405.327
-385.347
-366.054
-347.423
-329.427
-312.044
-295.249
-279.023
-263.343
-248.191
-233.547
-219.394
-205.715
-192.494
-179.716
-167.365
-155.429
-143.895
-132.749
-121.979
-111.576
-101.527
-91.8233
-82.4543
-73.411
-64.6844
-56.2658
-48.147
-40.3198
-32.7763
-25.5085
-18.5086
-11.7685
-5.28009
0.964827
6.97474
12.7583
18.3243
23.6818
28.8396
33.8069
38.5923
43.2046
47.6521
51.9428
56.0843
60.0838
63.9479
67.6829
71.2946
74.7885
78.1694
81.4421
84.6108
87.6796
90.6522
93.532
96.3222
99.0259
101.646
104.185
106.645
109.029
111.338
113.575
115.741
117.838
119.868
121.832
123.731
125.566
127.34
129.053
130.706
132.302
133.841
135.326
136.757
138.137
139.468
140.752
141.99
143.186
144.341
145.457
146.536
147.58
148.592
149.571
150.521
151.442
152.336
153.204
154.048
154.867
155.663
156.437
157.189
157.92
158.631
159.322
159.994
160.646
161.28
161.895
162.493
163.072
163.634
164.178
164.706
165.217
165.711
166.19
166.654
167.102
167.536
167.956
168.363
168.757
169.139
169.508
169.867
170.214
170.552
170.879
171.196
171.505
171.804
172.095
172.378
172.653
172.919
173.179
173.431
173.675
173.913
174.144
174.368
174.585
174.796
175
175.199
175.391
175.578
175.759
175.934
176.105
176.271
176.432
176.589
176.742
176.892
177.037
177.179
177.318
177.454
177.587
177.716
177.843
177.966
178.087
178.204
178.319
178.43
178.538
178.643
178.745
178.844
178.939
179.031
179.121
179.207
179.29
179.37
179.447
179.522
179.594
179.664
179.732
179.797
179.86
179.922
179.982
180.04
180.097
180.152
180.206
180.259
180.311
180.362
180.412
180.46
180.508
180.555
180.601
180.646
180.691
180.734
180.777
180.818
180.859
180.899
180.938
180.976
181.013
181.05
181.085
181.12
181.154
181.188
181.22
181.252
181.283
181.314
181.343
181.372
181.4
181.428
181.455
181.481
181.506
181.531
181.555
181.578
181.601
181.623
181.644
181.665
181.685
181.704
181.723
181.741
181.759
181.776
181.793
181.809
181.825
181.84
181.855
181.869
181.883
181.897
181.91
181.922
181.934
181.946
181.957
181.968
181.979
181.989
181.999
182.008
182.017
182.026
182.034
182.042
182.05
182.057
182.064
182.071
182.077
182.083
182.089
182.095
182.1
182.105
182.11
182.115
182.119
182.123
182.127
182.131
182.135
182.138
182.142
182.145
182.148
182.15
182.153
182.155
182.158
182.16
182.162
182.164
182.166
182.167
182.169
182.17
182.172
182.173
182.174
182.175
182.176
182.177
182.178
182.178
182.179
182.18
182.18
182.18
182.181
182.181
182.181
182.181
182.181
182.181
182.181
182.181
182.181
182.181
182.18
182.18
182.18
182.179
182.179
182.178
182.178
182.177
182.177
182.176
182.175
182.175
182.174
182.173
182.172
182.172
182.171
182.17
182.169
182.168
182.167
182.166
182.165
182.164
182.163
182.162
182.161
182.16
182.159
182.158
182.157
182.156
182.154
182.153
182.152
182.151
182.15
182.148
182.147
182.146
182.145
182.144
182.142
182.141
182.14
182.138
182.137
182.136
182.135
182.133
182.132
182.131
182.129
182.128
182.127
182.125
182.124
182.123
182.121
182.12
182.118
182.117
182.116
182.114
182.113
182.112
182.11
182.109
182.107
182.106
182.104
182.103
182.102
182.1
182.099
182.097
182.096
182.095
182.093
182.092
182.09
182.089
182.087
182.086
182.085
182.083
182.082
182.08
182.079
182.077
182.076
182.074
182.073
182.071
182.07
182.069
182.067
182.066
182.064
182.063
182.061
182.06
182.058
182.057
182.055
182.054
182.052
182.051
182.049
182.048
182.046
182.045
182.044
182.042
182.041
182.039
182.038
182.036
182.035
182.033
182.032
182.03
182.029
182.027
182.026
182.024
182.023
182.021
182.02
182.018
182.016
182.015
182.013
182.012
182.01
182.009
182.007
182.006
182.004
182.003
182.001
182
181.998
181.997
181.995
181.994
181.992
181.99
181.989
181.987
181.986
181.984
181.983
181.981
181.98
181.978
181.976
181.975
181.973
181.972
181.97
181.969
181.967
181.965
181.964
181.962
181.961
181.959
181.957
181.956
181.954
181.953
181.951
181.949
181.948
181.946
181.945
181.943
181.941
181.94
181.938
181.937
181.935
181.933
181.932
181.93
181.928
181.927
181.925
181.923
181.922
181.92
181.918
181.917
181.915
181.913
181.912
181.91
181.908
181.907
181.905
181.903
181.902
181.9
181.898
181.897
181.895
181.893
181.891
181.89
181.888
181.886
181.885
181.883
181.881
181.879
181.878
181.876
181.874
181.872
181.871
181.869
181.867
181.865
181.864
181.862
181.86
181.858
181.856
181.855
181.853
181.851
181.849
181.847
181.846
181.844
181.842
181.84
181.838
181.836
181.835
181.833
181.831
181.829
181.827
181.825
181.823
181.822
181.82
181.818
181.816
181.814
181.812
181.81
181.808
181.806
181.804
181.802
181.801
181.799
181.797
181.795
181.793
181.791
181.789
181.787
181.785
181.783
181.781
181.779
181.777
181.775
181.773
181.771
181.769
181.767
181.765
181.763
181.761
181.759
181.757
181.754
181.752
181.75
181.748
181.746
181.744
181.742
181.74
181.738
181.736
181.733
181.731
181.729
181.727
181.725
181.723
181.72
181.718
181.716
181.714
181.712
181.709
181.707
181.705
181.703
181.7
181.698
181.696
181.693
181.691
181.689
181.687
181.684
181.682
181.68
181.677
181.675
181.673
181.67
181.668
181.665
181.663
181.661
181.658
181.656
181.653
181.651
181.648
181.646
181.643
181.641
181.638
181.636
181.633
181.631
181.628
181.625
181.623
181.62
181.618
181.615
181.612
181.61
181.607
181.604
181.601
181.599
181.596
181.593
181.59
181.588
181.585
181.582
181.579
181.576
181.573
181.57
181.567
181.565
181.562
181.559
181.556
181.552
181.549
181.546
181.543
181.54
181.537
181.534
181.531
181.527
181.524
181.521
181.517
181.514
181.511
181.507
181.504
181.5
181.497
181.493
181.49
181.486
181.482
181.479
181.475
181.471
181.467
181.464
181.46
181.456
181.452
181.448
181.444
181.44
181.435
181.431
181.427
181.423
181.418
181.414
181.409
181.405
181.4
181.395
181.391
181.386
181.381
181.376
181.371
181.366
181.36
181.355
181.35
181.344
181.339
181.333
181.328
181.322
181.316
181.31
181.304
181.297
181.291
181.285
181.278
181.271
181.265
181.258
181.251
181.243
181.236
181.229
181.221
181.213
181.205
181.197
181.189
181.18
181.172
181.163
181.154
181.145
181.135
181.126
181.116
181.106
181.096
181.085
181.074
181.064
181.052
181.041
181.029
181.017
181.005
180.992
180.979
180.966
180.952
180.939
180.924
180.91
180.895
180.879
180.864
180.848
180.831
180.814
180.797
180.779
180.761
180.742
180.722
180.703
180.682
180.661
180.64
180.618
180.595
180.572
180.548
180.524
180.498
180.472
180.446
180.418
180.39
180.361
180.331
180.301
180.269
180.237
180.204
180.169
180.134
180.098
180.061
180.022
179.983
179.942
179.9
179.857
179.813
179.767
179.72
179.672
179.622
179.571
179.518
179.464
179.408
179.35
179.291
179.229
179.166
179.101
179.035
178.966
178.895
178.822
178.746
178.669
178.589
178.506
178.421
178.334
178.244
178.151
178.055
177.956
177.854
177.749
177.641
177.529
177.415
177.296
177.174
177.048
176.918
176.784
176.646
176.504
176.357
176.206
176.05
175.889
175.723
175.552
175.375
175.193
175.006
174.812
174.612
174.406
174.194
173.975
173.749
173.516
173.276
173.028
172.772
172.508
172.236
171.956
171.666
171.367
171.059
170.741
170.413
170.075
169.725
169.365
168.993
168.61
168.214
167.805
167.384
166.949
166.5
166.037
165.559
165.066
164.557
164.031
163.489
162.929
162.351
161.754
161.138
160.502
159.846
159.168
158.468
157.745
156.999
156.228
155.432
154.61
153.76
152.883
151.976
151.04
150.072
149.071
148.038
146.969
145.864
144.722
143.54
142.319
141.055
139.747
138.394
136.994
135.544
134.043
132.488
130.877
129.208
127.478
125.684
123.823
121.893
119.889
117.807
115.646
113.399
111.062
108.63
106.099
103.462
100.713
97.8455
94.8512
91.7223
88.4495
85.0224
81.4294
77.657
73.6895
69.5077
65.0886
60.4032
55.4144
50.075
44.3232
38.0785
31.2344
23.648
15.1253
5.51247
-99.7258
-318.7
-524.588
-703.462
-850.39
-964.512
-1047.88
-1104.13
-1137.55
-1152.38
-1152.57
-1141.54
-1122.16
-1096.75
-1067.16
-1034.82
-1000.78
-965.865
-930.656
-895.576
-860.925
-826.91
-793.671
-761.297
-729.843
-699.335
-669.785
-641.188
-613.532
-586.798
-560.963
-536.001
-511.887
-488.591
-466.086
-444.344
-423.338
-403.041
-383.428
-364.475
-346.157
-328.451
-311.336
-294.791
-278.796
-263.331
-248.379
-233.922
-219.942
-206.425
-193.355
-180.718
-168.5
-156.687
-145.267
-134.229
-123.561
-113.252
-103.292
-93.6708
-84.3791
-75.408
-66.7488
-58.3931
-50.3328
-42.56
-35.067
-27.8459
-20.8891
-14.1887
-7.73673
-1.52519
4.45422
10.21
15.7507
21.0851
26.2221
31.1704
35.9385
40.535
44.9679
49.2453
53.3744
57.3623
61.2156
64.9403
68.5423
72.0268
75.3988
78.6629
81.8233
84.884
87.8487
90.7208
93.5035
96.1999
98.8127
101.345
103.798
106.175
108.478
110.708
112.868
114.959
116.983
118.941
120.835
122.666
124.435
126.143
127.792
129.384
130.92
132.401
133.83
135.208
136.537
137.819
139.056
140.25
141.404
142.519
143.597
144.641
145.651
146.63
147.579
148.499
149.392
150.259
151.101
151.919
152.714
153.486
154.237
154.967
155.676
156.366
157.035
157.686
158.318
158.932
159.527
160.105
160.665
161.208
161.734
162.244
162.737
163.214
163.677
164.124
164.557
164.976
165.382
165.775
166.156
166.525
166.883
167.23
167.566
167.893
168.21
168.517
168.816
169.106
169.388
169.662
169.929
170.187
170.438
170.682
170.919
171.149
171.373
171.589
171.8
172.004
172.201
172.393
172.579
172.76
172.935
173.105
173.271
173.432
173.588
173.741
173.889
174.034
174.176
174.314
174.45
174.582
174.71
174.836
174.959
175.079
175.196
175.31
175.42
175.528
175.632
175.734
175.832
175.927
176.018
176.107
176.193
176.276
176.356
176.433
176.507
176.579
176.649
176.716
176.781
176.844
176.905
176.965
177.023
177.08
177.135
177.189
177.241
177.293
177.344
177.393
177.442
177.489
177.536
177.582
177.626
177.67
177.713
177.756
177.797
177.837
177.877
177.915
177.953
177.99
178.026
178.062
178.096
178.13
178.163
178.195
178.227
178.257
178.288
178.317
178.345
178.373
178.401
178.427
178.453
178.478
178.502
178.526
178.549
178.571
178.593
178.614
178.635
178.654
178.674
178.692
178.71
178.728
178.745
178.761
178.777
178.793
178.808
178.822
178.836
178.85
178.863
178.876
178.888
178.9
178.912
178.923
178.934
178.944
178.954
178.963
178.973
178.981
178.99
178.998
179.006
179.013
179.02
179.027
179.034
179.04
179.046
179.052
179.057
179.062
179.067
179.072
179.076
179.081
179.085
179.089
179.092
179.096
179.099
179.102
179.105
179.108
179.11
179.113
179.115
179.117
179.119
179.121
179.123
179.125
179.126
179.128
179.129
179.13
179.131
179.132
179.133
179.134
179.135
179.135
179.136
179.136
179.136
179.137
179.137
179.137
179.137
179.137
179.137
179.137
179.137
179.137
179.136
179.136
179.136
179.135
179.135
179.134
179.134
179.133
179.132
179.132
179.131
179.13
179.13
179.129
179.128
179.127
179.126
179.125
179.124
179.123
179.122
179.121
179.12
179.119
179.118
179.117
179.116
179.114
179.113
179.112
179.111
179.109
179.108
179.107
179.106
179.104
179.103
179.102
179.1
179.099
179.098
179.096
179.095
179.093
179.092
179.091
179.089
179.088
179.086
179.085
179.083
179.082
179.08
179.079
179.078
179.076
179.075
179.073
179.072
179.07
179.068
179.067
179.065
179.064
179.062
179.061
179.059
179.058
179.056
179.055
179.053
179.051
179.05
179.048
179.047
179.045
179.044
179.042
179.04
179.039
179.037
179.036
179.034
179.033
179.031
179.029
179.028
179.026
179.024
179.023
179.021
179.02
179.018
179.016
179.015
179.013
179.012
179.01
179.008
179.007
179.005
179.003
179.002
179
178.999
178.997
178.995
178.994
178.992
178.99
178.989
178.987
178.985
178.984
178.982
178.98
178.979
178.977
178.976
178.974
178.972
178.971
178.969
178.967
178.966
178.964
178.962
178.961
178.959
178.957
178.956
178.954
178.952
178.95
178.949
178.947
178.945
178.944
178.942
178.94
178.939
178.937
178.935
178.934
178.932
178.93
178.928
178.927
178.925
178.923
178.922
178.92
178.918
178.916
178.915
178.913
178.911
178.91
178.908
178.906
178.904
178.903
178.901
178.899
178.897
178.896
178.894
178.892
178.89
178.889
178.887
178.885
178.883
178.882
178.88
178.878
178.876
178.874
178.873
178.871
178.869
178.867
178.866
178.864
178.862
178.86
178.858
178.857
178.855
178.853
178.851
178.849
178.848
178.846
178.844
178.842
178.84
178.838
178.837
178.835
178.833
178.831
178.829
178.827
178.825
178.824
178.822
178.82
178.818
178.816
178.814
178.812
178.81
178.809
178.807
178.805
178.803
178.801
178.799
178.797
178.795
178.793
178.791
178.789
178.787
178.786
178.784
178.782
178.78
178.778
178.776
178.774
178.772
178.77
178.768
178.766
178.764
178.762
178.76
178.758
178.756
178.754
178.752
178.75
178.748
178.746
178.744
178.742
178.74
178.738
178.736
178.734
178.732
178.73
178.728
178.725
178.723
178.721
178.719
178.717
178.715
178.713
178.711
178.709
178.707
178.704
178.702
178.7
178.698
178.696
178.694
178.692
178.689
178.687
178.685
178.683
178.681
178.679
178.676
178.674
178.672
178.67
178.667
178.665
178.663
178.661
178.659
178.656
178.654
178.652
178.649
178.647
178.645
178.643
178.64
178.638
178.636
178.633
178.631
178.629
178.626
178.624
178.622
178.619
178.617
178.614
178.612
178.61
178.607
178.605
178.602
178.6
178.597
178.595
178.592
178.59
178.587
178.585
178.583
178.58
178.577
178.575
178.572
178.57
178.567
178.565
178.562
178.56
178.557
178.554
178.552
178.549
178.546
178.544
178.541
178.538
178.536
178.533
178.53
178.527
178.525
178.522
178.519
178.516
178.514
178.511
178.508
178.505
178.502
178.499
178.496
178.493
178.491
178.488
178.485
178.482
178.479
178.476
178.473
178.47
178.466
178.463
178.46
178.457
178.454
178.451
178.448
178.444
178.441
178.438
178.435
178.431
178.428
178.424
178.421
178.418
178.414
178.411
178.407
178.404
178.4
178.396
178.393
178.389
178.385
178.382
178.378
178.374
178.37
178.366
178.363
178.359
178.355
178.35
178.346
178.342
178.338
178.334
178.33
178.325
178.321
178.316
178.312
178.307
178.303
178.298
178.293
178.289
178.284
178.279
178.274
178.269
178.264
178.258
178.253
178.248
178.242
178.237
178.231
178.226
178.22
178.214
178.208
178.202
178.196
178.19
178.183
178.177
178.17
178.163
178.157
178.15
178.142
178.135
178.128
178.12
178.113
178.105
178.097
178.089
178.081
178.072
178.064
178.055
178.046
178.037
178.028
178.018
178.008
177.998
177.988
177.978
177.967
177.956
177.945
177.934
177.922
177.91
177.898
177.886
177.873
177.86
177.847
177.833
177.819
177.805
177.79
177.775
177.759
177.743
177.727
177.711
177.693
177.676
177.658
177.64
177.621
177.601
177.581
177.561
177.54
177.518
177.496
177.473
177.45
177.426
177.401
177.376
177.35
177.323
177.296
177.267
177.238
177.209
177.178
177.146
177.114
177.08
177.046
177.011
176.974
176.937
176.899
176.859
176.818
176.776
176.733
176.689
176.643
176.596
176.548
176.498
176.446
176.394
176.339
176.283
176.225
176.166
176.105
176.042
175.977
175.91
175.841
175.77
175.697
175.622
175.544
175.464
175.381
175.297
175.209
175.119
175.026
174.93
174.831
174.73
174.625
174.517
174.405
174.29
174.172
174.05
173.924
173.794
173.66
173.522
173.38
173.233
173.082
172.926
172.765
172.6
172.429
172.252
172.071
171.883
171.69
171.49
171.285
171.073
170.854
170.628
170.395
170.155
169.908
169.652
169.389
169.117
168.836
168.547
168.249
167.941
167.623
167.296
166.958
166.609
166.249
165.877
165.494
165.099
164.691
164.27
163.836
163.387
162.925
162.447
161.954
161.446
160.921
160.379
159.82
159.242
158.646
158.031
157.396
156.74
156.063
155.363
154.641
153.896
153.126
152.33
151.509
150.66
149.784
148.878
147.942
146.975
145.976
144.943
143.875
142.771
141.629
140.449
139.228
137.965
136.659
135.307
133.907
132.459
130.958
129.405
127.795
126.128
124.399
122.607
120.748
118.819
116.817
114.738
112.578
110.334
108
105.573
103.045
100.413
97.6692
94.8075
91.8204
88.6997
85.4364
82.0207
78.4412
74.6849
70.7368
66.5791
62.1906
57.5449
52.6097
47.3447
41.6988
35.6084
28.9925
21.7485
13.7451
4.91575
-82.5269
-271.7
-457.52
-623.874
-764.185
-876.276
-960.92
-1020.67
-1058.92
-1079.33
-1085.38
-1080.21
-1066.47
-1046.39
-1021.74
-993.924
-964.008
-932.816
-900.959
-868.892
-836.946
-805.358
-774.297
-743.881
-714.188
-685.269
-657.152
-629.852
-603.372
-577.706
-552.843
-528.768
-505.462
-482.907
-461.081
-439.962
-419.53
-399.761
-380.636
-362.133
-344.231
-326.911
-310.154
-293.941
-278.254
-263.077
-248.392
-234.183
-220.437
-207.137
-194.27
-181.822
-169.781
-158.134
-146.87
-135.977
-125.446
-115.264
-105.424
-95.9144
-86.7276
-77.8545
-69.2868
-61.0165
-53.0358
-45.337
-37.9126
-30.7551
-23.857
-17.2107
-10.8085
-4.64247
1.29534
7.01315
12.5193
17.8224
22.9308
27.853
32.5974
37.1722
41.5852
45.8441
49.956
53.9279
57.7661
61.4766
65.065
68.5365
71.8959
75.1479
78.2966
81.3459
84.2995
87.1607
89.9328
92.6188
95.2215
97.7434
100.187
102.554
104.848
107.069
109.22
111.303
113.319
115.269
117.155
118.979
120.741
122.443
124.087
125.673
127.204
128.681
130.106
131.48
132.806
134.086
135.32
136.513
137.665
138.778
139.855
140.897
141.906
142.883
143.831
144.75
145.641
146.506
147.347
148.163
148.956
149.726
150.475
151.202
151.909
152.596
153.264
153.912
154.542
155.153
155.746
156.321
156.879
157.42
157.944
158.452
158.943
159.419
159.879
160.325
160.757
161.175
161.579
161.971
162.351
162.719
163.075
163.421
163.757
164.082
164.398
164.705
165.003
165.292
165.573
165.846
166.111
166.369
166.619
166.862
167.098
167.327
167.55
167.766
167.975
168.178
168.375
168.566
168.751
168.931
169.106
169.276
169.44
169.601
169.757
169.908
170.057
170.201
170.342
170.479
170.614
170.745
170.873
170.998
171.12
171.239
171.355
171.468
171.578
171.685
171.788
171.889
171.986
172.08
172.171
172.26
172.345
172.427
172.507
172.583
172.657
172.729
172.798
172.865
172.93
172.993
173.054
173.113
173.171
173.228
173.282
173.336
173.389
173.44
173.49
173.539
173.587
173.635
173.681
173.726
173.771
173.814
173.857
173.898
173.939
173.979
174.018
174.057
174.094
174.131
174.166
174.201
174.235
174.269
174.301
174.333
174.364
174.395
174.424
174.453
174.481
174.509
174.536
174.562
174.587
174.612
174.636
174.659
174.682
174.704
174.726
174.746
174.766
174.786
174.805
174.823
174.841
174.858
174.875
174.891
174.907
174.922
174.937
174.951
174.965
174.978
174.991
175.004
175.016
175.028
175.039
175.05
175.06
175.07
175.08
175.09
175.099
175.107
175.115
175.123
175.131
175.138
175.145
175.152
175.158
175.164
175.17
175.175
175.181
175.186
175.191
175.195
175.199
175.204
175.207
175.211
175.215
175.218
175.221
175.224
175.227
175.229
175.232
175.234
175.236
175.238
175.24
175.242
175.243
175.245
175.246
175.248
175.249
175.25
175.251
175.252
175.252
175.253
175.253
175.254
175.254
175.255
175.255
175.255
175.255
175.255
175.255
175.255
175.255
175.254
175.254
175.254
175.253
175.253
175.252
175.252
175.251
175.25
175.25
175.249
175.248
175.247
175.246
175.245
175.244
175.243
175.242
175.241
175.24
175.239
175.238
175.237
175.236
175.235
175.233
175.232
175.231
175.23
175.228
175.227
175.226
175.224
175.223
175.221
175.22
175.219
175.217
175.216
175.214
175.213
175.211
175.21
175.208
175.207
175.205
175.203
175.202
175.2
175.199
175.197
175.196
175.194
175.192
175.191
175.189
175.187
175.186
175.184
175.183
175.181
175.179
175.178
175.176
175.174
175.172
175.171
175.169
175.167
175.166
175.164
175.162
175.161
175.159
175.157
175.155
175.154
175.152
175.15
175.148
175.147
175.145
175.143
175.141
175.14
175.138
175.136
175.134
175.133
175.131
175.129
175.127
175.126
175.124
175.122
175.12
175.118
175.117
175.115
175.113
175.111
175.11
175.108
175.106
175.104
175.102
175.101
175.099
175.097
175.095
175.093
175.092
175.09
175.088
175.086
175.084
175.083
175.081
175.079
175.077
175.075
175.073
175.072
175.07
175.068
175.066
175.064
175.063
175.061
175.059
175.057
175.055
175.053
175.051
175.05
175.048
175.046
175.044
175.042
175.04
175.039
175.037
175.035
175.033
175.031
175.029
175.027
175.026
175.024
175.022
175.02
175.018
175.016
175.014
175.012
175.011
175.009
175.007
175.005
175.003
175.001
174.999
174.997
174.995
174.993
174.992
174.99
174.988
174.986
174.984
174.982
174.98
174.978
174.976
174.974
174.972
174.97
174.968
174.967
174.965
174.963
174.961
174.959
174.957
174.955
174.953
174.951
174.949
174.947
174.945
174.943
174.941
174.939
174.937
174.935
174.933
174.931
174.929
174.927
174.925
174.923
174.921
174.919
174.917
174.915
174.913
174.911
174.909
174.907
174.905
174.903
174.901
174.899
174.897
174.895
174.893
174.891
174.889
174.886
174.884
174.882
174.88
174.878
174.876
174.874
174.872
174.87
174.868
174.866
174.863
174.861
174.859
174.857
174.855
174.853
174.851
174.849
174.846
174.844
174.842
174.84
174.838
174.836
174.834
174.831
174.829
174.827
174.825
174.823
174.82
174.818
174.816
174.814
174.812
174.809
174.807
174.805
174.803
174.8
174.798
174.796
174.794
174.791
174.789
174.787
174.785
174.782
174.78
174.778
174.775
174.773
174.771
174.769
174.766
174.764
174.762
174.759
174.757
174.755
174.752
174.75
174.747
174.745
174.743
174.74
174.738
174.736
174.733
174.731
174.728
174.726
174.723
174.721
174.719
174.716
174.714
174.711
174.709
174.706
174.704
174.701
174.699
174.696
174.694
174.691
174.689
174.686
174.684
174.681
174.678