/*--------------------------------*- C++ -*----------------------------------*\
| =========                 |                                                 |
| \\      /  F ield         | OpenFOAM: The Open Source CFD Toolbox           |
|  \\    /   O peration     | Version:  2512                                  |
|   \\  /    A nd           | Website:  www.openfoam.com                      |
|    \\/     M anipulation  |                                                 |
\*---------------------------------------------------------------------------*/
FoamFile
{
    version     2.0;
    format      ascii;
    arch        "LSB;label=32;scalar=64";
    class       surfaceScalarField;
    location    "0.006";
    object      phi;
}
// * * * * * * * * * * * * * * * * * * * * * * * * * * * * * * * * * * * * * //

dimensions      [1 0 -1 0 0 0 0];

oriented        oriented;

internalField   nonuniform List<scalar> 
198900
(
0.00148104
0.000459172
0.00107467
0.00040663
0.000816008
0.000258874
0.000652275
0.000163959
0.000546445
0.00010607
0.000476176
7.05206e-05
0.000427931
4.85049e-05
0.000393615
3.45819e-05
0.000368397
2.54883e-05
0.000349324
1.93452e-05
0.000334532
1.50663e-05
0.000322799
1.20057e-05
0.000313305
9.76585e-06
0.000305483
8.09316e-06
0.00029893
6.82071e-06
0.000293361
5.83554e-06
0.000288565
5.0596e-06
0.000284389
4.4382e-06
0.000280716
3.93252e-06
0.000277459
3.51481e-06
0.00027455
3.16498e-06
0.000271937
2.86839e-06
0.000269576
2.61421e-06
0.000267434
2.39432e-06
0.000265482
2.20257e-06
0.000263698
2.03419e-06
0.000262061
1.88543e-06
0.000260556
1.75332e-06
0.000259168
1.63545e-06
0.000257885
1.52985e-06
0.000256696
1.43491e-06
0.000255593
1.34926e-06
0.000254566
1.27178e-06
0.000253609
1.20149e-06
0.000252716
1.13759e-06
0.00025188
1.07937e-06
0.000251097
1.02622e-06
0.000250362
9.7762e-07
0.000249672
9.33119e-07
0.000249022
8.92316e-07
0.000248409
8.54863e-07
0.000247831
8.20465e-07
0.000247284
7.88815e-07
0.000246766
7.59654e-07
0.000246274
7.32776e-07
0.000245807
7.07987e-07
0.000245363
6.8511e-07
0.00024494
6.63983e-07
0.000244536
6.44462e-07
0.00024415
6.26413e-07
0.000243781
6.09716e-07
0.000243427
5.94263e-07
0.000243087
5.79954e-07
0.00024276
5.66698e-07
0.000242446
5.54414e-07
0.000242143
5.43026e-07
0.00024185
5.32465e-07
0.000241567
5.22668e-07
0.000241294
5.13578e-07
0.000241028
5.05142e-07
0.00024077
4.97312e-07
0.00024052
4.90044e-07
0.000240276
4.83301e-07
0.000240038
4.77048e-07
0.000239806
4.71253e-07
0.00023958
4.65892e-07
0.000239358
4.60942e-07
0.000239141
4.56383e-07
0.000238928
4.52197e-07
0.000238719
4.4837e-07
0.000238513
4.44885e-07
0.00023831
4.41726e-07
0.00023811
4.38875e-07
0.000237913
4.36312e-07
0.000237718
4.34015e-07
0.000237525
4.31958e-07
0.000237334
4.30117e-07
0.000237144
4.28465e-07
0.000236956
4.26976e-07
0.00023677
4.25626e-07
0.000236584
4.24394e-07
0.0002364
4.23261e-07
0.000236216
4.22212e-07
0.000236034
4.21235e-07
0.000235852
4.20322e-07
0.000235672
4.19466e-07
0.000235492
4.18661e-07
0.000235313
4.17905e-07
0.000235134
4.17193e-07
0.000234957
4.16524e-07
0.00023478
4.15896e-07
0.000234603
4.15304e-07
0.000234427
4.14748e-07
0.000234252
4.14224e-07
0.000234077
4.1373e-07
0.000233902
4.13264e-07
0.000233728
4.12822e-07
0.000233554
4.12402e-07
0.000233381
4.12002e-07
0.000233208
4.1162e-07
0.000233036
4.11253e-07
0.000232863
4.10901e-07
0.000232692
4.10561e-07
0.00023252
4.10233e-07
0.000232349
4.09918e-07
0.000232178
4.09617e-07
0.000232007
4.09331e-07
0.000231837
4.09064e-07
0.000231667
4.08819e-07
0.000231497
4.08601e-07
0.000231327
4.08414e-07
0.000231157
4.08261e-07
0.000230988
4.08147e-07
0.000230818
4.08072e-07
0.000230649
4.08036e-07
0.00023048
4.08038e-07
0.00023031
4.08075e-07
0.000230141
4.0814e-07
0.000229971
4.08229e-07
0.000229801
4.08335e-07
0.000229631
4.08451e-07
0.000229461
4.08573e-07
0.000229291
4.08695e-07
0.000229121
4.08814e-07
0.000228951
4.08926e-07
0.00022878
4.0903e-07
0.000228609
4.09125e-07
0.000228439
4.0921e-07
0.000228268
4.09286e-07
0.000228097
4.09352e-07
0.000227926
4.0941e-07
0.000227755
4.09459e-07
0.000227584
4.09499e-07
0.000227413
4.09532e-07
0.000227242
4.09557e-07
0.000227071
4.09575e-07
0.0002269
4.09586e-07
0.000226728
4.0959e-07
0.000226557
4.0959e-07
0.000226386
4.09585e-07
0.000226215
4.09577e-07
0.000226044
4.09567e-07
0.000225873
4.09557e-07
0.000225701
4.09549e-07
0.00022553
4.09545e-07
0.000225359
4.09545e-07
0.000225188
4.09553e-07
0.000225016
4.09568e-07
0.000224845
4.09592e-07
0.000224674
4.09625e-07
0.000224502
4.09667e-07
0.000224331
4.09717e-07
0.000224159
4.09775e-07
0.000223988
4.09838e-07
0.000223816
4.09907e-07
0.000223644
4.09979e-07
0.000223472
4.10054e-07
0.0002233
4.1013e-07
0.000223128
4.10207e-07
0.000222956
4.10284e-07
0.000222784
4.1036e-07
0.000222611
4.10434e-07
0.000222439
4.10507e-07
0.000222266
4.10579e-07
0.000222094
4.10648e-07
0.000221921
4.10715e-07
0.000221748
4.1078e-07
0.000221576
4.10843e-07
0.000221403
4.10904e-07
0.00022123
4.10963e-07
0.000221057
4.1102e-07
0.000220883
4.11076e-07
0.00022071
4.11132e-07
0.000220537
4.11187e-07
0.000220363
4.11243e-07
0.00022019
4.113e-07
0.000220016
4.11359e-07
0.000219843
4.1142e-07
0.000219669
4.11485e-07
0.000219495
4.11553e-07
0.000219321
4.11625e-07
0.000219147
4.117e-07
0.000218973
4.11779e-07
0.000218799
4.11859e-07
0.000218625
4.11941e-07
0.000218451
4.12024e-07
0.000218276
4.12105e-07
0.000218102
4.12183e-07
0.000217927
4.12259e-07
0.000217752
4.1233e-07
0.000217577
4.12396e-07
0.000217402
4.12458e-07
0.000217227
4.12515e-07
0.000217052
4.12568e-07
0.000216877
4.12618e-07
0.000216702
4.12664e-07
0.000216526
4.1271e-07
0.000216351
4.12754e-07
0.000216176
4.12799e-07
0.000216
4.12845e-07
0.000215824
4.12892e-07
0.000215649
4.12942e-07
0.000215473
4.12994e-07
0.000215297
4.13049e-07
0.000215121
4.13107e-07
0.000214945
4.13168e-07
0.000214769
4.13233e-07
0.000214593
4.13301e-07
0.000214417
4.13372e-07
0.000214241
4.13447e-07
0.000214064
4.13525e-07
0.000213887
4.13607e-07
0.000213711
4.13691e-07
0.000213534
4.13778e-07
0.000213357
4.13866e-07
0.00021318
4.13957e-07
0.000213003
4.14047e-07
0.000212826
4.14138e-07
0.000212648
4.14229e-07
0.000212471
4.14319e-07
0.000212293
4.14407e-07
0.000212115
4.14494e-07
0.000211937
4.1458e-07
0.00021176
4.14663e-07
0.000211581
4.14745e-07
0.000211403
4.14825e-07
0.000211225
4.14903e-07
0.000211047
4.1498e-07
0.000210868
4.15055e-07
0.000210689
4.15129e-07
0.000210511
4.15201e-07
0.000210332
4.15273e-07
0.000210153
4.15345e-07
0.000209974
4.15416e-07
0.000209795
4.15487e-07
0.000209616
4.15558e-07
0.000209436
4.1563e-07
0.000209257
4.15702e-07
0.000209077
4.15775e-07
0.000208898
4.15849e-07
0.000208718
4.15923e-07
0.000208538
4.15999e-07
0.000208358
4.16075e-07
0.000208178
4.16151e-07
0.000207998
4.16227e-07
0.000207818
4.16304e-07
0.000207637
4.1638e-07
0.000207457
4.16456e-07
0.000207276
4.16532e-07
0.000207096
4.16609e-07
0.000206915
4.16685e-07
0.000206734
4.16761e-07
0.000206553
4.16838e-07
0.000206372
4.16915e-07
0.00020619
4.16993e-07
0.000206009
4.17071e-07
0.000205828
4.1715e-07
0.000205646
4.1723e-07
0.000205464
4.1731e-07
0.000205282
4.17391e-07
0.0002051
4.17472e-07
0.000204918
4.17554e-07
0.000204736
4.17637e-07
0.000204554
4.1772e-07
0.000204371
4.17803e-07
0.000204189
4.17887e-07
0.000204006
4.17972e-07
0.000203824
4.18057e-07
0.000203641
4.18142e-07
0.000203458
4.18228e-07
0.000203274
4.18314e-07
0.000203091
4.184e-07
0.000202908
4.18486e-07
0.000202724
4.18572e-07
0.000202541
4.18658e-07
0.000202357
4.18744e-07
0.000202173
4.18829e-07
0.000201989
4.18915e-07
0.000201805
4.19001e-07
0.000201621
4.19087e-07
0.000201436
4.19173e-07
0.000201252
4.1926e-07
0.000201067
4.19346e-07
0.000200882
4.19434e-07
0.000200697
4.19521e-07
0.000200512
4.1961e-07
0.000200327
4.19698e-07
0.000200142
4.19787e-07
0.000199957
4.19877e-07
0.000199771
4.19967e-07
0.000199585
4.20057e-07
0.0001994
4.20147e-07
0.000199214
4.20238e-07
0.000199028
4.20329e-07
0.000198842
4.20421e-07
0.000198655
4.20512e-07
0.000198469
4.20604e-07
0.000198282
4.20696e-07
0.000198095
4.20788e-07
0.000197909
4.2088e-07
0.000197722
4.20973e-07
0.000197535
4.21066e-07
0.000197347
4.21159e-07
0.00019716
4.21252e-07
0.000196972
4.21345e-07
0.000196785
4.21439e-07
0.000196597
4.21532e-07
0.000196409
4.21626e-07
0.000196221
4.2172e-07
0.000196033
4.21814e-07
0.000195845
4.21908e-07
0.000195656
4.22003e-07
0.000195467
4.22097e-07
0.000195279
4.22192e-07
0.00019509
4.22287e-07
0.000194901
4.22382e-07
0.000194712
4.22477e-07
0.000194522
4.22572e-07
0.000194333
4.22667e-07
0.000194143
4.22763e-07
0.000193954
4.22859e-07
0.000193764
4.22955e-07
0.000193574
4.23051e-07
0.000193384
4.23147e-07
0.000193193
4.23243e-07
0.000193003
4.2334e-07
0.000192813
4.23436e-07
0.000192622
4.23533e-07
0.000192431
4.2363e-07
0.00019224
4.23726e-07
0.000192049
4.23824e-07
0.000191858
4.23921e-07
0.000191666
4.24018e-07
0.000191475
4.24115e-07
0.000191283
4.24213e-07
0.000191091
4.24311e-07
0.000190899
4.24409e-07
0.000190707
4.24506e-07
0.000190515
4.24605e-07
0.000190322
4.24703e-07
0.00019013
4.24801e-07
0.000189937
4.249e-07
0.000189744
4.24998e-07
0.000189551
4.25097e-07
0.000189358
4.25196e-07
0.000189165
4.25295e-07
0.000188972
4.25394e-07
0.000188778
4.25493e-07
0.000188584
4.25592e-07
0.000188391
4.25691e-07
0.000188196
4.25791e-07
0.000188002
4.25891e-07
0.000187808
4.2599e-07
0.000187614
4.2609e-07
0.000187419
4.2619e-07
0.000187224
4.2629e-07
0.000187029
4.2639e-07
0.000186834
4.26491e-07
0.000186639
4.26591e-07
0.000186444
4.26691e-07
0.000186248
4.26792e-07
0.000186053
4.26893e-07
0.000185857
4.26994e-07
0.000185661
4.27095e-07
0.000185465
4.27196e-07
0.000185269
4.27297e-07
0.000185072
4.27398e-07
0.000184876
4.27499e-07
0.000184679
4.27601e-07
0.000184482
4.27702e-07
0.000184285
4.27804e-07
0.000184088
4.27905e-07
0.000183891
4.28007e-07
0.000183694
4.28109e-07
0.000183496
4.28211e-07
0.000183298
4.28313e-07
0.0001831
4.28415e-07
0.000182902
4.28518e-07
0.000182704
4.2862e-07
0.000182506
4.28723e-07
0.000182307
4.28825e-07
0.000182109
4.28928e-07
0.00018191
4.2903e-07
0.000181711
4.29133e-07
0.000181512
4.29236e-07
0.000181312
4.29339e-07
0.000181113
4.29442e-07
0.000180913
4.29545e-07
0.000180714
4.29649e-07
0.000180514
4.29752e-07
0.000180314
4.29855e-07
0.000180114
4.29959e-07
0.000179913
4.30062e-07
0.000179713
4.30166e-07
0.000179512
4.3027e-07
0.000179311
4.30374e-07
0.00017911
4.30477e-07
0.000178909
4.30581e-07
0.000178708
4.30685e-07
0.000178507
4.3079e-07
0.000178305
4.30894e-07
0.000178103
4.30998e-07
0.000177901
4.31102e-07
0.000177699
4.31207e-07
0.000177497
4.31311e-07
0.000177295
4.31416e-07
0.000177092
4.3152e-07
0.00017689
4.31625e-07
0.000176687
4.3173e-07
0.000176484
4.31834e-07
0.000176281
4.31939e-07
0.000176077
4.32044e-07
0.000175874
4.32149e-07
0.00017567
4.32254e-07
0.000175467
4.32359e-07
0.000175263
4.32464e-07
0.000175059
4.3257e-07
0.000174854
4.32675e-07
0.00017465
4.3278e-07
0.000174445
4.32886e-07
0.000174241
4.32991e-07
0.000174036
4.33097e-07
0.000173831
4.33202e-07
0.000173625
4.33308e-07
0.00017342
4.33413e-07
0.000173215
4.33519e-07
0.000173009
4.33625e-07
0.000172803
4.33731e-07
0.000172597
4.33837e-07
0.000172391
4.33943e-07
0.000172185
4.34049e-07
0.000171978
4.34154e-07
0.000171772
4.34261e-07
0.000171565
4.34367e-07
0.000171358
4.34473e-07
0.000171151
4.34579e-07
0.000170943
4.34685e-07
0.000170736
4.34791e-07
0.000170528
4.34898e-07
0.000170321
4.35004e-07
0.000170113
4.3511e-07
0.000169905
4.35217e-07
0.000169696
4.35323e-07
0.000169488
4.3543e-07
0.00016928
4.35536e-07
0.000169071
4.35643e-07
0.000168862
4.35749e-07
0.000168653
4.35856e-07
0.000168444
4.35962e-07
0.000168234
4.36069e-07
0.000168025
4.36176e-07
0.000167815
4.36282e-07
0.000167605
4.36389e-07
0.000167395
4.36496e-07
0.000167185
4.36603e-07
0.000166975
4.36709e-07
0.000166764
4.36816e-07
0.000166554
4.36923e-07
0.000166343
4.3703e-07
0.000166132
4.37137e-07
0.000165921
4.37244e-07
0.00016571
4.37351e-07
0.000165498
4.37458e-07
0.000165287
4.37565e-07
0.000165075
4.37672e-07
0.000164863
4.37779e-07
0.000164651
4.37886e-07
0.000164439
4.37993e-07
0.000164226
4.381e-07
0.000164014
4.38207e-07
0.000163801
4.38314e-07
0.000163588
4.38421e-07
0.000163375
4.38528e-07
0.000163162
4.38635e-07
0.000162948
4.38742e-07
0.000162735
4.38849e-07
0.000162521
4.38956e-07
0.000162307
4.39063e-07
0.000162093
4.3917e-07
0.000161879
4.39277e-07
0.000161665
4.39384e-07
0.00016145
4.39491e-07
0.000161235
4.39598e-07
0.000161021
4.39705e-07
0.000160806
4.39812e-07
0.00016059
4.39919e-07
0.000160375
4.40026e-07
0.00016016
4.40133e-07
0.000159944
4.4024e-07
0.000159728
4.40347e-07
0.000159512
4.40454e-07
0.000159296
4.40561e-07
0.00015908
4.40668e-07
0.000158863
4.40775e-07
0.000158647
4.40882e-07
0.00015843
4.40989e-07
0.000158213
4.41096e-07
0.000157996
4.41203e-07
0.000157779
4.4131e-07
0.000157561
4.41417e-07
0.000157343
4.41523e-07
0.000157126
4.4163e-07
0.000156908
4.41737e-07
0.00015669
4.41844e-07
0.000156472
4.4195e-07
0.000156253
4.42057e-07
0.000156035
4.42164e-07
0.000155816
4.42271e-07
0.000155597
4.42377e-07
0.000155378
4.42484e-07
0.000155159
4.4259e-07
0.000154939
4.42697e-07
0.00015472
4.42803e-07
0.0001545
4.4291e-07
0.00015428
4.43016e-07
0.00015406
4.43123e-07
0.00015384
4.43229e-07
0.00015362
4.43335e-07
0.000153399
4.43442e-07
0.000153179
4.43548e-07
0.000152958
4.43654e-07
0.000152737
4.4376e-07
0.000152516
4.43866e-07
0.000152294
4.43972e-07
0.000152073
4.44078e-07
0.000151851
4.44184e-07
0.00015163
4.4429e-07
0.000151408
4.44396e-07
0.000151185
4.44502e-07
0.000150963
4.44608e-07
0.000150741
4.44714e-07
0.000150518
4.44819e-07
0.000150295
4.44925e-07
0.000150073
4.45031e-07
0.00014985
4.45136e-07
0.000149626
4.45242e-07
0.000149403
4.45347e-07
0.000149179
4.45452e-07
0.000148956
4.45558e-07
0.000148732
4.45663e-07
0.000148508
4.45768e-07
0.000148284
4.45873e-07
0.000148059
4.45978e-07
0.000147835
4.46083e-07
0.00014761
4.46188e-07
0.000147385
4.46293e-07
0.00014716
4.46398e-07
0.000146935
4.46503e-07
0.00014671
4.46607e-07
0.000146484
4.46712e-07
0.000146259
4.46816e-07
0.000146033
4.46921e-07
0.000145807
4.47025e-07
0.000145581
4.4713e-07
0.000145355
4.47234e-07
0.000145128
4.47338e-07
0.000144902
4.47442e-07
0.000144675
4.47546e-07
0.000144448
4.4765e-07
0.000144221
4.47754e-07
0.000143994
4.47858e-07
0.000143767
4.47961e-07
0.000143539
4.48065e-07
0.000143312
4.48169e-07
0.000143084
4.48272e-07
0.000142856
4.48375e-07
0.000142628
4.48479e-07
0.000142399
4.48582e-07
0.000142171
4.48685e-07
0.000141942
4.48788e-07
0.000141714
4.48891e-07
0.000141485
4.48994e-07
0.000141256
4.49097e-07
0.000141027
4.49199e-07
0.000140797
4.49302e-07
0.000140568
4.49404e-07
0.000140338
4.49507e-07
0.000140108
4.49609e-07
0.000139878
4.49711e-07
0.000139648
4.49813e-07
0.000139418
4.49915e-07
0.000139187
4.50017e-07
0.000138957
4.50119e-07
0.000138726
4.50221e-07
0.000138495
4.50322e-07
0.000138264
4.50424e-07
0.000138033
4.50525e-07
0.000137801
4.50626e-07
0.00013757
4.50728e-07
0.000137338
4.50829e-07
0.000137106
4.5093e-07
0.000136874
4.5103e-07
0.000136642
4.51131e-07
0.00013641
4.51232e-07
0.000136178
4.51332e-07
0.000135945
4.51433e-07
0.000135712
4.51533e-07
0.000135479
4.51633e-07
0.000135246
4.51733e-07
0.000135013
4.51833e-07
0.00013478
4.51933e-07
0.000134546
4.52033e-07
0.000134313
4.52132e-07
0.000134079
4.52232e-07
0.000133845
4.52331e-07
0.000133611
4.5243e-07
0.000133377
4.52529e-07
0.000133142
4.52628e-07
0.000132908
4.52727e-07
0.000132673
4.52826e-07
0.000132438
4.52925e-07
0.000132203
4.53023e-07
0.000131968
4.53121e-07
0.000131733
4.5322e-07
0.000131497
4.53318e-07
0.000131262
4.53416e-07
0.000131026
4.53514e-07
0.00013079
4.53611e-07
0.000130554
4.53709e-07
0.000130318
4.53806e-07
0.000130082
4.53903e-07
0.000129845
4.54001e-07
0.000129608
4.54098e-07
0.000129372
4.54194e-07
0.000129135
4.54291e-07
0.000128898
4.54388e-07
0.000128661
4.54484e-07
0.000128423
4.54581e-07
0.000128186
4.54677e-07
0.000127948
4.54773e-07
0.00012771
4.54869e-07
0.000127473
4.54964e-07
0.000127234
4.5506e-07
0.000126996
4.55155e-07
0.000126758
4.55251e-07
0.000126519
4.55346e-07
0.000126281
4.55441e-07
0.000126042
4.55536e-07
0.000125803
4.5563e-07
0.000125564
4.55725e-07
0.000125325
4.55819e-07
0.000125086
4.55913e-07
0.000124846
4.56008e-07
0.000124606
4.56101e-07
0.000124367
4.56195e-07
0.000124127
4.56289e-07
0.000123887
4.56382e-07
0.000123647
4.56476e-07
0.000123406
4.56569e-07
0.000123166
4.56662e-07
0.000122925
4.56754e-07
0.000122684
4.56847e-07
0.000122444
4.56939e-07
0.000122203
4.57032e-07
0.000121961
4.57124e-07
0.00012172
4.57216e-07
0.000121479
4.57308e-07
0.000121237
4.57399e-07
0.000120995
4.57491e-07
0.000120754
4.57582e-07
0.000120512
4.57673e-07
0.00012027
4.57764e-07
0.000120027
4.57855e-07
0.000119785
4.57945e-07
0.000119542
4.58036e-07
0.0001193
4.58126e-07
0.000119057
4.58216e-07
0.000118814
4.58306e-07
0.000118571
4.58396e-07
0.000118328
4.58485e-07
0.000118085
4.58575e-07
0.000117841
4.58664e-07
0.000117598
4.58753e-07
0.000117354
4.58842e-07
0.00011711
4.5893e-07
0.000116866
4.59019e-07
0.000116622
4.59107e-07
0.000116378
4.59195e-07
0.000116133
4.59283e-07
0.000115889
4.59371e-07
0.000115644
4.59458e-07
0.000115399
4.59546e-07
0.000115154
4.59633e-07
0.000114909
4.5972e-07
0.000114664
4.59806e-07
0.000114419
4.59893e-07
0.000114174
4.59979e-07
0.000113928
4.60065e-07
0.000113682
4.60151e-07
0.000113437
4.60237e-07
0.000113191
4.60323e-07
0.000112945
4.60408e-07
0.000112698
4.60493e-07
0.000112452
4.60578e-07
0.000112206
4.60663e-07
0.000111959
4.60748e-07
0.000111713
4.60832e-07
0.000111466
4.60916e-07
0.000111219
4.61e-07
0.000110972
4.61084e-07
0.000110725
4.61168e-07
0.000110477
4.61251e-07
0.00011023
4.61334e-07
0.000109982
4.61417e-07
0.000109735
4.615e-07
0.000109487
4.61582e-07
0.000109239
4.61665e-07
0.000108991
4.61747e-07
0.000108743
4.61829e-07
0.000108495
4.6191e-07
0.000108246
4.61992e-07
0.000107998
4.62073e-07
0.000107749
4.62154e-07
0.0001075
4.62235e-07
0.000107251
4.62315e-07
0.000107002
4.62396e-07
0.000106753
4.62476e-07
0.000106504
4.62556e-07
0.000106255
4.62636e-07
0.000106005
4.62715e-07
0.000105756
4.62795e-07
0.000105506
4.62874e-07
0.000105256
4.62952e-07
0.000105006
4.63031e-07
0.000104756
4.6311e-07
0.000104506
4.63188e-07
0.000104256
4.63266e-07
0.000104005
4.63344e-07
0.000103755
4.63421e-07
0.000103504
4.63498e-07
0.000103254
4.63575e-07
0.000103003
4.63652e-07
0.000102752
4.63729e-07
0.000102501
4.63805e-07
0.00010225
4.63881e-07
0.000101998
4.63957e-07
0.000101747
4.64033e-07
0.000101495
4.64108e-07
0.000101244
4.64183e-07
0.000100992
4.64258e-07
0.00010074
4.64333e-07
0.000100488
4.64408e-07
0.000100236
4.64482e-07
9.99842e-05
4.64556e-07
9.9732e-05
4.6463e-07
9.94796e-05
4.64703e-07
9.92271e-05
4.64776e-07
9.89746e-05
4.64849e-07
9.87219e-05
4.64922e-07
9.84691e-05
4.64995e-07
9.82162e-05
4.65067e-07
9.79632e-05
4.65139e-07
9.77101e-05
4.65211e-07
9.74569e-05
4.65283e-07
9.72036e-05
4.65354e-07
9.69502e-05
4.65425e-07
9.66967e-05
4.65496e-07
9.6443e-05
4.65567e-07
9.61893e-05
4.65637e-07
9.59355e-05
4.65707e-07
9.56816e-05
4.65777e-07
9.54276e-05
4.65847e-07
9.51734e-05
4.65916e-07
9.49192e-05
4.65985e-07
9.46649e-05
4.66054e-07
9.44105e-05
4.66123e-07
9.4156e-05
4.66191e-07
9.39014e-05
4.66259e-07
9.36466e-05
4.66327e-07
9.33918e-05
4.66394e-07
9.31369e-05
4.66462e-07
9.28819e-05
4.66529e-07
9.26268e-05
4.66595e-07
9.23716e-05
4.66662e-07
9.21164e-05
4.66728e-07
9.1861e-05
4.66794e-07
9.16055e-05
4.6686e-07
9.13499e-05
4.66926e-07
9.10943e-05
4.66991e-07
9.08385e-05
4.67056e-07
9.05827e-05
4.6712e-07
9.03267e-05
4.67185e-07
9.00707e-05
4.67249e-07
8.98146e-05
4.67313e-07
8.95583e-05
4.67377e-07
8.9302e-05
4.6744e-07
8.90457e-05
4.67503e-07
8.87892e-05
4.67566e-07
8.85326e-05
4.67629e-07
8.82759e-05
4.67691e-07
8.80192e-05
4.67753e-07
8.77624e-05
4.67815e-07
8.75054e-05
4.67876e-07
8.72484e-05
4.67937e-07
8.69913e-05
4.67998e-07
8.67342e-05
4.68059e-07
8.64769e-05
4.68119e-07
8.62195e-05
4.6818e-07
8.59621e-05
4.68239e-07
8.57046e-05
4.68299e-07
8.5447e-05
4.68358e-07
8.51893e-05
4.68417e-07
8.49315e-05
4.68476e-07
8.46737e-05
4.68534e-07
8.44158e-05
4.68593e-07
8.41577e-05
4.68651e-07
8.38996e-05
4.68708e-07
8.36415e-05
4.68765e-07
8.33832e-05
4.68823e-07
8.31249e-05
4.68879e-07
8.28665e-05
4.68936e-07
8.2608e-05
4.68992e-07
8.23494e-05
4.69048e-07
8.20908e-05
4.69104e-07
8.18321e-05
4.69159e-07
8.15733e-05
4.69214e-07
8.13144e-05
4.69269e-07
8.10555e-05
4.69323e-07
8.07964e-05
4.69378e-07
8.05373e-05
4.69431e-07
8.02782e-05
4.69485e-07
8.00189e-05
4.69538e-07
7.97596e-05
4.69592e-07
7.95002e-05
4.69644e-07
7.92408e-05
4.69697e-07
7.89812e-05
4.69749e-07
7.87216e-05
4.69801e-07
7.84619e-05
4.69852e-07
7.82022e-05
4.69904e-07
7.79424e-05
4.69955e-07
7.76825e-05
4.70006e-07
7.74225e-05
4.70056e-07
7.71625e-05
4.70106e-07
7.69024e-05
4.70156e-07
7.66423e-05
4.70206e-07
7.63821e-05
4.70255e-07
7.61218e-05
4.70304e-07
7.58614e-05
4.70353e-07
7.5601e-05
4.70401e-07
7.53405e-05
4.70449e-07
7.508e-05
4.70497e-07
7.48193e-05
4.70544e-07
7.45587e-05
4.70592e-07
7.42979e-05
4.70638e-07
7.40371e-05
4.70685e-07
7.37763e-05
4.70731e-07
7.35153e-05
4.70777e-07
7.32543e-05
4.70823e-07
7.29933e-05
4.70869e-07
7.27322e-05
4.70914e-07
7.2471e-05
4.70959e-07
7.22098e-05
4.71003e-07
7.19485e-05
4.71047e-07
7.16872e-05
4.71091e-07
7.14258e-05
4.71135e-07
7.11643e-05
4.71179e-07
7.09028e-05
4.71222e-07
7.06412e-05
4.71264e-07
7.03796e-05
4.71307e-07
7.01179e-05
4.71349e-07
6.98562e-05
4.71391e-07
6.95944e-05
4.71433e-07
6.93326e-05
4.71474e-07
6.90707e-05
4.71515e-07
6.88087e-05
4.71556e-07
6.85467e-05
4.71596e-07
6.82847e-05
4.71636e-07
6.80226e-05
4.71676e-07
6.77604e-05
4.71716e-07
6.74982e-05
4.71755e-07
6.7236e-05
4.71794e-07
6.69737e-05
4.71833e-07
6.67113e-05
4.71871e-07
6.64489e-05
4.71909e-07
6.61865e-05
4.71947e-07
6.5924e-05
4.71985e-07
6.56615e-05
4.72022e-07
6.53989e-05
4.72059e-07
6.51363e-05
4.72096e-07
6.48736e-05
4.72133e-07
6.46109e-05
4.72169e-07
6.43481e-05
4.72205e-07
6.40853e-05
4.72241e-07
6.38224e-05
4.72277e-07
6.35595e-05
4.72312e-07
6.32966e-05
4.72347e-07
6.30336e-05
4.72382e-07
6.27706e-05
4.72416e-07
6.25075e-05
4.72451e-07
6.22444e-05
4.72485e-07
6.19813e-05
4.72519e-07
6.17181e-05
4.72552e-07
6.14549e-05
4.72586e-07
6.11916e-05
4.72619e-07
6.09283e-05
4.72652e-07
6.0665e-05
4.72685e-07
6.04016e-05
4.72718e-07
6.01382e-05
4.7275e-07
5.98747e-05
4.72783e-07
5.96112e-05
4.72815e-07
5.93477e-05
4.72847e-07
5.90841e-05
4.72879e-07
5.88205e-05
4.72911e-07
5.85569e-05
4.72943e-07
5.82932e-05
4.72974e-07
5.80295e-05
4.73006e-07
5.77658e-05
4.73037e-07
5.7502e-05
4.73069e-07
5.72382e-05
4.731e-07
5.69744e-05
4.73132e-07
5.67105e-05
4.73163e-07
5.64466e-05
4.73194e-07
5.61827e-05
4.73226e-07
5.59187e-05
4.73257e-07
5.56547e-05
4.73289e-07
5.53906e-05
4.7332e-07
5.51266e-05
4.73352e-07
5.48625e-05
4.73384e-07
5.45983e-05
4.73415e-07
5.43341e-05
4.73448e-07
5.40699e-05
4.7348e-07
5.38057e-05
4.73512e-07
5.35414e-05
4.73545e-07
5.32771e-05
4.73578e-07
5.30128e-05
4.73611e-07
5.27484e-05
4.73645e-07
5.2484e-05
4.73679e-07
5.22196e-05
4.73714e-07
5.19551e-05
4.73748e-07
5.16906e-05
4.73784e-07
5.14261e-05
4.73819e-07
5.11615e-05
4.73856e-07
5.08969e-05
4.73893e-07
5.06323e-05
4.7393e-07
5.03676e-05
4.73968e-07
5.01029e-05
4.74007e-07
4.98382e-05
4.74046e-07
4.95734e-05
4.74086e-07
4.93086e-05
4.74127e-07
4.90437e-05
4.74169e-07
4.87788e-05
4.74211e-07
4.85139e-05
4.74255e-07
4.82489e-05
4.74299e-07
4.79839e-05
4.74344e-07
4.77189e-05
4.7439e-07
4.74538e-05
4.74436e-07
4.71886e-05
4.74484e-07
4.69235e-05
4.74532e-07
4.66582e-05
4.74581e-07
4.6393e-05
4.74631e-07
4.61277e-05
4.74682e-07
4.58623e-05
4.74733e-07
4.55969e-05
4.74785e-07
4.53315e-05
4.74838e-07
4.5066e-05
4.7489e-07
4.48005e-05
4.74943e-07
4.45349e-05
4.74996e-07
4.42693e-05
4.7505e-07
4.40036e-05
4.75102e-07
4.37379e-05
4.75154e-07
4.34721e-05
4.75206e-07
4.32063e-05
4.75255e-07
4.29405e-05
4.75303e-07
4.26747e-05
4.75349e-07
4.24088e-05
4.75391e-07
4.21428e-05
4.7543e-07
4.18769e-05
4.75463e-07
4.1611e-05
4.7549e-07
4.1345e-05
4.75508e-07
4.1079e-05
4.75517e-07
4.08131e-05
4.75514e-07
4.05472e-05
4.75497e-07
4.02813e-05
4.75462e-07
4.00156e-05
4.75407e-07
3.97499e-05
4.75326e-07
3.94843e-05
4.75215e-07
3.92189e-05
4.75069e-07
3.89538e-05
4.74879e-07
3.86888e-05
4.74639e-07
3.84242e-05
4.74338e-07
3.81601e-05
4.73963e-07
3.78963e-05
4.73499e-07
3.76332e-05
4.72924e-07
3.73709e-05
4.72207e-07
3.71095e-05
4.71303e-07
3.68492e-05
4.70142e-07
3.65906e-05
4.68617e-07
3.6334e-05
4.66567e-07
3.60803e-05
4.63743e-07
3.58306e-05
4.5978e-07
3.55866e-05
4.54147e-07
3.53507e-05
4.46096e-07
3.51263e-05
4.34596e-07
3.49183e-05
4.18278e-07
3.47332e-05
3.95373e-07
3.45796e-05
3.63751e-07
3.44685e-05
3.21267e-07
3.44122e-05
2.66362e-07
3.44259e-05
1.96354e-07
1.14058e-07
0.00196653
0.00043307
0.00179628
0.000577214
0.00157554
0.000479936
0.00137997
0.000359859
0.00122328
0.000263104
0.001102
0.000192152
0.00100904
0.00014183
0.000937619
0.000106378
0.000882268
8.12151e-05
0.000838872
6.31206e-05
0.000804397
4.99202e-05
0.00077663
4.01527e-05
0.000753949
3.28258e-05
0.000735164
2.72556e-05
0.000719398
2.29635e-05
0.000705997
1.96105e-05
0.000694475
1.69538e-05
0.000684465
1.48187e-05
0.000675688
1.30785e-05
0.000667929
1.16407e-05
0.000661022
1.04376e-05
0.000654836
9.41925e-06
0.000649265
8.54814e-06
0.000644225
7.79613e-06
0.000639648
7.14169e-06
0.000635474
6.56812e-06
0.000631657
6.06232e-06
0.000628156
5.61386e-06
0.000624935
5.21432e-06
0.000621966
4.85685e-06
0.000619223
4.53581e-06
0.000616683
4.2465e-06
0.000614326
3.985e-06
0.000612136
3.74799e-06
0.000610097
3.53266e-06
0.000608195
3.33658e-06
0.000606419
3.1577e-06
0.000604758
2.99422e-06
0.000603201
2.84457e-06
0.000601741
2.70741e-06
0.000600369
2.58153e-06
0.000599078
2.46588e-06
0.000597861
2.35951e-06
0.000596713
2.26159e-06
0.000595629
2.17136e-06
0.000594602
2.08816e-06
0.00059363
2.01138e-06
0.000592707
1.94049e-06
0.00059183
1.87498e-06
0.000590996
1.81441e-06
0.000590201
1.75839e-06
0.000589442
1.70653e-06
0.000588717
1.6585e-06
0.000588023
1.61402e-06
0.000587358
1.57278e-06
0.00058672
1.53456e-06
0.000586106
1.4991e-06
0.000585516
1.46622e-06
0.000584947
1.4357e-06
0.000584398
1.40738e-06
0.000583868
1.3811e-06
0.000583354
1.35672e-06
0.000582857
1.3341e-06
0.000582374
1.31313e-06
0.000581905
1.29372e-06
0.000581448
1.27577e-06
0.000581003
1.25921e-06
0.000580569
1.24397e-06
0.000580144
1.22999e-06
0.000579729
1.21722e-06
0.000579321
1.2056e-06
0.000578921
1.19507e-06
0.000578528
1.18558e-06
0.000578141
1.17705e-06
0.000577759
1.16941e-06
0.000577382
1.16257e-06
0.000577009
1.15645e-06
0.00057664
1.15096e-06
0.000576274
1.14602e-06
0.000575912
1.14155e-06
0.000575552
1.13747e-06
0.000575195
1.13373e-06
0.000574841
1.13027e-06
0.000574489
1.12705e-06
0.000574139
1.12404e-06
0.000573791
1.12122e-06
0.000573445
1.11857e-06
0.0005731
1.11608e-06
0.000572758
1.11373e-06
0.000572417
1.11151e-06
0.000572077
1.10942e-06
0.000571739
1.10745e-06
0.000571402
1.10559e-06
0.000571066
1.10383e-06
0.000570732
1.10216e-06
0.000570399
1.10058e-06
0.000570067
1.09908e-06
0.000569736
1.09764e-06
0.000569406
1.09627e-06
0.000569077
1.09496e-06
0.000568748
1.09369e-06
0.000568421
1.09248e-06
0.000568095
1.0913e-06
0.000567769
1.09017e-06
0.000567445
1.08908e-06
0.000567121
1.08804e-06
0.000566797
1.08706e-06
0.000566475
1.08614e-06
0.000566153
1.0853e-06
0.000565832
1.08455e-06
0.000565511
1.08391e-06
0.00056519
1.08338e-06
0.00056487
1.08297e-06
0.00056455
1.08269e-06
0.000564231
1.08254e-06
0.000563911
1.08251e-06
0.000563591
1.08259e-06
0.000563271
1.08277e-06
0.000562951
1.08302e-06
0.000562631
1.08332e-06
0.000562311
1.08367e-06
0.000561991
1.08402e-06
0.00056167
1.08439e-06
0.000561349
1.08474e-06
0.000561028
1.08506e-06
0.000560707
1.08537e-06
0.000560385
1.08564e-06
0.000560064
1.08588e-06
0.000559742
1.08608e-06
0.000559421
1.08625e-06
0.000559099
1.08639e-06
0.000558777
1.0865e-06
0.000558455
1.08658e-06
0.000558133
1.08664e-06
0.000557812
1.08666e-06
0.00055749
1.08666e-06
0.000557168
1.08664e-06
0.000556847
1.0866e-06
0.000556525
1.08653e-06
0.000556204
1.08645e-06
0.000555883
1.08637e-06
0.000555561
1.08627e-06
0.00055524
1.08618e-06
0.000554919
1.08609e-06
0.000554599
1.08601e-06
0.000554278
1.08595e-06
0.000553957
1.08592e-06
0.000553636
1.0859e-06
0.000553316
1.08592e-06
0.000552995
1.08596e-06
0.000552675
1.08603e-06
0.000552354
1.08612e-06
0.000552033
1.08624e-06
0.000551712
1.08638e-06
0.000551392
1.08654e-06
0.000551071
1.0867e-06
0.00055075
1.08688e-06
0.000550429
1.08706e-06
0.000550108
1.08724e-06
0.000549786
1.08742e-06
0.000549465
1.08759e-06
0.000549144
1.08777e-06
0.000548822
1.08793e-06
0.000548501
1.08809e-06
0.000548179
1.08824e-06
0.000547857
1.08839e-06
0.000547536
1.08852e-06
0.000547214
1.08865e-06
0.000546892
1.08877e-06
0.00054657
1.08889e-06
0.000546248
1.089e-06
0.000545926
1.0891e-06
0.000545605
1.08921e-06
0.000545283
1.08931e-06
0.000544961
1.08941e-06
0.000544638
1.08952e-06
0.000544316
1.08963e-06
0.000543994
1.08975e-06
0.000543672
1.08988e-06
0.00054335
1.09002e-06
0.000543027
1.09018e-06
0.000542705
1.09034e-06
0.000542383
1.09051e-06
0.00054206
1.09069e-06
0.000541737
1.09087e-06
0.000541415
1.09105e-06
0.000541092
1.09123e-06
0.000540769
1.0914e-06
0.000540446
1.09156e-06
0.000540123
1.0917e-06
0.0005398
1.09183e-06
0.000539476
1.09194e-06
0.000539153
1.09204e-06
0.00053883
1.09212e-06
0.000538507
1.09219e-06
0.000538184
1.09226e-06
0.00053786
1.09231e-06
0.000537537
1.09237e-06
0.000537214
1.09242e-06
0.000536891
1.09248e-06
0.000536567
1.09254e-06
0.000536244
1.0926e-06
0.000535921
1.09268e-06
0.000535598
1.09276e-06
0.000535274
1.09285e-06
0.000534951
1.09296e-06
0.000534627
1.09307e-06
0.000534304
1.0932e-06
0.00053398
1.09333e-06
0.000533657
1.09348e-06
0.000533333
1.09363e-06
0.000533009
1.0938e-06
0.000532685
1.09398e-06
0.000532362
1.09416e-06
0.000532037
1.09435e-06
0.000531713
1.09455e-06
0.000531389
1.09474e-06
0.000531065
1.09494e-06
0.00053074
1.09513e-06
0.000530416
1.09532e-06
0.000530091
1.09551e-06
0.000529766
1.09569e-06
0.000529441