/*--------------------------------*- C++ -*----------------------------------*\
| =========                 |                                                 |
| \\      /  F ield         | OpenFOAM: The Open Source CFD Toolbox           |
|  \\    /   O peration     | Version:  2512                                  |
|   \\  /    A nd           | Website:  www.openfoam.com                      |
|    \\/     M anipulation  |                                                 |
\*---------------------------------------------------------------------------*/
FoamFile
{
    version     2.0;
    format      ascii;
    arch        "LSB;label=32;scalar=64";
    class       surfaceScalarField;
    location    "0.006";
    object      phiB;
}
// * * * * * * * * * * * * * * * * * * * * * * * * * * * * * * * * * * * * * //

dimensions      [1 2 -2 0 0 -1 0];

oriented        oriented;

internalField   nonuniform List<scalar> 
198900
(
0.000614072
0.040062
0.0005753
0.0400388
0.000521097
0.0400542
0.000466034
0.0400551
0.00041643
0.0400496
0.000373602
0.0400428
0.000337574
0.040036
0.000307911
0.0400297
0.000283932
0.040024
0.000264853
0.0400191
0.000249888
0.040015
0.000238297
0.0400116
0.000229422
0.0400089
0.000222695
0.0400067
0.000217644
0.0400051
0.000213885
0.0400038
0.000211115
0.0400028
0.000209095
0.040002
0.000207642
0.0400015
0.000206619
0.040001
0.000205919
0.0400007
0.000205463
0.0400005
0.000205194
0.0400003
0.000205066
0.0400001
0.000205046
0.04
0.000205109
0.0399999
0.000205236
0.0399999
0.000205412
0.0399998
0.000205627
0.0399998
0.000205871
0.0399998
0.000206138
0.0399997
0.000206422
0.0399997
0.00020672
0.0399997
0.000207028
0.0399997
0.000207344
0.0399997
0.000207665
0.0399997
0.00020799
0.0399997
0.000208317
0.0399997
0.000208645
0.0399997
0.000208973
0.0399997
0.000209301
0.0399997
0.000209628
0.0399997
0.000209953
0.0399997
0.000210275
0.0399997
0.000210596
0.0399997
0.000210913
0.0399997
0.000211227
0.0399997
0.000211538
0.0399997
0.000211845
0.0399997
0.000212149
0.0399997
0.000212449
0.0399997
0.000212745
0.0399997
0.000213038
0.0399997
0.000213326
0.0399997
0.000213611
0.0399997
0.000213892
0.0399997
0.00021417
0.0399997
0.000214444
0.0399997
0.000214714
0.0399997
0.00021498
0.0399997
0.000215243
0.0399997
0.000215502
0.0399997
0.000215757
0.0399997
0.000216009
0.0399997
0.000216257
0.0399998
0.000216501
0.0399998
0.000216742
0.0399998
0.000216978
0.0399998
0.000217209
0.0399998
0.000217436
0.0399998
0.000217657
0.0399998
0.000217873
0.0399998
0.000218084
0.0399998
0.000218288
0.0399998
0.000218487
0.0399998
0.000218679
0.0399998
0.000218864
0.0399998
0.000219043
0.0399998
0.000219216
0.0399998
0.000219382
0.0399998
0.000219542
0.0399998
0.000219697
0.0399998
0.000219846
0.0399999
0.00021999
0.0399999
0.000220129
0.0399999
0.000220263
0.0399999
0.000220394
0.0399999
0.00022052
0.0399999
0.000220643
0.0399999
0.000220763
0.0399999
0.000220879
0.0399999
0.000220993
0.0399999
0.000221104
0.0399999
0.000221212
0.0399999
0.000221319
0.0399999
0.000221422
0.0399999
0.000221524
0.0399999
0.000221624
0.0399999
0.000221723
0.0399999
0.00022182
0.0399999
0.000221915
0.0399999
0.000222009
0.0399999
0.000222101
0.0399999
0.000222193
0.0399999
0.000222283
0.0399999
0.000222372
0.0399999
0.000222461
0.0399999
0.000222548
0.0399999
0.000222634
0.0399999
0.000222719
0.0399999
0.000222804
0.0399999
0.000222886
0.0399999
0.000222968
0.0399999
0.000223048
0.0399999
0.000223127
0.0399999
0.000223204
0.0399999
0.000223279
0.0399999
0.000223352
0.0399999
0.000223424
0.0399999
0.000223494
0.0399999
0.000223562
0.0399999
0.000223628
0.0399999
0.000223693
0.0399999
0.000223756
0.0399999
0.000223817
0.0399999
0.000223878
0.0399999
0.000223936
0.0399999
0.000223994
0.0399999
0.000224051
0.0399999
0.000224107
0.0399999
0.000224161
0.0399999
0.000224216
0.0399999
0.000224269
0.0399999
0.000224322
0.0399999
0.000224374
0.0399999
0.000224426
0.0399999
0.000224477
0.0399999
0.000224528
0.0399999
0.000224579
0.0399999
0.000224629
0.0399999
0.000224679
0.0399999
0.000224729
0.04
0.000224779
0.04
0.000224828
0.04
0.000224877
0.04
0.000224926
0.04
0.000224975
0.04
0.000225023
0.04
0.000225071
0.04
0.000225119
0.04
0.000225166
0.04
0.000225213
0.04
0.00022526
0.04
0.000225306
0.04
0.000225351
0.04
0.000225396
0.04
0.000225441
0.04
0.000225485
0.04
0.000225529
0.04
0.000225572
0.04
0.000225615
0.04
0.000225658
0.04
0.0002257
0.04
0.000225742
0.04
0.000225784
0.04
0.000225826
0.04
0.000225867
0.04
0.000225908
0.04
0.000225949
0.04
0.00022599
0.04
0.00022603
0.04
0.000226071
0.04
0.000226111
0.04
0.000226151
0.04
0.000226191
0.04
0.000226231
0.04
0.000226271
0.04
0.000226311
0.04
0.00022635
0.04
0.00022639
0.04
0.000226429
0.04
0.000226468
0.04
0.000226507
0.04
0.000226545
0.04
0.000226584
0.04
0.000226622
0.04
0.000226659
0.04
0.000226697
0.04
0.000226735
0.04
0.000226772
0.04
0.000226809
0.04
0.000226846
0.04
0.000226884
0.04
0.000226921
0.04
0.000226958
0.04
0.000226995
0.04
0.000227032
0.04
0.000227069
0.04
0.000227106
0.04
0.000227143
0.04
0.000227181
0.04
0.000227218
0.04
0.000227255
0.04
0.000227293
0.04
0.00022733
0.04
0.000227367
0.04
0.000227405
0.04
0.000227442
0.04
0.000227479
0.04
0.000227516
0.04
0.000227553
0.04
0.00022759
0.04
0.000227627
0.04
0.000227664
0.04
0.000227701
0.04
0.000227737
0.04
0.000227773
0.04
0.00022781
0.04
0.000227846
0.04
0.000227882
0.04
0.000227918
0.04
0.000227954
0.04
0.000227989
0.04
0.000228025
0.04
0.000228061
0.04
0.000228096
0.04
0.000228132
0.04
0.000228167
0.04
0.000228203
0.04
0.000228238
0.04
0.000228274
0.04
0.000228309
0.04
0.000228345
0.04
0.00022838
0.04
0.000228416
0.04
0.000228451
0.04
0.000228487
0.04
0.000228522
0.04
0.000228558
0.04
0.000228594
0.04
0.000228629
0.04
0.000228665
0.04
0.0002287
0.04
0.000228736
0.04
0.000228771
0.04
0.000228807
0.04
0.000228842
0.04
0.000228878
0.04
0.000228913
0.04
0.000228949
0.04
0.000228985
0.04
0.00022902
0.04
0.000229056
0.04
0.000229091
0.04
0.000229127
0.04
0.000229163
0.04
0.000229198
0.04
0.000229234
0.04
0.000229269
0.04
0.000229305
0.04
0.000229341
0.04
0.000229376
0.04
0.000229412
0.04
0.000229448
0.04
0.000229483
0.04
0.000229519
0.04
0.000229554
0.04
0.00022959
0.04
0.000229626
0.04
0.000229661
0.04
0.000229697
0.04
0.000229732
0.04
0.000229768
0.04
0.000229803
0.04
0.000229839
0.04
0.000229875
0.04
0.00022991
0.04
0.000229946
0.04
0.000229981
0.04
0.000230017
0.04
0.000230053
0.04
0.000230088
0.04
0.000230124
0.04
0.000230159
0.04
0.000230195
0.04
0.000230231
0.04
0.000230266
0.04
0.000230302
0.04
0.000230337
0.04
0.000230373
0.04
0.000230409
0.04
0.000230444
0.04
0.00023048
0.04
0.000230516
0.04
0.000230551
0.04
0.000230587
0.04
0.000230622
0.04
0.000230658
0.04
0.000230694
0.04
0.000230729
0.04
0.000230765
0.04
0.000230801
0.04
0.000230836
0.04
0.000230872
0.04
0.000230908
0.04
0.000230943
0.04
0.000230979
0.04
0.000231014
0.04
0.00023105
0.04
0.000231086
0.04
0.000231121
0.04
0.000231157
0.04
0.000231193
0.04
0.000231228
0.04
0.000231264
0.04
0.0002313
0.04
0.000231335
0.04
0.000231371
0.04
0.000231407
0.04
0.000231442
0.04
0.000231478
0.04
0.000231514
0.04
0.000231549
0.04
0.000231585
0.04
0.000231621
0.04
0.000231657
0.04
0.000231692
0.04
0.000231728
0.04
0.000231764
0.04
0.000231799
0.04
0.000231835
0.04
0.000231871
0.04
0.000231907
0.04
0.000231942
0.04
0.000231978
0.04
0.000232014
0.04
0.00023205
0.04
0.000232086
0.04
0.000232121
0.04
0.000232157
0.04
0.000232193
0.04
0.000232229
0.04
0.000232265
0.04
0.0002323
0.04
0.000232336
0.04
0.000232372
0.04
0.000232408
0.04
0.000232444
0.04
0.00023248
0.04
0.000232516
0.04
0.000232551
0.04
0.000232587
0.04
0.000232623
0.04
0.000232659
0.04
0.000232695
0.04
0.000232731
0.04
0.000232767
0.04
0.000232803
0.04
0.000232839
0.04
0.000232875
0.04
0.000232911
0.04
0.000232947
0.04
0.000232983
0.04
0.000233019
0.04
0.000233055
0.04
0.000233091
0.04
0.000233127
0.04
0.000233163
0.04
0.000233199
0.04
0.000233235
0.04
0.000233271
0.04
0.000233307
0.04
0.000233343
0.04
0.000233379
0.04
0.000233415
0.04
0.000233451
0.04
0.000233487
0.04
0.000233523
0.04
0.00023356
0.04
0.000233596
0.04
0.000233632
0.04
0.000233668
0.04
0.000233704
0.04
0.00023374
0.04
0.000233777
0.04
0.000233813
0.04
0.000233849
0.04
0.000233885
0.04
0.000233921
0.04
0.000233958
0.04
0.000233994
0.04
0.00023403
0.04
0.000234066
0.04
0.000234103
0.04
0.000234139
0.04
0.000234175
0.04
0.000234211
0.04
0.000234248
0.04
0.000234284
0.04
0.00023432
0.04
0.000234357
0.04
0.000234393
0.04
0.000234429
0.04
0.000234466
0.04
0.000234502
0.04
0.000234538
0.04
0.000234575
0.04
0.000234611
0.04
0.000234648
0.04
0.000234684
0.04
0.00023472
0.04
0.000234757
0.04
0.000234793
0.04
0.00023483
0.04
0.000234866
0.04
0.000234903
0.04
0.000234939
0.04
0.000234976
0.04
0.000235012
0.04
0.000235049
0.04
0.000235085
0.04
0.000235122
0.04
0.000235158
0.04
0.000235195
0.04
0.000235232
0.04
0.000235268
0.04
0.000235305
0.04
0.000235341
0.04
0.000235378
0.04
0.000235415
0.04
0.000235451
0.04
0.000235488
0.04
0.000235524
0.04
0.000235561
0.04
0.000235598
0.04
0.000235634
0.04
0.000235671
0.04
0.000235708
0.04
0.000235745
0.04
0.000235781
0.04
0.000235818
0.04
0.000235855
0.04
0.000235891
0.04
0.000235928
0.04
0.000235965
0.04
0.000236002
0.04
0.000236039
0.04
0.000236075
0.04
0.000236112
0.04
0.000236149
0.04
0.000236186
0.04
0.000236223
0.04
0.000236259
0.04
0.000236296
0.04
0.000236333
0.04
0.00023637
0.04
0.000236407
0.04
0.000236444
0.04
0.000236481
0.04
0.000236518
0.04
0.000236555
0.04
0.000236592
0.04
0.000236629
0.04
0.000236666
0.04
0.000236702
0.04
0.000236739
0.04
0.000236776
0.04
0.000236813
0.04
0.00023685
0.04
0.000236887
0.04
0.000236925
0.04
0.000236962
0.04
0.000236999
0.04
0.000237036
0.04
0.000237073
0.04
0.00023711
0.04
0.000237147
0.04
0.000237184
0.04
0.000237221
0.04
0.000237258
0.04
0.000237295
0.04
0.000237333
0.04
0.00023737
0.04
0.000237407
0.04
0.000237444
0.04
0.000237481
0.04
0.000237518
0.04
0.000237556
0.04
0.000237593
0.04
0.00023763
0.04
0.000237667
0.04
0.000237705
0.04
0.000237742
0.04
0.000237779
0.04
0.000237816
0.04
0.000237854
0.04
0.000237891
0.04
0.000237928
0.04
0.000237966
0.04
0.000238003
0.04
0.00023804
0.04
0.000238078
0.04
0.000238115
0.04
0.000238152
0.04
0.00023819
0.04
0.000238227
0.04
0.000238265
0.04
0.000238302
0.04
0.000238339
0.04
0.000238377
0.04
0.000238414
0.04
0.000238452
0.04
0.000238489
0.04
0.000238527
0.04
0.000238564
0.04
0.000238602
0.04
0.000238639
0.04
0.000238677
0.04
0.000238714
0.04
0.000238752
0.04
0.000238789
0.04
0.000238827
0.04
0.000238865
0.04
0.000238902
0.04
0.00023894
0.04
0.000238977
0.04
0.000239015
0.04
0.000239053
0.04
0.00023909
0.04
0.000239128
0.04
0.000239166
0.04
0.000239203
0.04
0.000239241
0.04
0.000239279
0.04
0.000239316
0.04
0.000239354
0.04
0.000239392
0.04
0.000239429
0.04
0.000239467
0.04
0.000239505
0.04
0.000239543
0.04
0.00023958
0.04
0.000239618
0.04
0.000239656
0.04
0.000239694
0.04
0.000239732
0.04
0.000239769
0.04
0.000239807
0.04
0.000239845
0.04
0.000239883
0.04
0.000239921
0.04
0.000239959
0.04
0.000239997
0.04
0.000240034
0.04
0.000240072
0.04
0.00024011
0.04
0.000240148
0.04
0.000240186
0.04
0.000240224
0.04
0.000240262
0.04
0.0002403
0.04
0.000240338
0.04
0.000240376
0.04
0.000240414
0.04
0.000240452
0.04
0.00024049
0.04
0.000240528
0.04
0.000240566
0.04
0.000240604
0.04
0.000240642
0.04
0.00024068
0.04
0.000240718
0.04
0.000240756
0.04
0.000240794
0.04
0.000240832
0.04
0.000240871
0.04
0.000240909
0.04
0.000240947
0.04
0.000240985
0.04
0.000241023
0.04
0.000241061
0.04
0.000241099
0.04
0.000241138
0.04
0.000241176
0.04
0.000241214
0.04
0.000241252
0.04
0.000241291
0.04
0.000241329
0.04
0.000241367
0.04
0.000241405
0.04
0.000241444
0.04
0.000241482
0.04
0.00024152
0.04
0.000241558
0.04
0.000241597
0.04
0.000241635
0.04
0.000241673
0.04
0.000241712
0.04
0.00024175
0.04
0.000241788
0.04
0.000241827
0.04
0.000241865
0.04
0.000241903
0.04
0.000241942
0.04
0.00024198
0.04
0.000242019
0.04
0.000242057
0.04
0.000242096
0.04
0.000242134
0.04
0.000242172
0.04
0.000242211
0.04
0.000242249
0.04
0.000242288
0.04
0.000242326
0.04
0.000242365
0.04
0.000242403
0.04
0.000242442
0.04
0.00024248
0.04
0.000242519
0.04
0.000242558
0.04
0.000242596
0.04
0.000242635
0.04
0.000242673
0.04
0.000242712
0.04
0.00024275
0.04
0.000242789
0.04
0.000242828
0.04
0.000242866
0.04
0.000242905
0.04
0.000242944
0.04
0.000242982
0.04
0.000243021
0.04
0.00024306
0.04
0.000243098
0.04
0.000243137
0.04
0.000243176
0.04
0.000243214
0.04
0.000243253
0.04
0.000243292
0.04
0.000243331
0.04
0.000243369
0.04
0.000243408
0.04
0.000243447
0.04
0.000243486
0.04
0.000243525
0.04
0.000243563
0.04
0.000243602
0.04
0.000243641
0.04
0.00024368
0.04
0.000243719
0.04
0.000243758
0.04
0.000243796
0.04
0.000243835
0.04
0.000243874
0.04
0.000243913
0.04
0.000243952
0.04
0.000243991
0.04
0.00024403
0.04
0.000244069
0.04
0.000244108
0.04
0.000244147
0.04
0.000244186
0.04
0.000244224
0.04
0.000244263
0.04
0.000244302
0.04
0.000244341
0.04
0.00024438
0.04
0.000244419
0.04
0.000244458
0.04
0.000244498
0.04
0.000244537
0.04
0.000244576
0.04
0.000244615
0.04
0.000244654
0.04
0.000244693
0.04
0.000244732
0.04
0.000244771
0.04
0.00024481
0.04
0.000244849
0.04
0.000244888
0.04
0.000244927
0.04
0.000244967
0.04
0.000245006
0.04
0.000245045
0.04
0.000245084
0.04
0.000245123
0.04
0.000245162
0.04
0.000245202
0.04
0.000245241
0.04
0.00024528
0.04
0.000245319
0.04
0.000245358
0.04
0.000245398
0.04
0.000245437
0.04
0.000245476
0.04
0.000245515
0.04
0.000245555
0.04
0.000245594
0.04
0.000245633
0.04
0.000245673
0.04
0.000245712
0.04
0.000245751
0.04
0.000245791
0.04
0.00024583
0.04
0.000245869
0.04
0.000245909
0.04
0.000245948
0.04
0.000245987
0.04
0.000246027
0.04
0.000246066
0.04
0.000246106
0.04
0.000246145
0.04
0.000246184
0.04
0.000246224
0.04
0.000246263
0.04
0.000246303
0.04
0.000246342
0.04
0.000246382
0.04
0.000246421
0.04
0.000246461
0.04
0.0002465
0.04
0.00024654
0.04
0.000246579
0.04
0.000246619
0.04
0.000246658
0.04
0.000246698
0.04
0.000246737
0.04
0.000246777
0.04
0.000246816
0.04
0.000246856
0.04
0.000246895
0.04
0.000246935
0.04
0.000246975
0.04
0.000247014
0.04
0.000247054
0.04
0.000247093
0.04
0.000247133
0.04
0.000247173
0.04
0.000247212
0.04
0.000247252
0.04
0.000247292
0.04
0.000247331
0.04
0.000247371
0.04
0.000247411
0.04
0.00024745
0.04
0.00024749
0.04
0.00024753
0.04
0.00024757
0.04
0.000247609
0.04
0.000247649
0.04
0.000247689
0.04
0.000247729
0.04
0.000247768
0.04
0.000247808
0.04
0.000247848
0.04
0.000247888
0.04
0.000247928
0.04
0.000247967
0.04
0.000248007
0.04
0.000248047
0.04
0.000248087
0.04
0.000248127
0.04
0.000248167
0.04
0.000248207
0.04
0.000248246
0.04
0.000248286
0.04
0.000248326
0.04
0.000248366
0.04
0.000248406
0.04
0.000248446
0.04
0.000248486
0.04
0.000248526
0.04
0.000248566
0.04
0.000248606
0.04
0.000248646
0.04
0.000248686
0.04
0.000248726
0.04
0.000248766
0.04
0.000248806
0.04
0.000248846
0.04
0.000248886
0.04
0.000248926
0.04
0.000248966
0.04
0.000249006
0.04
0.000249046
0.04
0.000249087
0.04
0.000249127
0.04
0.000249167
0.04
0.000249207
0.04
0.000249247
0.04
0.000249287
0.04
0.000249327
0.04
0.000249368
0.04
0.000249408
0.04
0.000249448
0.04
0.000249488
0.04
0.000249529
0.04
0.000249569
0.04
0.000249609
0.04
0.000249649
0.04
0.00024969
0.04
0.00024973
0.04
0.00024977
0.04
0.000249811
0.04
0.000249851
0.04
0.000249891
0.04
0.000249932
0.04
0.000249972
0.04
0.000250013
0.04
0.000250053
0.04
0.000250093
0.04
0.000250134
0.04
0.000250174
0.04
0.000250215
0.04
0.000250255
0.04
0.000250296
0.04
0.000250336
0.04
0.000250377
0.04
0.000250418
0.04
0.000250458
0.04
0.000250499
0.04
0.000250539
0.04
0.00025058
0.04
0.000250621
0.04
0.000250662
0.04
0.000250702
0.04
0.000250743
0.04
0.000250784
0.04
0.000250825
0.04
0.000250865
0.04
0.000250906
0.04
0.000250947
0.04
0.000250988
0.04
0.000251029
0.04
0.00025107
0.04
0.000251111
0.04
0.000251152
0.04
0.000251193
0.04
0.000251234
0.04
0.000251275
0.04
0.000251316
0.04
0.000251357
0.04
0.000251399
0.04
0.00025144
0.04
0.000251481
0.04
0.000251522
0.04
0.000251564
0.04
0.000251605
0.04
0.000251646
0.04
0.000251688
0.04
0.000251729
0.04
0.000251771
0.04
0.000251812
0.04
0.000251854
0.04
0.000251896
0.04
0.000251937
0.04
0.000251979
0.04
0.000252021
0.04
0.000252063
0.04
0.000252105
0.04
0.000252147
0.04
0.000252189
0.04
0.000252231
0.04
0.000252273
0.04
0.000252315
0.04
0.000252357
0.04
0.000252399
0.04
0.000252442
0.04
0.000252484
0.04
0.000252527
0.04
0.000252569
0.04
0.000252612
0.04
0.000252655
0.04
0.000252697
0.04
0.00025274
0.04
0.000252783
0.04
0.000252826
0.04
0.000252869
0.04
0.000252912
0.04
0.000252956
0.04
0.000252999
0.04
0.000253043
0.04
0.000253086
0.04
0.00025313
0.04
0.000253174
0.04
0.000253218
0.04
0.000253262
0.04
0.000253306
0.04
0.00025335
0.04
0.000253394
0.04
0.000253439
0.04
0.000253483
0.04
0.000253528
0.04
0.000253573
0.04
0.000253618
0.04
0.000253663
0.04
0.000253709
0.04
0.000253754
0.04
0.0002538
0.04
0.000253846
0.04
0.000253892
0.04
0.000253938
0.04
0.000253984
0.04
0.000254031
0.04
0.000254078
0.04
0.000254125
0.04
0.000254172
0.04
0.000254219
0.04
0.000254267
0.04
0.000254315
0.04
0.000254363
0.04
0.000254411
0.04
0.00025446
0.04
0.000254509
0.04
0.000254558
0.04
0.000254607
0.04
0.000254657
0.04
0.000254707
0.0399999
0.000254758
0.0399999
0.000254808
0.0399999
0.000254859
0.0399999
0.000254911
0.0399999
0.000254962
0.0399999
0.000255014
0.0399999
0.000255067
0.0399999
0.00025512
0.0399999
0.000255173
0.0399999
0.000255227
0.0399999
0.000255281
0.0399999
0.000255336
0.0399999
0.000255391
0.0399999
0.000255447
0.0399999
0.000255503
0.0399999
0.000255559
0.0399999
0.000255617
0.0399999
0.000255674
0.0399999
0.000255733
0.0399999
0.000255792
0.0399999
0.000255852
0.0399999
0.000255912
0.0399999
0.000255973
0.0399999
0.000256035
0.0399999
0.000256098
0.0399999
0.000256161
0.0399999
0.000256225
0.0399999
0.00025629
0.0399999
0.000256356
0.0399999
0.000256423
0.0399999
0.000256491
0.0399999
0.00025656
0.0399999
0.00025663
0.0399999
0.000256701
0.0399999
0.000256774
0.0399999
0.000256847
0.0399999
0.000256922
0.0399999
0.000256999
0.0399999
0.000257076
0.0399999
0.000257156
0.0399999
0.000257237
0.0399999
0.000257319
0.0399999
0.000257404
0.0399999
0.00025749
0.0399999
0.000257578
0.0399999
0.000257669
0.0399999
0.000257761
0.0399999
0.000257856
0.0399999
0.000257954
0.0399999
0.000258054
0.0399999
0.000258158
0.0399999
0.000258264
0.0399999
0.000258374
0.0399999
0.000258487
0.0399999
0.000258604
0.0399999
0.000258726
0.0399999
0.000258851
0.0399999
0.000258982
0.0399999
0.000259118
0.0399999
0.000259259
0.0399999
0.000259407
0.0399999
0.000259561
0.0399998
0.000259723
0.0399998
0.000259893
0.0399998
0.000260071
0.0399998
0.00026026
0.0399998
0.00026046
0.0399998
0.000260673
0.0399998
0.0002609
0.0399998
0.000261144
0.0399998
0.000261409
0.0399997
0.0002617
0.0399997
0.000262022
0.0399997
0.000262384
0.0399996
0.000262799
0.0399996
0.00026328
0.0399995
0.00026385
0.0399994
0.000264534
0.0399993
0.000265374
0.0399992
0.000266425
0.0399989
0.00026776
0.0399987
0.0399983
0.000723473
0.0400434
0.000729627
0.0400326
0.000727974
0.0400559
0.000713127
0.0400699
0.000689621
0.0400731
0.000662701
0.0400697
0.000635802
0.0400629
0.000610843
0.0400546
0.000588731
0.0400461
0.000569742
0.0400381
0.000553789
0.0400309
0.000540589
0.0400248
0.000529786
0.0400197
0.000521004
0.0400155
0.000513896
0.0400122
0.000508152
0.0400095
0.00050351
0.0400074
0.000499754
0.0400058
0.000496707
0.0400045
0.00049423
0.0400035
0.000492211
0.0400027
0.000490564
0.0400021
0.000489219
0.0400016
0.000488123
0.0400012
0.000487231
0.0400009
0.00048651
0.0400007
0.000485933
0.0400005
0.000485477
0.0400003
0.000485125
0.0400001
0.000484861
0.04
0.000484674
0.0399999
0.000484554
0.0399998
0.000484491
0.0399998
0.000484478
0.0399997
0.00048451
0.0399997
0.00048458
0.0399996
0.000484685
0.0399996
0.000484821
0.0399995
0.000484983
0.0399995
0.000485169
0.0399995
0.000485376
0.0399995
0.000485601
0.0399994
0.000485844
0.0399994
0.000486101
0.0399994
0.00048637
0.0399994
0.000486652
0.0399994
0.000486943
0.0399994
0.000487243
0.0399994
0.000487551
0.0399994
0.000487865
0.0399994
0.000488186
0.0399994
0.000488511
0.0399994
0.000488841
0.0399994
0.000489175
0.0399994
0.000489512
0.0399994
0.000489851
0.0399994
0.000490193
0.0399994
0.000490537
0.0399994
0.000490881
0.0399994
0.000491227
0.0399994
0.000491574
0.0399994
0.000491921
0.0399994
0.000492268
0.0399994
0.000492615
0.0399994
0.000492962
0.0399994
0.000493307
0.0399994
0.000493651
0.0399994
0.000493994
0.0399994
0.000494335
0.0399994
0.000494673
0.0399994
0.000495009
0.0399994
0.000495341
0.0399995
0.00049567
0.0399995
0.000495996
0.0399995
0.000496317
0.0399995
0.000496633
0.0399995
0.000496946
0.0399995
0.000497253
0.0399995
0.000497556
0.0399995
0.000497854
0.0399995
0.000498147
0.0399995
0.000498436
0.0399996
0.000498721
0.0399996
0.000499002
0.0399996
0.000499279
0.0399996
0.000499552
0.0399996
0.000499822
0.0399996
0.000500088
0.0399996
0.000500352
0.0399996
0.000500612
0.0399996
0.000500871
0.0399996
0.000501126
0.0399996
0.000501379
0.0399996
0.000501631
0.0399996
0.00050188
0.0399996
0.000502127
0.0399996
0.000502372
0.0399997
0.000502616
0.0399997
0.000502858
0.0399997
0.000503099
0.0399997
0.000503338
0.0399997
0.000503576
0.0399997
0.000503813
0.0399997
0.000504049
0.0399997
0.000504284
0.0399997
0.000504517
0.0399997
0.00050475
0.0399997
0.000504982
0.0399997
0.000505213
0.0399997
0.000505443
0.0399997
0.000505672
0.0399997
0.0005059
0.0399997
0.000506126
0.0399997
0.000506351
0.0399997
0.000506575
0.0399997
0.000506798
0.0399997
0.000507018
0.0399997
0.000507237
0.0399997
0.000507455
0.0399997
0.000507671
0.0399997
0.000507885
0.0399997
0.000508098
0.0399997
0.000508309
0.0399997
0.000508518
0.0399997
0.000508726
0.0399997
0.000508933
0.0399997
0.000509139
0.0399997
0.000509343
0.0399997
0.000509546
0.0399997
0.000509749
0.0399997
0.00050995
0.0399997
0.000510151
0.0399997
0.000510351
0.0399997
0.000510551
0.0399997
0.000510749
0.0399997
0.000510948
0.0399997
0.000511145
0.0399998
0.000511343
0.0399998
0.00051154
0.0399998
0.000511737
0.0399998
0.000511933
0.0399998
0.000512129
0.0399998
0.000512325
0.0399998
0.000512521
0.0399998
0.000512716
0.0399998
0.000512911
0.0399998
0.000513106
0.0399998
0.000513301
0.0399998
0.000513495
0.0399998
0.000513689
0.0399998
0.000513883
0.0399998
0.000514076
0.0399998
0.000514269
0.0399998
0.000514461
0.0399998
0.000514653
0.0399998
0.000514845
0.0399998
0.000515036
0.0399998
0.000515226
0.0399998
0.000515417
0.0399998
0.000515607
0.0399998
0.000515796
0.0399998
0.000515985
0.0399998
0.000516174
0.0399998
0.000516363
0.0399998
0.000516551
0.0399998
0.000516739
0.0399998
0.000516927
0.0399998
0.000517114
0.0399998
0.000517302
0.0399998
0.000517489
0.0399998
0.000517676
0.0399998
0.000517862
0.0399998
0.000518049
0.0399998
0.000518236
0.0399998
0.000518422
0.0399998
0.000518608
0.0399998
0.000518794
0.0399998
0.00051898
0.0399998
0.000519166
0.0399998
0.000519352
0.0399998
0.000519537
0.0399998
0.000519722
0.0399998
0.000519907
0.0399998
0.000520092
0.0399998
0.000520277
0.0399998
0.000520461
0.0399998
0.000520645
0.0399998
0.00052083
0.0399998
0.000521013
0.0399998
0.000521197
0.0399998
0.000521381
0.0399998
0.000521564
0.0399998
0.000521748
0.0399998
0.000521931
0.0399998
0.000522115
0.0399998
0.000522298
0.0399998
0.000522482
0.0399998
0.000522665
0.0399998
0.000522849
0.0399998
0.000523032
0.0399998
0.000523216
0.0399998
0.0005234
0.0399998
0.000523583
0.0399998
0.000523767
0.0399998
0.00052395
0.0399998
0.000524134
0.0399998
0.000524318
0.0399998
0.000524501
0.0399998
0.000524685
0.0399998
0.000524868
0.0399998
0.000525051
0.0399998
0.000525235
0.0399998
0.000525418
0.0399998
0.000525601
0.0399998
0.000525784
0.0399998
0.000525967
0.0399998
0.000526149
0.0399998
0.000526332
0.0399998
0.000526514
0.0399998
0.000526697
0.0399998
0.000526879
0.0399998
0.000527061
0.0399998
0.000527243
0.0399998
0.000527425
0.0399998
0.000527607
0.0399998
0.000527789
0.0399998
0.000527971
0.0399998
0.000528153
0.0399998
0.000528335
0.0399998
0.000528517
0.0399998
0.000528698
0.0399998
0.00052888
0.0399998
0.000529062
0.0399998
0.000529244
0.0399998
0.000529426
0.0399998
0.000529607
0.0399998
0.000529789
0.0399998
0.000529971
0.0399998
0.000530153
0.0399998
0.000530335
0.0399998
0.000530517
0.0399998
0.000530699
0.0399998
0.00053088
0.0399998
0.000531062
0.0399998
0.000531244
0.0399998
0.000531426
0.0399998
0.000531608
0.0399998
0.00053179
0.0399998
0.000531972
0.0399998
0.000532154
0.0399998
0.000532335
0.0399998
0.000532517
0.0399998
0.000532699
0.0399998
0.000532881
0.0399998
0.000533063
0.0399998
0.000533245
0.0399998
0.000533427
0.0399998
0.000533609
0.0399998
0.000533791
0.0399998
0.000533973
0.0399998
0.000534155
0.0399998
0.000534337
0.0399998
0.000534519
0.0399998
0.000534701
0.0399998
0.000534883
0.0399998
0.000535065
0.0399998
0.000535247
0.0399998
0.000535429
0.0399998
0.00053561
0.0399998
0.000535792
0.0399998
0.000535974
0.0399998
0.000536156
0.0399998
0.000536338
0.0399998
0.00053652
0.0399998
0.000536702
0.0399998
0.000536884
0.0399998
0.000537066
0.0399998
0.000537248
0.0399998
0.00053743
0.0399998
0.000537612
0.0399998
0.000537794
0.0399998
0.000537976
0.0399998
0.000538158
0.0399998
0.00053834
0.0399998
0.000538521
0.0399998
0.000538703
0.0399998
0.000538885
0.0399998
0.000539067
0.0399998
0.000539249
0.0399998
0.000539431
0.0399998
0.000539613
0.0399998
0.000539795
0.0399998
0.000539977
0.0399998
0.000540159
0.0399998
0.000540341
0.0399998
0.000540523
0.0399998
0.000540705
0.0399998
0.000540887
0.0399998
0.000541069
0.0399998
0.000541251
0.0399998
0.000541433
0.0399998
0.000541615
0.0399998
0.000541797
0.0399998
0.000541979
0.0399998
0.000542161
0.0399998
0.000542343
0.0399998
0.000542525
0.0399998
0.000542707
0.0399998
0.000542889
0.0399998
0.000543071
0.0399998
0.000543253
0.0399998
0.000543435
0.0399998
0.000543617
0.0399998
0.000543799
0.0399998
0.000543981
0.0399998
0.000544163
0.0399998
0.000544345
0.0399998
0.000544527
0.0399998
0.000544709
0.0399998
0.000544891
0.0399998
0.000545073
0.0399998
0.000545255
0.0399998
0.000545437
0.0399998
0.000545619
0.0399998
0.000545801
0.0399998
0.000545983
0.0399998
0.000546165
0.0399998
0.000546347
0.0399998
0.000546529
0.0399998
0.000546711
0.0399998
0.000546893
0.0399998
0.000547075
0.0399998
0.000547257
0.0399998
0.000547439
0.0399998
0.000547621
0.0399998
0.000547803
0.0399998
0.000547985
0.0399998
0.000548168
0.0399998
0.00054835
0.0399998
0.000548532
0.0399998
0.000548714
0.0399998
0.000548896
0.0399998
0.000549078
0.0399998
0.00054926
0.0399998
0.000549442
0.0399998
0.000549624
0.0399998
0.000549807
0.0399998
0.000549989
0.0399998
0.000550171
0.0399998
0.000550353
0.0399998
0.000550535
0.0399998
0.000550717
0.0399998
0.0005509
0.0399998
0.000551082
0.0399998
0.000551264
0.0399998
0.000551446
0.0399998
0.000551628
0.0399998
0.000551811
0.0399998
0.000551993
0.0399998
0.000552175
0.0399998
0.000552357
0.0399998
0.000552539
0.0399998
0.000552722
0.0399998
0.000552904
0.0399998
0.000553086
0.0399998
0.000553269
0.0399998
0.000553451
0.0399998
0.000553633
0.0399998
0.000553815
0.0399998
0.000553998
0.0399998
0.00055418
0.0399998
0.000554362
0.0399998
0.000554545
0.0399998
0.000554727
0.0399998
0.000554909
0.0399998
0.000555092
0.0399998
0.000555274
0.0399998
0.000555456
0.0399998
0.000555639
0.0399998
0.000555821
0.0399998
0.000556003
0.0399998
0.000556186
0.0399998
0.000556368
0.0399998
0.000556551
0.0399998
0.000556733
0.0399998
0.000556915
0.0399998
0.000557098
0.0399998
0.00055728
0.0399998
0.000557463
0.0399998
0.000557645
0.0399998
0.000557828
0.0399998
0.00055801
0.0399998
0.000558193
0.0399998
0.000558375
0.0399998
0.000558557
0.0399998
0.00055874
0.0399998
0.000558922
0.0399998
0.000559105
0.0399998
0.000559288
0.0399998
0.00055947
0.0399998
0.000559653
0.0399998
0.000559835
0.0399998
0.000560018
0.0399998
0.0005602
0.0399998
0.000560383
0.0399998
0.000560565
0.0399998
0.000560748
0.0399998
0.000560931
0.0399998
0.000561113
0.0399998
0.000561296
0.0399998
0.000561478
0.0399998
0.000561661
0.0399998
0.000561844
0.0399998
0.000562026
0.0399998
0.000562209
0.0399998
0.000562392
0.0399998
0.000562574
0.0399998
0.000562757
0.0399998
0.00056294
0.0399998
0.000563122
0.0399998
0.000563305
0.0399998
0.000563488
0.0399998
0.00056367
0.0399998
0.000563853
0.0399998
0.000564036
0.0399998
0.000564219
0.0399998
0.000564401
0.0399998
0.000564584
0.0399998
0.000564767
0.0399998
0.00056495
0.0399998
0.000565132
0.0399998
0.000565315
0.0399998
0.000565498
0.0399998
0.000565681
0.0399998
0.000565864
0.0399998
0.000566046
0.0399998
0.000566229
0.0399998
0.000566412
0.0399998
0.000566595
0.0399998
0.000566778
0.0399998
0.000566961
0.0399998
0.000567143
0.0399998
0.000567326
0.0399998
0.000567509
0.0399998
0.000567692
0.0399998
0.000567875
0.0399998
0.000568058
0.0399998
0.000568241
0.0399998
0.000568424
0.0399998
0.000568607
0.0399998
0.00056879
0.0399998
0.000568973
0.0399998
0.000569156
0.0399998
0.000569339
0.0399998
0.000569521
0.0399998
0.000569704
0.0399998
0.000569887
0.0399998
0.00057007
0.0399998
0.000570253
0.0399998
0.000570436
0.0399998
0.000570619
0.0399998
0.000570803
0.0399998
0.000570986
0.0399998
0.000571169
0.0399998
0.000571352
0.0399998
0.000571535
0.0399998
0.000571718
0.0399998
0.000571901
0.0399998
0.000572084
0.0399998
0.000572267
0.0399998
0.00057245
0.0399998
0.000572633
0.0399998
0.000572816
0.0399998
0.000573
0.0399998
0.000573183
0.0399998
0.000573366
0.0399998
0.000573549
0.0399998
0.000573732
0.0399998
0.000573915
0.0399998
0.000574098
0.0399998
0.000574282
0.0399998
0.000574465
0.0399998
0.000574648
0.0399998
0.000574831
0.0399998
0.000575014
0.0399998
0.000575198
0.0399998
0.000575381
0.0399998
0.000575564
0.0399998
0.000575747
0.0399998
0.000575931
0.0399998
0.000576114
0.0399998
0.000576297
0.0399998
0.00057648
0.0399998
0.000576664
0.0399998
0.000576847
0.0399998
0.00057703
0.0399998
0.000577214
0.0399998
0.000577397
0.0399998
0.00057758
0.0399998
0.000577764
0.0399998
0.000577947
0.0399998
0.00057813
0.0399998
0.000578314
0.0399998
0.000578497
0.0399998
0.00057868
0.0399998
0.000578864