/*--------------------------------*- C++ -*----------------------------------*\
| =========                 |                                                 |
| \\      /  F ield         | OpenFOAM: The Open Source CFD Toolbox           |
|  \\    /   O peration     | Version:  2512                                  |
|   \\  /    A nd           | Website:  www.openfoam.com                      |
|    \\/     M anipulation  |                                                 |
\*---------------------------------------------------------------------------*/
FoamFile
{
    version     2.0;
    format      ascii;
    arch        "LSB;label=32;scalar=64";
    class       volVectorField;
    location    "0.006";
    object      U;
}
// * * * * * * * * * * * * * * * * * * * * * * * * * * * * * * * * * * * * * //

dimensions      [0 1 -1 0 0 0 0];

internalField   nonuniform List<vector> 
100000
(
(0.758 0.129202 0)
(0.654505 0.0990864 0)
(0.484824 0.0490937 0)
(0.372766 0.0261542 0)
(0.304706 0.0149988 0)
(0.260909 0.00888253 0)
(0.2313 0.00548342 0)
(0.210577 0.00357789 0)
(0.195589 0.00246786 0)
(0.184406 0.00178775 0)
(0.175834 0.00135024 0)
(0.169103 0.00105624 0)
(0.163707 0.000851006 0)
(0.159297 0.000702951 0)
(0.155631 0.000593036 0)
(0.152535 0.000509297 0)
(0.149884 0.000443958 0)
(0.147588 0.000391835 0)
(0.145577 0.000349402 0)
(0.143801 0.000314224 0)
(0.142219 0.000284594 0)
(0.140801 0.000259297 0)
(0.139524 0.000237453 0)
(0.138367 0.000218411 0)
(0.137315 0.000201681 0)
(0.136355 0.000186885 0)
(0.135476 0.000173727 0)
(0.134668 0.000161967 0)
(0.133924 0.000151412 0)
(0.133237 0.000141902 0)
(0.132601 0.000133304 0)
(0.132012 0.000125506 0)
(0.131464 0.000118412 0)
(0.130953 0.000111942 0)
(0.130477 0.000106027 0)
(0.130032 0.000100606 0)
(0.129616 9.56277e-05 0)
(0.129225 9.10477e-05 0)
(0.128858 8.68264e-05 0)
(0.128513 8.29298e-05 0)
(0.128188 7.93285e-05 0)
(0.127882 7.60004e-05 0)
(0.127592 7.29364e-05 0)
(0.127318 7.01262e-05 0)
(0.127058 6.75512e-05 0)
(0.126811 6.5191e-05 0)
(0.126576 6.30265e-05 0)
(0.126353 6.10402e-05 0)
(0.12614 5.92162e-05 0)
(0.125937 5.75401e-05 0)
(0.125742 5.59989e-05 0)
(0.125556 5.45807e-05 0)
(0.125377 5.32751e-05 0)
(0.125206 5.20723e-05 0)
(0.125041 5.09636e-05 0)
(0.124882 4.9941e-05 0)
(0.124728 4.89975e-05 0)
(0.12458 4.81263e-05 0)
(0.124437 4.73214e-05 0)
(0.124298 4.65775e-05 0)
(0.124163 4.58896e-05 0)
(0.124032 4.52531e-05 0)
(0.123905 4.46642e-05 0)
(0.123781 4.41191e-05 0)
(0.12366 4.36149e-05 0)
(0.123541 4.31488e-05 0)
(0.123426 4.27187e-05 0)
(0.123313 4.23225e-05 0)
(0.123202 4.19586e-05 0)
(0.123093 4.16257e-05 0)
(0.122986 4.13223e-05 0)
(0.122881 4.10469e-05 0)
(0.122778 4.07982e-05 0)
(0.122675 4.05743e-05 0)
(0.122574 4.03735e-05 0)
(0.122474 4.01934e-05 0)
(0.122375 4.0032e-05 0)
(0.122277 3.98868e-05 0)
(0.12218 3.97558e-05 0)
(0.122083 3.96368e-05 0)
(0.121987 3.95279e-05 0)
(0.121892 3.94278e-05 0)
(0.121797 3.93351e-05 0)
(0.121703 3.92489e-05 0)
(0.121609 3.91686e-05 0)
(0.121516 3.90937e-05 0)
(0.121423 3.90238e-05 0)
(0.121331 3.89587e-05 0)
(0.121238 3.88981e-05 0)
(0.121147 3.88418e-05 0)
(0.121055 3.87896e-05 0)
(0.120964 3.87412e-05 0)
(0.120873 3.86965e-05 0)
(0.120783 3.86551e-05 0)
(0.120692 3.86168e-05 0)
(0.120602 3.85813e-05 0)
(0.120512 3.85484e-05 0)
(0.120423 3.85177e-05 0)
(0.120333 3.8489e-05 0)
(0.120244 3.8462e-05 0)
(0.120155 3.84366e-05 0)
(0.120066 3.84124e-05 0)
(0.119978 3.83894e-05 0)
(0.119889 3.83673e-05 0)
(0.119801 3.83462e-05 0)
(0.119713 3.8326e-05 0)
(0.119625 3.8307e-05 0)
(0.119537 3.82893e-05 0)
(0.119449 3.82732e-05 0)
(0.119361 3.82592e-05 0)
(0.119274 3.82478e-05 0)
(0.119186 3.82392e-05 0)
(0.119099 3.82338e-05 0)
(0.119012 3.82318e-05 0)
(0.118924 3.82334e-05 0)
(0.118837 3.82383e-05 0)
(0.11875 3.82463e-05 0)
(0.118662 3.82569e-05 0)
(0.118575 3.82696e-05 0)
(0.118487 3.82839e-05 0)
(0.1184 3.82992e-05 0)
(0.118312 3.83149e-05 0)
(0.118225 3.83308e-05 0)
(0.118137 3.83464e-05 0)
(0.118049 3.83616e-05 0)
(0.117961 3.83762e-05 0)
(0.117873 3.83902e-05 0)
(0.117785 3.84036e-05 0)
(0.117697 3.84163e-05 0)
(0.117609 3.84285e-05 0)
(0.117521 3.84401e-05 0)
(0.117433 3.84512e-05 0)
(0.117345 3.84618e-05 0)
(0.117257 3.8472e-05 0)
(0.117169 3.84817e-05 0)
(0.117081 3.84909e-05 0)
(0.116992 3.84996e-05 0)
(0.116904 3.85079e-05 0)
(0.116816 3.85159e-05 0)
(0.116728 3.85235e-05 0)
(0.116639 3.85308e-05 0)
(0.116551 3.8538e-05 0)
(0.116463 3.85453e-05 0)
(0.116375 3.85527e-05 0)
(0.116286 3.85604e-05 0)
(0.116198 3.85686e-05 0)
(0.11611 3.85774e-05 0)
(0.116022 3.85869e-05 0)
(0.115933 3.85972e-05 0)
(0.115845 3.86083e-05 0)
(0.115757 3.86203e-05 0)
(0.115668 3.8633e-05 0)
(0.11558 3.86464e-05 0)
(0.115492 3.86604e-05 0)
(0.115403 3.86749e-05 0)
(0.115315 3.86897e-05 0)
(0.115226 3.87048e-05 0)
(0.115137 3.87202e-05 0)
(0.115049 3.87356e-05 0)
(0.11496 3.87511e-05 0)
(0.114871 3.87666e-05 0)
(0.114782 3.8782e-05 0)
(0.114694 3.87974e-05 0)
(0.114605 3.88127e-05 0)
(0.114516 3.88279e-05 0)
(0.114427 3.88431e-05 0)
(0.114338 3.88581e-05 0)
(0.114249 3.8873e-05 0)
(0.11416 3.88878e-05 0)
(0.11407 3.89025e-05 0)
(0.113981 3.89171e-05 0)
(0.113892 3.89317e-05 0)
(0.113803 3.89462e-05 0)
(0.113713 3.89607e-05 0)
(0.113624 3.89753e-05 0)
(0.113535 3.89901e-05 0)
(0.113445 3.9005e-05 0)
(0.113356 3.90202e-05 0)
(0.113266 3.90357e-05 0)
(0.113177 3.90516e-05 0)
(0.113087 3.90679e-05 0)
(0.112997 3.90845e-05 0)
(0.112908 3.91016e-05 0)
(0.112818 3.91189e-05 0)
(0.112728 3.91363e-05 0)
(0.112638 3.91539e-05 0)
(0.112548 3.91715e-05 0)
(0.112459 3.91889e-05 0)
(0.112369 3.9206e-05 0)
(0.112278 3.92229e-05 0)
(0.112188 3.92394e-05 0)
(0.112098 3.92555e-05 0)
(0.112008 3.92713e-05 0)
(0.111918 3.92867e-05 0)
(0.111828 3.9302e-05 0)
(0.111737 3.93171e-05 0)
(0.111647 3.93321e-05 0)
(0.111557 3.93471e-05 0)
(0.111466 3.93622e-05 0)
(0.111376 3.93774e-05 0)
(0.111285 3.93929e-05 0)
(0.111195 3.94086e-05 0)
(0.111104 3.94246e-05 0)
(0.111014 3.94409e-05 0)
(0.110923 3.94575e-05 0)
(0.110832 3.94743e-05 0)
(0.110741 3.94915e-05 0)
(0.110651 3.9509e-05 0)
(0.11056 3.95268e-05 0)
(0.110469 3.95449e-05 0)
(0.110378 3.95633e-05 0)
(0.110287 3.95821e-05 0)
(0.110196 3.96011e-05 0)
(0.110105 3.96204e-05 0)
(0.110014 3.96399e-05 0)
(0.109923 3.96596e-05 0)
(0.109831 3.96794e-05 0)
(0.10974 3.96992e-05 0)
(0.109649 3.97191e-05 0)
(0.109557 3.97389e-05 0)
(0.109466 3.97587e-05 0)
(0.109374 3.97785e-05 0)
(0.109282 3.97981e-05 0)
(0.109191 3.98176e-05 0)
(0.109099 3.9837e-05 0)
(0.109007 3.98564e-05 0)
(0.108915 3.98756e-05 0)
(0.108823 3.98948e-05 0)
(0.108731 3.99138e-05 0)
(0.108639 3.99329e-05 0)
(0.108547 3.99519e-05 0)
(0.108455 3.99709e-05 0)
(0.108363 3.99898e-05 0)
(0.108271 4.00088e-05 0)
(0.108178 4.00279e-05 0)
(0.108086 4.0047e-05 0)
(0.107994 4.00663e-05 0)
(0.107901 4.00856e-05 0)
(0.107809 4.01051e-05 0)
(0.107716 4.01246e-05 0)
(0.107624 4.01443e-05 0)
(0.107531 4.01642e-05 0)
(0.107438 4.01841e-05 0)
(0.107345 4.02041e-05 0)
(0.107253 4.02241e-05 0)
(0.10716 4.02442e-05 0)
(0.107067 4.02643e-05 0)
(0.106974 4.02845e-05 0)
(0.106881 4.03047e-05 0)
(0.106788 4.03249e-05 0)
(0.106694 4.03452e-05 0)
(0.106601 4.03655e-05 0)
(0.106508 4.03859e-05 0)
(0.106415 4.04064e-05 0)
(0.106321 4.0427e-05 0)
(0.106228 4.04476e-05 0)
(0.106134 4.04684e-05 0)
(0.106041 4.04893e-05 0)
(0.105947 4.05102e-05 0)
(0.105853 4.05313e-05 0)
(0.10576 4.05524e-05 0)
(0.105666 4.05736e-05 0)
(0.105572 4.05949e-05 0)
(0.105478 4.06164e-05 0)
(0.105384 4.06378e-05 0)
(0.10529 4.06594e-05 0)
(0.105196 4.06811e-05 0)
(0.105102 4.07028e-05 0)
(0.105007 4.07246e-05 0)
(0.104913 4.07465e-05 0)
(0.104819 4.07684e-05 0)
(0.104724 4.07904e-05 0)
(0.10463 4.08124e-05 0)
(0.104535 4.08345e-05 0)
(0.104441 4.08565e-05 0)
(0.104346 4.08787e-05 0)
(0.104251 4.09008e-05 0)
(0.104156 4.0923e-05 0)
(0.104061 4.09452e-05 0)
(0.103967 4.09675e-05 0)
(0.103872 4.09898e-05 0)
(0.103776 4.10123e-05 0)
(0.103681 4.10347e-05 0)
(0.103586 4.10573e-05 0)
(0.103491 4.10799e-05 0)
(0.103396 4.11026e-05 0)
(0.1033 4.11254e-05 0)
(0.103205 4.11483e-05 0)
(0.103109 4.11712e-05 0)
(0.103014 4.11942e-05 0)
(0.102918 4.12173e-05 0)
(0.102822 4.12405e-05 0)
(0.102726 4.12637e-05 0)
(0.102631 4.12869e-05 0)
(0.102535 4.13103e-05 0)
(0.102439 4.13337e-05 0)
(0.102343 4.13571e-05 0)
(0.102246 4.13806e-05 0)
(0.10215 4.14041e-05 0)
(0.102054 4.14277e-05 0)
(0.101958 4.14514e-05 0)
(0.101861 4.14751e-05 0)
(0.101765 4.14989e-05 0)
(0.101668 4.15227e-05 0)
(0.101572 4.15465e-05 0)
(0.101475 4.15704e-05 0)
(0.101378 4.15944e-05 0)
(0.101281 4.16184e-05 0)
(0.101185 4.16425e-05 0)
(0.101088 4.16666e-05 0)
(0.100991 4.16907e-05 0)
(0.100893 4.1715e-05 0)
(0.100796 4.17392e-05 0)
(0.100699 4.17635e-05 0)
(0.100602 4.17879e-05 0)
(0.100504 4.18123e-05 0)
(0.100407 4.18367e-05 0)
(0.100309 4.18612e-05 0)
(0.100212 4.18858e-05 0)
(0.100114 4.19104e-05 0)
(0.100016 4.1935e-05 0)
(0.0999185 4.19597e-05 0)
(0.0998206 4.19844e-05 0)
(0.0997227 4.20092e-05 0)
(0.0996247 4.2034e-05 0)
(0.0995266 4.20589e-05 0)
(0.0994284 4.20838e-05 0)
(0.0993301 4.21088e-05 0)
(0.0992318 4.21338e-05 0)
(0.0991334 4.21588e-05 0)
(0.099035 4.21839e-05 0)
(0.0989364 4.2209e-05 0)
(0.0988378 4.22342e-05 0)
(0.0987391 4.22594e-05 0)
(0.0986404 4.22847e-05 0)
(0.0985415 4.231e-05 0)
(0.0984426 4.23353e-05 0)
(0.0983436 4.23607e-05 0)
(0.0982446 4.23861e-05 0)
(0.0981455 4.24116e-05 0)
(0.0980463 4.24371e-05 0)
(0.097947 4.24627e-05 0)
(0.0978476 4.24883e-05 0)
(0.0977482 4.25139e-05 0)
(0.0976487 4.25396e-05 0)
(0.0975491 4.25653e-05 0)
(0.0974495 4.2591e-05 0)
(0.0973497 4.26168e-05 0)
(0.0972499 4.26426e-05 0)
(0.0971501 4.26685e-05 0)
(0.0970501 4.26944e-05 0)
(0.0969501 4.27204e-05 0)
(0.09685 4.27463e-05 0)
(0.0967498 4.27724e-05 0)
(0.0966495 4.27984e-05 0)
(0.0965492 4.28245e-05 0)
(0.0964488 4.28506e-05 0)
(0.0963483 4.28768e-05 0)
(0.0962477 4.2903e-05 0)
(0.0961471 4.29293e-05 0)
(0.0960464 4.29555e-05 0)
(0.0959456 4.29818e-05 0)
(0.0958447 4.30082e-05 0)
(0.0957438 4.30346e-05 0)
(0.0956428 4.3061e-05 0)
(0.0955417 4.30874e-05 0)
(0.0954405 4.31139e-05 0)
(0.0953392 4.31404e-05 0)
(0.0952379 4.3167e-05 0)
(0.0951365 4.31936e-05 0)
(0.095035 4.32202e-05 0)
(0.0949334 4.32468e-05 0)
(0.0948318 4.32735e-05 0)
(0.0947301 4.33002e-05 0)
(0.0946283 4.3327e-05 0)
(0.0945264 4.33538e-05 0)
(0.0944244 4.33806e-05 0)
(0.0943224 4.34074e-05 0)
(0.0942203 4.34343e-05 0)
(0.0941181 4.34612e-05 0)
(0.0940158 4.34881e-05 0)
(0.0939135 4.35151e-05 0)
(0.0938111 4.35421e-05 0)
(0.0937086 4.35691e-05 0)
(0.093606 4.35962e-05 0)
(0.0935033 4.36232e-05 0)
(0.0934006 4.36504e-05 0)
(0.0932978 4.36775e-05 0)
(0.0931949 4.37047e-05 0)
(0.0930919 4.37319e-05 0)
(0.0929888 4.37591e-05 0)
(0.0928857 4.37863e-05 0)
(0.0927825 4.38136e-05 0)
(0.0926792 4.38409e-05 0)
(0.0925758 4.38682e-05 0)
(0.0924723 4.38956e-05 0)
(0.0923688 4.3923e-05 0)
(0.0922652 4.39504e-05 0)
(0.0921615 4.39778e-05 0)
(0.0920577 4.40053e-05 0)
(0.0919539 4.40328e-05 0)
(0.0918499 4.40603e-05 0)
(0.0917459 4.40878e-05 0)
(0.0916418 4.41153e-05 0)
(0.0915376 4.41429e-05 0)
(0.0914334 4.41705e-05 0)
(0.091329 4.41982e-05 0)
(0.0912246 4.42258e-05 0)
(0.0911201 4.42535e-05 0)
(0.0910155 4.42812e-05 0)
(0.0909109 4.43089e-05 0)
(0.0908061 4.43366e-05 0)
(0.0907013 4.43644e-05 0)
(0.0905964 4.43921e-05 0)
(0.0904914 4.44199e-05 0)
(0.0903863 4.44478e-05 0)
(0.0902812 4.44756e-05 0)
(0.090176 4.45035e-05 0)
(0.0900706 4.45313e-05 0)
(0.0899652 4.45592e-05 0)
(0.0898598 4.45872e-05 0)
(0.0897542 4.46151e-05 0)
(0.0896486 4.4643e-05 0)
(0.0895429 4.4671e-05 0)
(0.0894371 4.4699e-05 0)
(0.0893312 4.4727e-05 0)
(0.0892252 4.4755e-05 0)
(0.0891192 4.47831e-05 0)
(0.089013 4.48111e-05 0)
(0.0889068 4.48392e-05 0)
(0.0888005 4.48673e-05 0)
(0.0886941 4.48954e-05 0)
(0.0885877 4.49235e-05 0)
(0.0884812 4.49517e-05 0)
(0.0883745 4.49798e-05 0)
(0.0882678 4.5008e-05 0)
(0.088161 4.50362e-05 0)
(0.0880542 4.50644e-05 0)
(0.0879472 4.50926e-05 0)
(0.0878402 4.51208e-05 0)
(0.0877331 4.5149e-05 0)
(0.0876259 4.51773e-05 0)
(0.0875186 4.52055e-05 0)
(0.0874112 4.52338e-05 0)
(0.0873038 4.52621e-05 0)
(0.0871962 4.52904e-05 0)
(0.0870886 4.53187e-05 0)
(0.0869809 4.5347e-05 0)
(0.0868732 4.53754e-05 0)
(0.0867653 4.54037e-05 0)
(0.0866574 4.54321e-05 0)
(0.0865493 4.54604e-05 0)
(0.0864412 4.54888e-05 0)
(0.086333 4.55172e-05 0)
(0.0862247 4.55456e-05 0)
(0.0861164 4.5574e-05 0)
(0.0860079 4.56024e-05 0)
(0.0858994 4.56308e-05 0)
(0.0857908 4.56592e-05 0)
(0.0856821 4.56876e-05 0)
(0.0855734 4.57161e-05 0)
(0.0854645 4.57445e-05 0)
(0.0853556 4.5773e-05 0)
(0.0852465 4.58014e-05 0)
(0.0851374 4.58299e-05 0)
(0.0850282 4.58583e-05 0)
(0.084919 4.58868e-05 0)
(0.0848096 4.59153e-05 0)
(0.0847002 4.59438e-05 0)
(0.0845906 4.59723e-05 0)
(0.084481 4.60008e-05 0)
(0.0843713 4.60293e-05 0)
(0.0842616 4.60578e-05 0)
(0.0841517 4.60863e-05 0)
(0.0840418 4.61148e-05 0)
(0.0839318 4.61433e-05 0)
(0.0838217 4.61718e-05 0)
(0.0837115 4.62003e-05 0)
(0.0836012 4.62288e-05 0)
(0.0834908 4.62573e-05 0)
(0.0833804 4.62858e-05 0)
(0.0832699 4.63144e-05 0)
(0.0831593 4.63429e-05 0)
(0.0830486 4.63714e-05 0)
(0.0829378 4.63999e-05 0)
(0.0828269 4.64284e-05 0)
(0.082716 4.6457e-05 0)
(0.082605 4.64855e-05 0)
(0.0824939 4.6514e-05 0)
(0.0823827 4.65425e-05 0)
(0.0822714 4.6571e-05 0)
(0.08216 4.65996e-05 0)
(0.0820486 4.66281e-05 0)
(0.0819371 4.66566e-05 0)
(0.0818255 4.66851e-05 0)
(0.0817138 4.67136e-05 0)
(0.081602 4.67421e-05 0)
(0.0814902 4.67706e-05 0)
(0.0813782 4.67991e-05 0)
(0.0812662 4.68275e-05 0)
(0.0811541 4.6856e-05 0)
(0.0810419 4.68845e-05 0)
(0.0809296 4.6913e-05 0)
(0.0808173 4.69414e-05 0)
(0.0807048 4.69699e-05 0)
(0.0805923 4.69983e-05 0)
(0.0804797 4.70268e-05 0)
(0.080367 4.70552e-05 0)
(0.0802542 4.70837e-05 0)
(0.0801414 4.71121e-05 0)
(0.0800284 4.71405e-05 0)
(0.0799154 4.71689e-05 0)
(0.0798023 4.71973e-05 0)
(0.0796891 4.72257e-05 0)
(0.0795758 4.72541e-05 0)
(0.0794625 4.72824e-05 0)
(0.079349 4.73108e-05 0)
(0.0792355 4.73392e-05 0)
(0.0791219 4.73675e-05 0)
(0.0790082 4.73958e-05 0)
(0.0788944 4.74242e-05 0)
(0.0787806 4.74525e-05 0)
(0.0786667 4.74808e-05 0)
(0.0785526 4.75091e-05 0)
(0.0784385 4.75373e-05 0)
(0.0783243 4.75656e-05 0)
(0.0782101 4.75939e-05 0)
(0.0780957 4.76221e-05 0)
(0.0779813 4.76503e-05 0)
(0.0778668 4.76785e-05 0)
(0.0777522 4.77067e-05 0)
(0.0776375 4.77349e-05 0)
(0.0775227 4.77631e-05 0)
(0.0774079 4.77912e-05 0)
(0.077293 4.78194e-05 0)
(0.077178 4.78475e-05 0)
(0.0770629 4.78756e-05 0)
(0.0769477 4.79037e-05 0)
(0.0768324 4.79318e-05 0)
(0.0767171 4.79599e-05 0)
(0.0766017 4.79879e-05 0)
(0.0764862 4.80159e-05 0)
(0.0763706 4.80439e-05 0)
(0.0762549 4.80719e-05 0)
(0.0761392 4.80999e-05 0)
(0.0760233 4.81279e-05 0)
(0.0759074 4.81558e-05 0)
(0.0757914 4.81837e-05 0)
(0.0756754 4.82116e-05 0)
(0.0755592 4.82395e-05 0)
(0.075443 4.82674e-05 0)
(0.0753266 4.82952e-05 0)
(0.0752102 4.8323e-05 0)
(0.0750937 4.83508e-05 0)
(0.0749772 4.83786e-05 0)
(0.0748605 4.84064e-05 0)
(0.0747438 4.84341e-05 0)
(0.074627 4.84618e-05 0)
(0.0745101 4.84895e-05 0)
(0.0743931 4.85172e-05 0)
(0.0742761 4.85449e-05 0)
(0.0741589 4.85725e-05 0)
(0.0740417 4.86001e-05 0)
(0.0739244 4.86277e-05 0)
(0.0738071 4.86552e-05 0)
(0.0736896 4.86828e-05 0)
(0.0735721 4.87103e-05 0)
(0.0734544 4.87377e-05 0)
(0.0733367 4.87652e-05 0)
(0.073219 4.87926e-05 0)
(0.0731011 4.882e-05 0)
(0.0729832 4.88474e-05 0)
(0.0728652 4.88748e-05 0)
(0.0727471 4.89021e-05 0)
(0.0726289 4.89294e-05 0)
(0.0725106 4.89567e-05 0)
(0.0723923 4.89839e-05 0)
(0.0722739 4.90112e-05 0)
(0.0721554 4.90384e-05 0)
(0.0720368 4.90655e-05 0)
(0.0719181 4.90927e-05 0)
(0.0717994 4.91198e-05 0)
(0.0716806 4.91469e-05 0)
(0.0715617 4.91739e-05 0)
(0.0714427 4.92009e-05 0)
(0.0713236 4.92279e-05 0)
(0.0712045 4.92549e-05 0)
(0.0710853 4.92818e-05 0)
(0.070966 4.93087e-05 0)
(0.0708466 4.93356e-05 0)
(0.0707272 4.93624e-05 0)
(0.0706077 4.93892e-05 0)
(0.0704881 4.9416e-05 0)
(0.0703684 4.94428e-05 0)
(0.0702486 4.94695e-05 0)
(0.0701288 4.94961e-05 0)
(0.0700089 4.95228e-05 0)
(0.0698889 4.95494e-05 0)
(0.0697688 4.9576e-05 0)
(0.0696486 4.96025e-05 0)
(0.0695284 4.9629e-05 0)
(0.0694081 4.96555e-05 0)
(0.0692877 4.9682e-05 0)
(0.0691672 4.97084e-05 0)
(0.0690467 4.97347e-05 0)
(0.0689261 4.97611e-05 0)
(0.0688054 4.97874e-05 0)
(0.0686846 4.98136e-05 0)
(0.0685638 4.98399e-05 0)
(0.0684429 4.98661e-05 0)
(0.0683219 4.98922e-05 0)
(0.0682008 4.99183e-05 0)
(0.0680796 4.99444e-05 0)
(0.0679584 4.99705e-05 0)
(0.0678371 4.99965e-05 0)
(0.0677157 5.00224e-05 0)
(0.0675942 5.00484e-05 0)
(0.0674727 5.00743e-05 0)
(0.0673511 5.01001e-05 0)
(0.0672294 5.01259e-05 0)
(0.0671076 5.01517e-05 0)
(0.0669858 5.01774e-05 0)
(0.0668639 5.02031e-05 0)
(0.0667419 5.02288e-05 0)
(0.0666198 5.02544e-05 0)
(0.0664977 5.028e-05 0)
(0.0663755 5.03055e-05 0)
(0.0662532 5.0331e-05 0)
(0.0661308 5.03564e-05 0)
(0.0660084 5.03818e-05 0)
(0.0658859 5.04072e-05 0)
(0.0657633 5.04325e-05 0)
(0.0656407 5.04578e-05 0)
(0.0655179 5.0483e-05 0)
(0.0653951 5.05082e-05 0)
(0.0652722 5.05334e-05 0)
(0.0651493 5.05585e-05 0)
(0.0650262 5.05835e-05 0)
(0.0649031 5.06085e-05 0)
(0.06478 5.06335e-05 0)
(0.0646567 5.06584e-05 0)
(0.0645334 5.06833e-05 0)
(0.06441 5.07081e-05 0)
(0.0642865 5.07329e-05 0)
(0.064163 5.07577e-05 0)
(0.0640394 5.07824e-05 0)
(0.0639157 5.0807e-05 0)
(0.063792 5.08316e-05 0)
(0.0636681 5.08562e-05 0)
(0.0635442 5.08807e-05 0)
(0.0634203 5.09051e-05 0)
(0.0632962 5.09296e-05 0)
(0.0631721 5.09539e-05 0)
(0.0630479 5.09782e-05 0)
(0.0629237 5.10025e-05 0)
(0.0627993 5.10267e-05 0)
(0.0626749 5.10509e-05 0)
(0.0625505 5.1075e-05 0)
(0.0624259 5.10991e-05 0)
(0.0623013 5.11231e-05 0)
(0.0621766 5.11471e-05 0)
(0.0620519 5.1171e-05 0)
(0.0619271 5.11949e-05 0)
(0.0618022 5.12187e-05 0)
(0.0616772 5.12424e-05 0)
(0.0615522 5.12662e-05 0)
(0.0614271 5.12898e-05 0)
(0.0613019 5.13134e-05 0)
(0.0611767 5.1337e-05 0)
(0.0610514 5.13605e-05 0)
(0.060926 5.1384e-05 0)
(0.0608005 5.14074e-05 0)
(0.060675 5.14307e-05 0)
(0.0605494 5.1454e-05 0)
(0.0604238 5.14773e-05 0)
(0.0602981 5.15004e-05 0)
(0.0601723 5.15236e-05 0)
(0.0600464 5.15467e-05 0)
(0.0599205 5.15697e-05 0)
(0.0597945 5.15926e-05 0)
(0.0596685 5.16156e-05 0)
(0.0595424 5.16384e-05 0)
(0.0594162 5.16612e-05 0)
(0.0592899 5.1684e-05 0)
(0.0591636 5.17067e-05 0)
(0.0590372 5.17293e-05 0)
(0.0589107 5.17519e-05 0)
(0.0587842 5.17744e-05 0)
(0.0586576 5.17969e-05 0)
(0.058531 5.18193e-05 0)
(0.0584043 5.18416e-05 0)
(0.0582775 5.18639e-05 0)
(0.0581506 5.18861e-05 0)
(0.0580237 5.19083e-05 0)
(0.0578967 5.19304e-05 0)
(0.0577697 5.19525e-05 0)
(0.0576426 5.19745e-05 0)
(0.0575154 5.19964e-05 0)
(0.0573882 5.20183e-05 0)
(0.0572609 5.20401e-05 0)
(0.0571335 5.20619e-05 0)
(0.0570061 5.20836e-05 0)
(0.0568786 5.21052e-05 0)
(0.056751 5.21268e-05 0)
(0.0566234 5.21483e-05 0)
(0.0564957 5.21698e-05 0)
(0.056368 5.21912e-05 0)
(0.0562402 5.22125e-05 0)
(0.0561123 5.22338e-05 0)
(0.0559844 5.2255e-05 0)
(0.0558564 5.22761e-05 0)
(0.0557283 5.22972e-05 0)
(0.0556002 5.23182e-05 0)
(0.055472 5.23392e-05 0)
(0.0553438 5.23601e-05 0)
(0.0552155 5.23809e-05 0)
(0.0550871 5.24017e-05 0)
(0.0549587 5.24224e-05 0)
(0.0548302 5.2443e-05 0)
(0.0547017 5.24636e-05 0)
(0.0545731 5.24841e-05 0)
(0.0544444 5.25046e-05 0)
(0.0543157 5.25249e-05 0)
(0.0541869 5.25453e-05 0)
(0.0540581 5.25655e-05 0)
(0.0539292 5.25857e-05 0)
(0.0538002 5.26058e-05 0)
(0.0536712 5.26259e-05 0)
(0.0535421 5.26459e-05 0)
(0.053413 5.26658e-05 0)
(0.0532838 5.26856e-05 0)
(0.0531545 5.27054e-05 0)
(0.0530252 5.27251e-05 0)
(0.0528958 5.27448e-05 0)
(0.0527664 5.27644e-05 0)
(0.0526369 5.27839e-05 0)
(0.0525074 5.28033e-05 0)
(0.0523778 5.28227e-05 0)
(0.0522481 5.2842e-05 0)
(0.0521184 5.28613e-05 0)
(0.0519887 5.28804e-05 0)
(0.0518588 5.28995e-05 0)
(0.051729 5.29186e-05 0)
(0.051599 5.29375e-05 0)
(0.051469 5.29564e-05 0)
(0.051339 5.29753e-05 0)
(0.0512089 5.2994e-05 0)
(0.0510787 5.30127e-05 0)
(0.0509485 5.30313e-05 0)
(0.0508183 5.30499e-05 0)
(0.0506879 5.30683e-05 0)
(0.0505576 5.30867e-05 0)
(0.0504271 5.31051e-05 0)
(0.0502967 5.31233e-05 0)
(0.0501661 5.31415e-05 0)
(0.0500355 5.31596e-05 0)
(0.0499049 5.31777e-05 0)
(0.0497742 5.31957e-05 0)
(0.0496435 5.32136e-05 0)
(0.0495127 5.32314e-05 0)
(0.0493818 5.32491e-05 0)
(0.0492509 5.32668e-05 0)
(0.04912 5.32844e-05 0)
(0.048989 5.33019e-05 0)
(0.0488579 5.33194e-05 0)
(0.0487268 5.33368e-05 0)
(0.0485956 5.33541e-05 0)
(0.0484644 5.33713e-05 0)
(0.0483332 5.33885e-05 0)
(0.0482019 5.34056e-05 0)
(0.0480705 5.34226e-05 0)
(0.0479391 5.34395e-05 0)
(0.0478076 5.34564e-05 0)
(0.0476761 5.34732e-05 0)
(0.0475446 5.34899e-05 0)
(0.047413 5.35065e-05 0)
(0.0472813 5.35231e-05 0)
(0.0471496 5.35396e-05 0)
(0.0470179 5.3556e-05 0)
(0.0468861 5.35723e-05 0)
(0.0467542 5.35885e-05 0)
(0.0466223 5.36047e-05 0)
(0.0464904 5.36208e-05 0)
(0.0463584 5.36368e-05 0)
(0.0462264 5.36528e-05 0)
(0.0460943 5.36687e-05 0)
(0.0459622 5.36844e-05 0)
(0.04583 5.37002e-05 0)
(0.0456978 5.37158e-05 0)
(0.0455655 5.37313e-05 0)
(0.0454332 5.37468e-05 0)
(0.0453008 5.37622e-05 0)
(0.0451684 5.37775e-05 0)
(0.045036 5.37928e-05 0)
(0.0449035 5.38079e-05 0)
(0.044771 5.3823e-05 0)
(0.0446384 5.3838e-05 0)
(0.0445058 5.38529e-05 0)
(0.0443731 5.38678e-05 0)
(0.0442404 5.38825e-05 0)
(0.0441076 5.38972e-05 0)
(0.0439749 5.39118e-05 0)
(0.043842 5.39263e-05 0)
(0.0437091 5.39408e-05 0)
(0.0435762 5.39551e-05 0)
(0.0434433 5.39694e-05 0)
(0.0433102 5.39836e-05 0)
(0.0431772 5.39977e-05 0)
(0.0430441 5.40117e-05 0)
(0.042911 5.40257e-05 0)
(0.0427778 5.40395e-05 0)
(0.0426446 5.40533e-05 0)
(0.0425114 5.4067e-05 0)
(0.0423781 5.40807e-05 0)
(0.0422447 5.40942e-05 0)
(0.0421114 5.41077e-05 0)
(0.041978 5.4121e-05 0)
(0.0418445 5.41343e-05 0)
(0.041711 5.41475e-05 0)
(0.0415775 5.41607e-05 0)
(0.0414439 5.41737e-05 0)
(0.0413103 5.41867e-05 0)
(0.0411767 5.41995e-05 0)
(0.041043 5.42123e-05 0)
(0.0409093 5.4225e-05 0)
(0.0407756 5.42376e-05 0)
(0.0406418 5.42502e-05 0)
(0.040508 5.42626e-05 0)
(0.0403741 5.4275e-05 0)
(0.0402402 5.42873e-05 0)
(0.0401063 5.42995e-05 0)
(0.0399723 5.43116e-05 0)
(0.0398383 5.43236e-05 0)
(0.0397043 5.43356e-05 0)
(0.0395702 5.43474e-05 0)
(0.0394361 5.43592e-05 0)
(0.0393019 5.43709e-05 0)
(0.0391678 5.43825e-05 0)
(0.0390336 5.4394e-05 0)
(0.0388993 5.44055e-05 0)
(0.038765 5.44168e-05 0)
(0.0386307 5.44281e-05 0)
(0.0384964 5.44393e-05 0)
(0.038362 5.44504e-05 0)
(0.0382276 5.44614e-05 0)
(0.0380932 5.44723e-05 0)
(0.0379587 5.44831e-05 0)
(0.0378242 5.44939e-05 0)
(0.0376897 5.45045e-05 0)
(0.0375551 5.45151e-05 0)
(0.0374205 5.45256e-05 0)
(0.0372859 5.4536e-05 0)
(0.0371512 5.45463e-05 0)
(0.0370165 5.45565e-05 0)
(0.0368818 5.45667e-05 0)
(0.0367471 5.45767e-05 0)
(0.0366123 5.45867e-05 0)
(0.0364775 5.45966e-05 0)
(0.0363427 5.46064e-05 0)
(0.0362078 5.46161e-05 0)
(0.0360729 5.46257e-05 0)
(0.035938 5.46352e-05 0)
(0.0358031 5.46447e-05 0)
(0.0356681 5.46541e-05 0)
(0.0355331 5.46633e-05 0)
(0.0353981 5.46725e-05 0)
(0.035263 5.46816e-05 0)
(0.0351279 5.46907e-05 0)
(0.0349928 5.46996e-05 0)
(0.0348577 5.47084e-05 0)
(0.0347225 5.47172e-05 0)
(0.0345874 5.47259e-05 0)
(0.0344521 5.47345e-05 0)
(0.0343169 5.4743e-05 0)
(0.0341817 5.47514e-05 0)
(0.0340464 5.47598e-05 0)
(0.0339111 5.4768e-05 0)
(0.0337757 5.47762e-05 0)
(0.0336404 5.47843e-05 0)
(0.033505 5.47923e-05 0)
(0.0333696 5.48003e-05 0)
(0.0332342 5.48081e-05 0)
(0.0330987 5.48159e-05 0)
(0.0329633 5.48236e-05 0)
(0.0328278 5.48312e-05 0)
(0.0326923 5.48388e-05 0)
(0.0325567 5.48462e-05 0)
(0.0324212 5.48536e-05 0)
(0.0322856 5.48609e-05 0)
(0.03215 5.48681e-05 0)
(0.0320144 5.48753e-05 0)
(0.0318787 5.48824e-05 0)
(0.0317431 5.48894e-05 0)
(0.0316074 5.48964e-05 0)
(0.0314717 5.49032e-05 0)
(0.031336 5.49101e-05 0)
(0.0312002 5.49168e-05 0)
(0.0310645 5.49235e-05 0)
(0.0309287 5.49301e-05 0)
(0.0307929 5.49367e-05 0)
(0.0306571 5.49432e-05 0)
(0.0305212 5.49497e-05 0)
(0.0303854 5.49561e-05 0)
(0.0302495 5.49624e-05 0)
(0.0301136 5.49687e-05 0)
(0.0299777 5.4975e-05 0)
(0.0298418 5.49812e-05 0)
(0.0297058 5.49874e-05 0)
(0.0295699 5.49935e-05 0)
(0.0294339 5.49996e-05 0)
(0.0292979 5.50057e-05 0)
(0.0291619 5.50118e-05 0)
(0.0290258 5.50179e-05 0)
(0.0288898 5.50239e-05 0)
(0.0287537 5.50299e-05 0)
(0.0286176 5.5036e-05 0)
(0.0284815 5.5042e-05 0)
(0.0283454 5.5048e-05 0)
(0.0282093 5.50541e-05 0)
(0.0280731 5.50602e-05 0)
(0.027937 5.50663e-05 0)
(0.0278008 5.50724e-05 0)
(0.0276646 5.50786e-05 0)
(0.0275284 5.50849e-05 0)
(0.0273921 5.50912e-05 0)
(0.0272559 5.50976e-05 0)
(0.0271196 5.5104e-05 0)
(0.0269833 5.51106e-05 0)
(0.026847 5.51173e-05 0)
(0.0267107 5.51241e-05 0)
(0.0265744 5.5131e-05 0)
(0.026438 5.51381e-05 0)
(0.0263016 5.51453e-05 0)
(0.0261653 5.51527e-05 0)
(0.0260288 5.51603e-05 0)
(0.0258924 5.51682e-05 0)
(0.025756 5.51762e-05 0)
(0.0256195 5.51845e-05 0)
(0.025483 5.51931e-05 0)
(0.0253465 5.5202e-05 0)
(0.02521 5.52112e-05 0)
(0.0250735 5.52207e-05 0)
(0.0249369 5.52306e-05 0)
(0.0248003 5.52409e-05 0)
(0.0246637 5.52516e-05 0)
(0.0245271 5.52628e-05 0)
(0.0243904 5.52744e-05 0)
(0.0242538 5.52866e-05 0)
(0.0241171 5.52994e-05 0)
(0.0239804 5.53127e-05 0)
(0.0238436 5.53267e-05 0)
(0.0237069 5.53413e-05 0)
(0.0235701 5.53567e-05 0)
(0.0234333 5.53729e-05 0)
(0.0232965 5.53899e-05 0)
(0.0231596 5.54077e-05 0)
(0.0230227 5.54265e-05 0)
(0.0228859 5.54463e-05 0)
(0.0227489 5.54672e-05 0)
(0.022612 5.54892e-05 0)
(0.022475 5.55124e-05 0)
(0.022338 5.5537e-05 0)
(0.022201 5.55628e-05 0)
(0.022064 5.55902e-05 0)
(0.021927 5.5619e-05 0)
(0.0217899 5.56495e-05 0)
(0.0216529 5.56816e-05 0)
(0.0215158 5.57155e-05 0)
(0.0213787 5.57513e-05 0)
(0.0212416 5.57889e-05 0)
(0.0211045 5.58286e-05 0)
(0.0209675 5.58703e-05 0)
(0.0208304 5.59141e-05 0)
(0.0206934 5.59601e-05 0)
(0.0205564 5.60082e-05 0)
(0.0204195 5.60586e-05 0)
(0.0202827 5.61111e-05 0)
(0.0201459 5.61657e-05 0)
(0.0200093 5.62225e-05 0)
(0.0198728 5.62814e-05 0)
(0.0197366 5.63423e-05 0)
(0.0196005 5.64052e-05 0)
(0.0194647 5.64697e-05 0)
(0.0193293 5.65352e-05 0)
(0.0191942 5.66004e-05 0)
(0.0190598 5.66625e-05 0)
(0.018926 5.67161e-05 0)
(0.0187931 5.67516e-05 0)
(0.0186615 5.67523e-05 0)
(0.0185316 5.66909e-05 0)
(0.0184041 5.65246e-05 0)
(0.0182801 5.61882e-05 0)
(0.018161 5.55866e-05 0)
(0.018049 5.45806e-05 0)
(0.017947 5.29518e-05 0)
(0.0178588 5.03725e-05 0)
(0.0177887 4.66745e-05 0)
(0.0177435 4.23321e-05 0)
(0.0177429 3.50457e-05 0)
(0.0177958 1.44566e-05 0)
(0.999846 0.264981 0)
(0.980868 0.288505 0)
(0.870813 0.210531 0)
(0.758501 0.143456 0)
(0.666878 0.0970733 0)
(0.595784 0.066601 0)
(0.541295 0.0468321 0)
(0.49957 0.0338785 0)
(0.46741 0.0251987 0)
(0.442352 0.0192291 0)
(0.422575 0.0150191 0)
(0.406751 0.011982 0)
(0.39391 0.00974662 0)
(0.383343 0.00807091 0)
(0.374528 0.00679304 0)
(0.367079 0.00580221 0)
(0.360707 0.00502125 0)
(0.355196 0.00439574 0)
(0.350384 0.00388686 0)
(0.346146 0.00346675 0)
(0.342385 0.0031152 0)
(0.339025 0.00281742 0)
(0.336007 0.00256245 0)
(0.333282 0.00234209 0)
(0.330811 0.00215009 0)
(0.328562 0.0019816 0)
(0.326509 0.00183285 0)
(0.324627 0.00170082 0)
(0.322899 0.00158307 0)
(0.321307 0.00147762 0)
(0.319838 0.00138283 0)
(0.318479 0.00129734 0)
(0.31722 0.00122001 0)
(0.31605 0.00114987 0)
(0.314962 0.00108609 0)
(0.313948 0.00102797 0)
(0.313001 0.000974913 0)
(0.312117 0.000926387 0)
(0.311289 0.000881936 0)
(0.310512 0.000841163 0)
(0.309783 0.000803719 0)
(0.309098 0.000769297 0)
(0.308452 0.000737636 0)
(0.307844 0.000708499 0)
(0.307269 0.000681667 0)
(0.306725 0.00065694 0)
(0.306211 0.000634137 0)
(0.305723 0.000613094 0)
(0.30526 0.000593663 0)
(0.304819 0.000575709 0)
(0.304399 0.00055911 0)
(0.303999 0.000543755 0)
(0.303617 0.000529544 0)
(0.303252 0.000516386 0)
(0.302902 0.000504197 0)
(0.302566 0.000492903 0)
(0.302244 0.000482432 0)
(0.301934 0.000472722 0)
(0.301636 0.000463716 0)
(0.301348 0.00045536 0)
(0.30107 0.000447606 0)
(0.300801 0.000440412 0)
(0.30054 0.000433738 0)
(0.300288 0.00042755 0)
(0.300043 0.000421818 0)
(0.299804 0.000416516 0)
(0.299572 0.00041162 0)
(0.299345 0.000407112 0)
(0.299124 0.000402973 0)
(0.298908 0.000399189 0)
(0.298696 0.000395742 0)
(0.298488 0.000392616 0)
(0.298284 0.000389794 0)
(0.298082 0.000387254 0)
(0.297884 0.000384976 0)
(0.297689 0.000382935 0)
(0.297495 0.000381105 0)
(0.297304 0.00037946 0)
(0.297115 0.000377976 0)
(0.296928 0.000376629 0)
(0.296742 0.000375397 0)
(0.296557 0.000374263 0)
(0.296374 0.000373212 0)
(0.296192 0.000372232 0)
(0.296011 0.000371313 0)
(0.295831 0.000370451 0)
(0.295652 0.000369639 0)
(0.295474 0.000368873 0)
(0.295297 0.000368151 0)
(0.295121 0.00036747 0)
(0.294945 0.000366828 0)
(0.294771 0.000366222 0)
(0.294597 0.00036565 0)
(0.294424 0.000365108 0)
(0.294251 0.000364596 0)
(0.294079 0.00036411 0)
(0.293907 0.000363647 0)
(0.293737 0.000363206 0)
(0.293566 0.000362784 0)
(0.293396 0.000362379 0)
(0.293227 0.000361989 0)
(0.293058 0.000361612 0)
(0.29289 0.000361248 0)
(0.292722 0.000360897 0)
(0.292554 0.000360557 0)
(0.292387 0.000360232 0)
(0.29222 0.000359922 0)
(0.292054 0.00035963 0)
(0.291888 0.00035936 0)
(0.291722 0.000359117 0)
(0.291556 0.000358904 0)
(0.291391 0.000358724 0)
(0.291226 0.000358582 0)
(0.291061 0.000358478 0)
(0.290896 0.000358412 0)
(0.290732 0.000358382 0)
(0.290567 0.000358385 0)
(0.290402 0.000358417 0)
(0.290237 0.000358471 0)
(0.290072 0.000358542 0)
(0.289907 0.000358624 0)
(0.289742 0.00035871 0)
(0.289577 0.000358797 0)
(0.289411 0.00035888 0)
(0.289246 0.000358957 0)
(0.289081 0.000359025 0)
(0.288915 0.000359085 0)
(0.288749 0.000359136 0)
(0.288583 0.000359176 0)
(0.288418 0.000359208 0)
(0.288252 0.00035923 0)
(0.288086 0.000359244 0)
(0.28792 0.000359249 0)
(0.287754 0.000359246 0)
(0.287589 0.000359236 0)
(0.287423 0.000359219 0)
(0.287257 0.000359194 0)
(0.287091 0.000359164 0)
(0.286925 0.000359128 0)
(0.28676 0.000359088 0)
(0.286594 0.000359045 0)
(0.286429 0.000358999 0)
(0.286263 0.000358954 0)
(0.286098 0.000358911 0)
(0.285932 0.000358871 0)
(0.285767 0.000358836 0)
(0.285601 0.000358807 0)
(0.285436 0.000358786 0)