/*--------------------------------*- C++ -*----------------------------------*\
| =========                 |                                                 |
| \\      /  F ield         | OpenFOAM: The Open Source CFD Toolbox           |
|  \\    /   O peration     | Version:  2512                                  |
|   \\  /    A nd           | Website:  www.openfoam.com                      |
|    \\/     M anipulation  |                                                 |
\*---------------------------------------------------------------------------*/
FoamFile
{
    version     2.0;
    format      ascii;
    arch        "LSB;label=32;scalar=64";
    class       volScalarField;
    location    "0.006";
    object      Ux;
}
// * * * * * * * * * * * * * * * * * * * * * * * * * * * * * * * * * * * * * //

dimensions      [0 1 -1 0 0 0 0];

internalField   nonuniform List<scalar> 
100000
(
0.758
0.654505
0.484824
0.372766
0.304706
0.260909
0.2313
0.210577
0.195589
0.184406
0.175834
0.169103
0.163707
0.159297
0.155631
0.152535
0.149884
0.147588
0.145577
0.143801
0.142219
0.140801
0.139524
0.138367
0.137315
0.136355
0.135476
0.134668
0.133924
0.133237
0.132601
0.132012
0.131464
0.130953
0.130477
0.130032
0.129616
0.129225
0.128858
0.128513
0.128188
0.127882
0.127592
0.127318
0.127058
0.126811
0.126576
0.126353
0.12614
0.125937
0.125742
0.125556
0.125377
0.125206
0.125041
0.124882
0.124728
0.12458
0.124437
0.124298
0.124163
0.124032
0.123905
0.123781
0.12366
0.123541
0.123426
0.123313
0.123202
0.123093
0.122986
0.122881
0.122778
0.122675
0.122574
0.122474
0.122375
0.122277
0.12218
0.122083
0.121987
0.121892
0.121797
0.121703
0.121609
0.121516
0.121423
0.121331
0.121238
0.121147
0.121055
0.120964
0.120873
0.120783
0.120692
0.120602
0.120512
0.120423
0.120333
0.120244
0.120155
0.120066
0.119978
0.119889
0.119801
0.119713
0.119625
0.119537
0.119449
0.119361
0.119274
0.119186
0.119099
0.119012
0.118924
0.118837
0.11875
0.118662
0.118575
0.118487
0.1184
0.118312
0.118225
0.118137
0.118049
0.117961
0.117873
0.117785
0.117697
0.117609
0.117521
0.117433
0.117345
0.117257
0.117169
0.117081
0.116992
0.116904
0.116816
0.116728
0.116639
0.116551
0.116463
0.116375
0.116286
0.116198
0.11611
0.116022
0.115933
0.115845
0.115757
0.115668
0.11558
0.115492
0.115403
0.115315
0.115226
0.115137
0.115049
0.11496
0.114871
0.114782
0.114694
0.114605
0.114516
0.114427
0.114338
0.114249
0.11416
0.11407
0.113981
0.113892
0.113803
0.113713
0.113624
0.113535
0.113445
0.113356
0.113266
0.113177
0.113087
0.112997
0.112908
0.112818
0.112728
0.112638
0.112548
0.112459
0.112369
0.112278
0.112188
0.112098
0.112008
0.111918
0.111828
0.111737
0.111647
0.111557
0.111466
0.111376
0.111285
0.111195
0.111104
0.111014
0.110923
0.110832
0.110741
0.110651
0.11056
0.110469
0.110378
0.110287
0.110196
0.110105
0.110014
0.109923
0.109831
0.10974
0.109649
0.109557
0.109466
0.109374
0.109282
0.109191
0.109099
0.109007
0.108915
0.108823
0.108731
0.108639
0.108547
0.108455
0.108363
0.108271
0.108178
0.108086
0.107994
0.107901
0.107809
0.107716
0.107624
0.107531
0.107438
0.107345
0.107253
0.10716
0.107067
0.106974
0.106881
0.106788
0.106694
0.106601
0.106508
0.106415
0.106321
0.106228
0.106134
0.106041
0.105947
0.105853
0.10576
0.105666
0.105572
0.105478
0.105384
0.10529
0.105196
0.105102
0.105007
0.104913
0.104819
0.104724
0.10463
0.104535
0.104441
0.104346
0.104251
0.104156
0.104061
0.103967
0.103872
0.103776
0.103681
0.103586
0.103491
0.103396
0.1033
0.103205
0.103109
0.103014
0.102918
0.102822
0.102726
0.102631
0.102535
0.102439
0.102343
0.102246
0.10215
0.102054
0.101958
0.101861
0.101765
0.101668
0.101572
0.101475
0.101378
0.101281
0.101185
0.101088
0.100991
0.100893
0.100796
0.100699
0.100602
0.100504
0.100407
0.100309
0.100212
0.100114
0.100016
0.0999185
0.0998206
0.0997227
0.0996247
0.0995266
0.0994284
0.0993301
0.0992318
0.0991334
0.099035
0.0989364
0.0988378
0.0987391
0.0986404
0.0985415
0.0984426
0.0983436
0.0982446
0.0981455
0.0980463
0.097947
0.0978476
0.0977482
0.0976487
0.0975491
0.0974495
0.0973497
0.0972499
0.0971501
0.0970501
0.0969501
0.09685
0.0967498
0.0966495
0.0965492
0.0964488
0.0963483
0.0962477
0.0961471
0.0960464
0.0959456
0.0958447
0.0957438
0.0956428
0.0955417
0.0954405
0.0953392
0.0952379
0.0951365
0.095035
0.0949334
0.0948318
0.0947301
0.0946283
0.0945264
0.0944244
0.0943224
0.0942203
0.0941181
0.0940158
0.0939135
0.0938111
0.0937086
0.093606
0.0935033
0.0934006
0.0932978
0.0931949
0.0930919
0.0929888
0.0928857
0.0927825
0.0926792
0.0925758
0.0924723
0.0923688
0.0922652
0.0921615
0.0920577
0.0919539
0.0918499
0.0917459
0.0916418
0.0915376
0.0914334
0.091329
0.0912246
0.0911201
0.0910155
0.0909109
0.0908061
0.0907013
0.0905964
0.0904914
0.0903863
0.0902812
0.090176
0.0900706
0.0899652
0.0898598
0.0897542
0.0896486
0.0895429
0.0894371
0.0893312
0.0892252
0.0891192
0.089013
0.0889068
0.0888005
0.0886941
0.0885877
0.0884812
0.0883745
0.0882678
0.088161
0.0880542
0.0879472
0.0878402
0.0877331
0.0876259
0.0875186
0.0874112
0.0873038
0.0871962
0.0870886
0.0869809
0.0868732
0.0867653
0.0866574
0.0865493
0.0864412
0.086333
0.0862247
0.0861164
0.0860079
0.0858994
0.0857908
0.0856821
0.0855734
0.0854645
0.0853556
0.0852465
0.0851374
0.0850282
0.084919
0.0848096
0.0847002
0.0845906
0.084481
0.0843713
0.0842616
0.0841517
0.0840418
0.0839318
0.0838217
0.0837115
0.0836012
0.0834908
0.0833804
0.0832699
0.0831593
0.0830486
0.0829378
0.0828269
0.082716
0.082605
0.0824939
0.0823827
0.0822714
0.08216
0.0820486
0.0819371
0.0818255
0.0817138
0.081602
0.0814902
0.0813782
0.0812662
0.0811541
0.0810419
0.0809296
0.0808173
0.0807048
0.0805923
0.0804797
0.080367
0.0802542
0.0801414
0.0800284
0.0799154
0.0798023
0.0796891
0.0795758
0.0794625
0.079349
0.0792355
0.0791219
0.0790082
0.0788944
0.0787806
0.0786667
0.0785526
0.0784385
0.0783243
0.0782101
0.0780957
0.0779813
0.0778668
0.0777522
0.0776375
0.0775227
0.0774079
0.077293
0.077178
0.0770629
0.0769477
0.0768324
0.0767171
0.0766017
0.0764862
0.0763706
0.0762549
0.0761392
0.0760233
0.0759074
0.0757914
0.0756754
0.0755592
0.075443
0.0753266
0.0752102
0.0750937
0.0749772
0.0748605
0.0747438
0.074627
0.0745101
0.0743931
0.0742761
0.0741589
0.0740417
0.0739244
0.0738071
0.0736896
0.0735721
0.0734544
0.0733367
0.073219
0.0731011
0.0729832
0.0728652
0.0727471
0.0726289
0.0725106
0.0723923
0.0722739
0.0721554
0.0720368
0.0719181
0.0717994
0.0716806
0.0715617
0.0714427
0.0713236
0.0712045
0.0710853
0.070966
0.0708466
0.0707272
0.0706077
0.0704881
0.0703684
0.0702486
0.0701288
0.0700089
0.0698889
0.0697688
0.0696486
0.0695284
0.0694081
0.0692877
0.0691672
0.0690467
0.0689261
0.0688054
0.0686846
0.0685638
0.0684429
0.0683219
0.0682008
0.0680796
0.0679584
0.0678371
0.0677157
0.0675942
0.0674727
0.0673511
0.0672294
0.0671076
0.0669858
0.0668639
0.0667419
0.0666198
0.0664977
0.0663755
0.0662532
0.0661308
0.0660084
0.0658859
0.0657633
0.0656407
0.0655179
0.0653951
0.0652722
0.0651493
0.0650262
0.0649031
0.06478
0.0646567
0.0645334
0.06441
0.0642865
0.064163
0.0640394
0.0639157
0.063792
0.0636681
0.0635442
0.0634203
0.0632962
0.0631721
0.0630479
0.0629237
0.0627993
0.0626749
0.0625505
0.0624259
0.0623013
0.0621766
0.0620519
0.0619271
0.0618022
0.0616772
0.0615522
0.0614271
0.0613019
0.0611767
0.0610514
0.060926
0.0608005
0.060675
0.0605494
0.0604238
0.0602981
0.0601723
0.0600464
0.0599205
0.0597945
0.0596685
0.0595424
0.0594162
0.0592899
0.0591636
0.0590372
0.0589107
0.0587842
0.0586576
0.058531
0.0584043
0.0582775
0.0581506
0.0580237
0.0578967
0.0577697
0.0576426
0.0575154
0.0573882
0.0572609
0.0571335
0.0570061
0.0568786
0.056751
0.0566234
0.0564957
0.056368
0.0562402
0.0561123
0.0559844
0.0558564
0.0557283
0.0556002
0.055472
0.0553438
0.0552155
0.0550871
0.0549587
0.0548302
0.0547017
0.0545731
0.0544444
0.0543157
0.0541869
0.0540581
0.0539292
0.0538002
0.0536712
0.0535421
0.053413
0.0532838
0.0531545
0.0530252
0.0528958
0.0527664
0.0526369
0.0525074
0.0523778
0.0522481
0.0521184
0.0519887
0.0518588
0.051729
0.051599
0.051469
0.051339
0.0512089
0.0510787
0.0509485
0.0508183
0.0506879
0.0505576
0.0504271
0.0502967
0.0501661
0.0500355
0.0499049
0.0497742
0.0496435
0.0495127
0.0493818
0.0492509
0.04912
0.048989
0.0488579
0.0487268
0.0485956
0.0484644
0.0483332
0.0482019
0.0480705
0.0479391
0.0478076
0.0476761
0.0475446
0.047413
0.0472813
0.0471496
0.0470179
0.0468861
0.0467542
0.0466223
0.0464904
0.0463584
0.0462264
0.0460943
0.0459622
0.04583
0.0456978
0.0455655
0.0454332
0.0453008
0.0451684
0.045036
0.0449035
0.044771
0.0446384
0.0445058
0.0443731
0.0442404
0.0441076
0.0439749
0.043842
0.0437091
0.0435762
0.0434433
0.0433102
0.0431772
0.0430441
0.042911
0.0427778
0.0426446
0.0425114
0.0423781
0.0422447
0.0421114
0.041978
0.0418445
0.041711
0.0415775
0.0414439
0.0413103
0.0411767
0.041043
0.0409093
0.0407756
0.0406418
0.040508
0.0403741
0.0402402
0.0401063
0.0399723
0.0398383
0.0397043
0.0395702
0.0394361
0.0393019
0.0391678
0.0390336
0.0388993
0.038765
0.0386307
0.0384964
0.038362
0.0382276
0.0380932
0.0379587
0.0378242
0.0376897
0.0375551
0.0374205
0.0372859
0.0371512
0.0370165
0.0368818
0.0367471
0.0366123
0.0364775
0.0363427
0.0362078
0.0360729
0.035938
0.0358031
0.0356681
0.0355331
0.0353981
0.035263
0.0351279
0.0349928
0.0348577
0.0347225
0.0345874
0.0344521
0.0343169
0.0341817
0.0340464
0.0339111
0.0337757
0.0336404
0.033505
0.0333696
0.0332342
0.0330987
0.0329633
0.0328278
0.0326923
0.0325567
0.0324212
0.0322856
0.03215
0.0320144
0.0318787
0.0317431
0.0316074
0.0314717
0.031336
0.0312002
0.0310645
0.0309287
0.0307929
0.0306571
0.0305212
0.0303854
0.0302495
0.0301136
0.0299777
0.0298418
0.0297058
0.0295699
0.0294339
0.0292979
0.0291619
0.0290258
0.0288898
0.0287537
0.0286176
0.0284815
0.0283454
0.0282093
0.0280731
0.027937
0.0278008
0.0276646
0.0275284
0.0273921
0.0272559
0.0271196
0.0269833
0.026847
0.0267107
0.0265744
0.026438
0.0263016
0.0261653
0.0260288
0.0258924
0.025756
0.0256195
0.025483
0.0253465
0.02521
0.0250735
0.0249369
0.0248003
0.0246637
0.0245271
0.0243904
0.0242538
0.0241171
0.0239804
0.0238436
0.0237069
0.0235701
0.0234333
0.0232965
0.0231596
0.0230227
0.0228859
0.0227489
0.022612
0.022475
0.022338
0.022201
0.022064
0.021927
0.0217899
0.0216529
0.0215158
0.0213787
0.0212416
0.0211045
0.0209675
0.0208304
0.0206934
0.0205564
0.0204195
0.0202827
0.0201459
0.0200093
0.0198728
0.0197366
0.0196005
0.0194647
0.0193293
0.0191942
0.0190598
0.018926
0.0187931
0.0186615
0.0185316
0.0184041
0.0182801
0.018161
0.018049
0.017947
0.0178588
0.0177887
0.0177435
0.0177429
0.0177958
0.999846
0.980868
0.870813
0.758501
0.666878
0.595784
0.541295
0.49957
0.46741
0.442352
0.422575
0.406751
0.39391
0.383343
0.374528
0.367079
0.360707
0.355196
0.350384
0.346146
0.342385
0.339025
0.336007
0.333282
0.330811
0.328562
0.326509
0.324627
0.322899
0.321307
0.319838
0.318479
0.31722
0.31605
0.314962
0.313948
0.313001
0.312117
0.311289
0.310512
0.309783
0.309098
0.308452
0.307844
0.307269
0.306725
0.306211
0.305723
0.30526
0.304819
0.304399
0.303999
0.303617
0.303252
0.302902
0.302566
0.302244
0.301934
0.301636
0.301348
0.30107
0.300801
0.30054
0.300288
0.300043
0.299804
0.299572
0.299345
0.299124
0.298908
0.298696
0.298488
0.298284
0.298082
0.297884
0.297689
0.297495
0.297304
0.297115
0.296928
0.296742
0.296557
0.296374
0.296192
0.296011
0.295831
0.295652
0.295474
0.295297
0.295121
0.294945
0.294771
0.294597
0.294424
0.294251
0.294079
0.293907
0.293737
0.293566
0.293396
0.293227
0.293058
0.29289
0.292722
0.292554
0.292387
0.29222
0.292054
0.291888
0.291722
0.291556
0.291391
0.291226
0.291061
0.290896
0.290732
0.290567
0.290402
0.290237
0.290072
0.289907
0.289742
0.289577
0.289411
0.289246
0.289081
0.288915
0.288749
0.288583
0.288418
0.288252
0.288086
0.28792
0.287754
0.287589
0.287423
0.287257
0.287091
0.286925
0.28676
0.286594
0.286429
0.286263
0.286098
0.285932
0.285767
0.285601
0.285436
0.285271
0.285106
0.28494
0.284775
0.28461
0.284445
0.284279
0.284114
0.283948
0.283783
0.283618
0.283452
0.283286
0.283121
0.282955
0.282789
0.282624
0.282458
0.282292
0.282126
0.28196
0.281795
0.281629
0.281463
0.281297
0.281131
0.280965
0.280799
0.280633
0.280467
0.280301
0.280135
0.279969
0.279803
0.279636
0.27947
0.279304
0.279137
0.278971
0.278805
0.278638
0.278472
0.278305
0.278139
0.277972
0.277806
0.277639
0.277472
0.277306
0.277139
0.276973
0.276806
0.276639
0.276473
0.276306
0.276139
0.275973
0.275806
0.275639
0.275473
0.275306
0.275139
0.274972
0.274806
0.274639
0.274472
0.274305
0.274138
0.273971
0.273803
0.273636
0.273469
0.273302
0.273134
0.272967
0.272799
0.272632
0.272464
0.272297
0.272129
0.271962
0.271794
0.271626
0.271458
0.271291
0.271123
0.270955
0.270787
0.270619
0.270451
0.270283
0.270115
0.269947
0.269779
0.269611
0.269443
0.269275
0.269107
0.268939
0.26877
0.268602
0.268434
0.268265
0.268097
0.267929
0.26776
0.267592
0.267423
0.267255
0.267086
0.266917
0.266749
0.26658
0.266411
0.266242
0.266074
0.265905
0.265736
0.265567
0.265398
0.265229
0.26506
0.264891
0.264722
0.264552
0.264383
0.264214
0.264045
0.263875
0.263706
0.263536
0.263367
0.263197
0.263028
0.262858
0.262688
0.262519
0.262349
0.262179
0.262009
0.261839
0.261669
0.261499
0.261329
0.261159
0.260989
0.260819
0.260649
0.260479
0.260308
0.260138
0.259968
0.259797
0.259627
0.259456
0.259285
0.259115
0.258944
0.258773
0.258602
0.258432
0.258261
0.25809
0.257919
0.257748
0.257577
0.257405
0.257234
0.257063
0.256892
0.25672
0.256549
0.256378
0.256206
0.256034
0.255863
0.255691
0.25552
0.255348
0.255176
0.255004
0.254832
0.25466
0.254488
0.254316
0.254144
0.253972
0.2538
0.253627
0.253455
0.253283
0.25311
0.252938
0.252765
0.252593
0.25242
0.252247
0.252075
0.251902
0.251729
0.251556
0.251383
0.25121
0.251037
0.250864
0.250691
0.250517
0.250344
0.250171
0.249997
0.249824
0.24965
0.249477
0.249303
0.24913
0.248956
0.248782
0.248608
0.248434
0.248261
0.248087
0.247913
0.247738
0.247564
0.24739
0.247216
0.247042
0.246867
0.246693
0.246518
0.246344
0.246169
0.245995
0.24582
0.245645
0.24547
0.245295
0.245121
0.244946
0.244771
0.244595
0.24442
0.244245
0.24407
0.243895
0.243719
0.243544
0.243368
0.243193
0.243017
0.242842
0.242666
0.24249
0.242314
0.242138
0.241963
0.241787
0.241611
0.241434
0.241258
0.241082
0.240906
0.24073
0.240553
0.240377
0.2402
0.240024
0.239847
0.23967
0.239494
0.239317
0.23914
0.238963
0.238786
0.238609
0.238432
0.238255
0.238078
0.237901
0.237723
0.237546
0.237369
0.237191
0.237014
0.236836
0.236659
0.236481
0.236303
0.236125
0.235948
0.23577
0.235592
0.235414
0.235236
0.235057
0.234879
0.234701
0.234523
0.234344
0.234166
0.233987
0.233809
0.23363
0.233452
0.233273
0.233094
0.232915
0.232736
0.232557
0.232378
0.232199
0.23202
0.231841
0.231662
0.231482
0.231303
0.231124
0.230944
0.230765
0.230585
0.230405
0.230226
0.230046
0.229866
0.229686
0.229506
0.229326
0.229146
0.228966
0.228786
0.228606
0.228426
0.228245
0.228065
0.227884
0.227704
0.227523
0.227343
0.227162
0.226981
0.226801
0.22662
0.226439
0.226258
0.226077
0.225896
0.225715
0.225533
0.225352
0.225171
0.224989
0.224808
0.224626
0.224445
0.224263
0.224082
0.2239
0.223718
0.223536
0.223354
0.223172
0.22299
0.222808
0.222626
0.222444
0.222262
0.22208
0.221897
0.221715
0.221532
0.22135
0.221167
0.220985
0.220802
0.220619
0.220436
0.220254
0.220071
0.219888
0.219705
0.219522
0.219338
0.219155
0.218972
0.218789
0.218605
0.218422
0.218238
0.218055
0.217871
0.217688
0.217504
0.21732
0.217136
0.216952
0.216768
0.216584
0.2164
0.216216
0.216032
0.215848
0.215664
0.215479
0.215295
0.215111
0.214926
0.214742
0.214557
0.214372
0.214188
0.214003
0.213818
0.213633
0.213448
0.213263
0.213078
0.212893
0.212708
0.212523
0.212337
0.212152
0.211967
0.211781
0.211596
0.21141
0.211225
0.211039
0.210853
0.210668
0.210482
0.210296
0.21011
0.209924
0.209738
0.209552
0.209366
0.20918
0.208993
0.208807
0.208621
0.208434
0.208248
0.208061
0.207875
0.207688
0.207502
0.207315
0.207128
0.206941
0.206754
0.206567
0.20638
0.206193
0.206006
0.205819
0.205632
0.205445
0.205257
0.20507
0.204883
0.204695
0.204508
0.20432
0.204133
0.203945
0.203757
0.20357
0.203382
0.203194
0.203006
0.202818
0.20263
0.202442
0.202254
0.202066
0.201878
0.201689
0.201501
0.201313
0.201124
0.200936
0.200747
0.200559
0.20037
0.200181
0.199993
0.199804
0.199615
0.199426
0.199237
0.199048
0.198859
0.19867
0.198481
0.198292
0.198103
0.197914
0.197724
0.197535
0.197346
0.197156
0.196967
0.196777
0.196588
0.196398
0.196208
0.196019
0.195829
0.195639
0.195449
0.195259
0.195069
0.194879
0.194689
0.194499
0.194309
0.194119
0.193929
0.193739
0.193548
0.193358
0.193168
0.192977
0.192787
0.192596
0.192405
0.192215
0.192024
0.191833
0.191643
0.191452
0.191261
0.19107
0.190879
0.190688
0.190497
0.190306
0.190115
0.189924
0.189733
0.189542
0.18935
0.189159
0.188968
0.188776
0.188585
0.188393
0.188202
0.18801
0.187819
0.187627
0.187435
0.187243
0.187052
0.18686
0.186668
0.186476
0.186284
0.186092
0.1859
0.185708
0.185516
0.185324
0.185132
0.18494
0.184747
0.184555
0.184363
0.18417
0.183978
0.183786
0.183593
0.183401
0.183208
0.183015
0.182823
0.18263
0.182437
0.182245
0.182052
0.181859
0.181666
0.181473
0.18128
0.181087
0.180894
0.180701
0.180508
0.180315
0.180122
0.179929
0.179736
0.179542
0.179349
0.179156
0.178962
0.178769
0.178576
0.178382
0.178189
0.177995
0.177802
0.177608
0.177414
0.177221
0.177027
0.176833
0.17664
0.176446
0.176252
0.176058
0.175864
0.17567
0.175477
0.175283
0.175089
0.174895
0.1747
0.174506
0.174312
0.174118
0.173924
0.17373
0.173535
0.173341
0.173147
0.172953
0.172758
0.172564
0.172369
0.172175
0.17198
0.171786
0.171591
0.171397
0.171202
0.171008
0.170813
0.170618
0.170424
0.170229
0.170034
0.169839
0.169645
0.16945
0.169255
0.16906
0.168865
0.16867
0.168475
0.16828
0.168085
0.16789
0.167695
0.1675
0.167305
0.16711
0.166915
0.16672
0.166525
0.166329
0.166134
0.165939
0.165744
0.165548
0.165353
0.165158
0.164962
0.164767
0.164571
0.164376
0.164181
0.163985
0.16379
0.163594
0.163399
0.163203
0.163007
0.162812
0.162616
0.162421
0.162225
0.162029
0.161834
0.161638
0.161442
0.161246
0.161051
0.160855
0.160659
0.160463
0.160267
0.160072
0.159876
0.15968
0.159484
0.159288
0.159092
0.158896
0.1587
0.158504
0.158308
0.158112
0.157916
0.15772
0.157524
0.157328
0.157132
0.156936
0.15674
0.156544
0.156348
0.156152
0.155955
0.155759
0.155563
0.155367
0.155171
0.154975
0.154778
0.154582
0.154386
0.15419
0.153993
0.153797
0.153601
0.153404
0.153208
0.153012
0.152816
0.152619
0.152423
0.152227
0.15203
0.151834
0.151637
0.151441
0.151245
0.151048
0.150852
0.150655
0.150459
0.150263
0.150066
0.14987
0.149673
0.149477
0.14928
0.149084
0.148887
0.148691
0.148494
0.148298
0.148101
0.147905
0.147708
0.147512
0.147315
0.147119
0.146922
0.146726
0.146529
0.146333
0.146136
0.14594
0.145743
0.145547
0.14535
0.145153
0.144957
0.14476
0.144564
0.144367
0.144171
0.143974
0.143777
0.143581
0.143384
0.143188
0.142991
0.142795
0.142598
0.142401
0.142205
0.142008
0.141812
0.141615
0.141419
0.141222
0.141025
0.140829
0.140632
0.140436
0.140239
0.140043
0.139846
0.13965
0.139453
0.139257
0.13906
0.138864
0.138667
0.138471
0.138275
0.138078
0.137882
0.137686
0.13749
0.137294
0.137098
0.136902
0.136706
0.13651
0.136314
0.136119
0.135924
0.135728
0.135533
0.135338
0.135143
0.134949
0.134755
0.134561
0.134367
0.134174
0.133981
0.133789
0.133597
0.133406
0.133215
0.133026
0.132837
0.132649
0.132463
0.132277
0.132094
0.131912
0.131732
0.131555
0.131382
0.131213
0.131049
0.130892
0.130745
0.130611
0.130493
0.130398
0.130333
0.130302
0.130318
0.130404
0.130557
1.01543
1.05018
1.01183
0.943569
0.869847
0.802012
0.743867
0.695715
0.656451
0.62459
0.598693
0.57753
0.560096
0.545599
0.533421
0.523084
0.514222
0.506552
0.499856
0.493963
0.488741
0.484085
0.47991
0.476149
0.472747
0.469658
0.466843
0.464271
0.461915
0.459751
0.45776
0.455923
0.454226
0.452655
0.451198
0.449846
0.448589
0.447419
0.446328
0.445309
0.444357
0.443466
0.442631
0.441848
0.441112
0.44042
0.439769
0.439155
0.438576
0.438028
0.43751
0.43702
0.436554
0.436112
0.435692
0.435292
0.43491
0.434546
0.434198
0.433865
0.433546
0.433239
0.432945
0.432661
0.432388
0.432124
0.431869
0.431622
0.431382
0.43115
0.430923
0.430702
0.430485
0.430274
0.430066
0.429862
0.429662
0.429464
0.429269
0.429076
0.428886
0.428697
0.42851
0.428325
0.428141
0.427959
0.427779
0.427599
0.427421
0.427244
0.427068
0.426893
0.426719
0.426546
0.426374
0.426203
0.426032
0.425863
0.425694
0.425526
0.425358
0.425191
0.425025
0.424859
0.424695
0.42453
0.424366
0.424203
0.42404
0.423878
0.423716
0.423554
0.423392
0.423231
0.42307
0.422909
0.422748
0.422587
0.422426
0.422264
0.422103
0.421942
0.42178
0.421618
0.421457
0.421295
0.421133
0.42097
0.420808
0.420646
0.420484
0.420321
0.420159
0.419997
0.419834
0.419672
0.41951
0.419348
0.419186
0.419024
0.418862
0.4187
0.418538
0.418377
0.418215
0.418054
0.417892
0.417731
0.417569
0.417408
0.417247
0.417086
0.416924
0.416763
0.416602
0.41644
0.416279
0.416118
0.415956
0.415795
0.415633
0.415472
0.41531
0.415148
0.414987
0.414825
0.414663
0.414501
0.41434
0.414178
0.414016
0.413854
0.413693
0.413531
0.413369
0.413207
0.413045
0.412883
0.412722
0.41256
0.412398
0.412236
0.412074
0.411912
0.41175
0.411588
0.411426
0.411264
0.411101
0.410939
0.410777
0.410615
0.410452
0.41029
0.410128
0.409966
0.409803
0.409641
0.409479
0.409317
0.409155
0.408993
0.40883
0.408668
0.408506
0.408344
0.408182
0.40802
0.407858
0.407695
0.407533
0.407371
0.407209
0.407046
0.406884
0.406722
0.406559
0.406397
0.406234
0.406071
0.405909
0.405746
0.405583
0.40542
0.405258
0.405095
0.404932
0.404769
0.404606
0.404443
0.40428
0.404117
0.403954
0.403791
0.403628
0.403465
0.403302
0.403139
0.402976
0.402812
0.402649
0.402486
0.402323
0.40216
0.401996
0.401833
0.40167
0.401507
0.401343
0.40118
0.401017
0.400853
0.40069
0.400526
0.400363
0.400199
0.400036
0.399872
0.399709
0.399545
0.399382
0.399218
0.399055
0.398891
0.398727
0.398563
0.3984
0.398236
0.398072
0.397908
0.397744
0.397581
0.397417
0.397253
0.397089
0.396925
0.396761
0.396596
0.396432
0.396268
0.396104
0.39594
0.395775
0.395611
0.395447
0.395283
0.395118
0.394954
0.394789
0.394625
0.39446
0.394296
0.394131
0.393967
0.393802
0.393637
0.393472
0.393308
0.393143
0.392978
0.392813
0.392648
0.392483
0.392318
0.392153
0.391988
0.391823
0.391658
0.391493
0.391327
0.391162
0.390997
0.390832
0.390666
0.390501
0.390335
0.39017
0.390004
0.389839
0.389673
0.389507
0.389342
0.389176
0.38901
0.388844
0.388679
0.388513
0.388347
0.388181
0.388015
0.387849
0.387683
0.387516
0.38735
0.387184
0.387018
0.386851
0.386685
0.386519
0.386352
0.386186
0.386019
0.385853
0.385686
0.38552
0.385353
0.385186
0.385019
0.384853
0.384686
0.384519
0.384352
0.384185
0.384018
0.383851
0.383684
0.383517
0.38335
0.383182
0.383015
0.382848
0.382681
0.382513
0.382346
0.382178
0.382011
0.381843
0.381676
0.381508
0.38134
0.381173
0.381005
0.380837
0.380669
0.380501
0.380334
0.380166
0.379998
0.37983
0.379661
0.379493
0.379325
0.379157
0.378989
0.37882
0.378652
0.378484
0.378315
0.378147
0.377978
0.37781
0.377641
0.377472
0.377304
0.377135
0.376966
0.376797
0.376628
0.376459
0.376291
0.376122
0.375952
0.375783
0.375614
0.375445
0.375276
0.375107
0.374937
0.374768
0.374599
0.374429
0.37426
0.37409
0.373921
0.373751
0.373581
0.373412
0.373242
0.373072
0.372902
0.372732
0.372562
0.372392
0.372222
0.372052
0.371882
0.371712
0.371542
0.371372
0.371202
0.371031
0.370861
0.37069
0.37052
0.370349
0.370179
0.370008
0.369838
0.369667
0.369496
0.369326
0.369155
0.368984
0.368813
0.368642
0.368471
0.3683
0.368129
0.367958
0.367787
0.367616
0.367444
0.367273
0.367102
0.36693
0.366759
0.366587
0.366416
0.366244
0.366073
0.365901
0.365729
0.365558
0.365386
0.365214
0.365042
0.36487
0.364698
0.364526
0.364354
0.364182
0.36401
0.363838
0.363666
0.363493
0.363321
0.363149
0.362976
0.362804
0.362631
0.362459
0.362286
0.362114
0.361941
0.361768
0.361595
0.361423
0.36125
0.361077
0.360904
0.360731
0.360558
0.360385
0.360212
0.360039
0.359865
0.359692
0.359519
0.359345
0.359172
0.358999
0.358825
0.358652
0.358478
0.358304
0.358131
0.357957
0.357783
0.35761
0.357436
0.357262
0.357088
0.356914
0.35674
0.356566
0.356392
0.356218
0.356044
0.355869
0.355695
0.355521
0.355347
0.355172
0.354998
0.354823
0.354649
0.354474
0.3543
0.354125
0.35395
0.353775
0.353601
0.353426
0.353251
0.353076
0.352901
0.352726
0.352551
0.352376
0.352201
0.352026
0.35185
0.351675
0.3515
0.351325
0.351149
0.350974
0.350798
0.350623
0.350447
0.350272
0.350096
0.34992
0.349745
0.349569
0.349393
0.349217
0.349041
0.348865
0.348689
0.348513
0.348337
0.348161
0.347985
0.347809
0.347633
0.347456
0.34728
0.347104
0.346927
0.346751
0.346574
0.346398
0.346221
0.346045
0.345868
0.345691
0.345515
0.345338
0.345161
0.344984
0.344807
0.34463
0.344453
0.344276
0.344099
0.343922
0.343745
0.343568
0.343391
0.343213
0.343036
0.342859
0.342681
0.342504
0.342327
0.342149
0.341972
0.341794
0.341616
0.341439
0.341261
0.341083
0.340906
0.340728
0.34055
0.340372
0.340194
0.340016
0.339838
0.33966
0.339482
0.339304
0.339126
0.338948
0.338769
0.338591
0.338413
0.338234
0.338056
0.337878
0.337699
0.337521
0.337342
0.337164
0.336985
0.336806
0.336628
0.336449
0.33627
0.336091
0.335912
0.335734
0.335555
0.335376
0.335197
0.335018
0.334839
0.33466
0.334481
0.334301
0.334122
0.333943
0.333764
0.333584
0.333405
0.333226
0.333046
0.332867
0.332687
0.332508
0.332328
0.332149
0.331969
0.331789
0.33161
0.33143
0.33125
0.33107
0.330891
0.330711
0.330531
0.330351
0.330171
0.329991
0.329811
0.329631
0.329451
0.329271
0.32909
0.32891
0.32873
0.32855
0.328369
0.328189
0.328009
0.327828
0.327648
0.327467
0.327287
0.327106
0.326926
0.326745
0.326565
0.326384
0.326203
0.326023
0.325842
0.325661
0.32548
0.325299
0.325119
0.324938
0.324757
0.324576
0.324395
0.324214
0.324033
0.323852
0.323671
0.323489
0.323308
0.323127
0.322946
0.322765
0.322583
0.322402
0.322221
0.322039
0.321858
0.321676
0.321495
0.321313
0.321132
0.32095
0.320769
0.320587
0.320406
0.320224
0.320042
0.319861
0.319679
0.319497
0.319315
0.319134
0.318952
0.31877
0.318588
0.318406
0.318224
0.318042
0.31786
0.317678
0.317496
0.317314
0.317132
0.31695
0.316768
0.316585
0.316403
0.316221
0.316039
0.315856
0.315674
0.315492
0.315309
0.315127
0.314945
0.314762
0.31458
0.314397
0.314215
0.314032
0.31385
0.313667
0.313485
0.313302
0.31312
0.312937
0.312754
0.312572
0.312389
0.312206
0.312023
0.311841
0.311658
0.311475
0.311292
0.311109
0.310926
0.310744
0.310561
0.310378
0.310195
0.310012
0.309829
0.309646
0.309463
0.30928
0.309097
0.308914
0.30873
0.308547
0.308364
0.308181
0.307998
0.307815
0.307631
0.307448
0.307265
0.307082
0.306898
0.306715
0.306532
0.306348
0.306165
0.305982
0.305798
0.305615
0.305431
0.305248
0.305065
0.304881
0.304698
0.304514
0.304331
0.304147
0.303964
0.30378
0.303596
0.303413
0.303229
0.303046
0.302862
0.302678
0.302495
0.302311
0.302127
0.301944
0.30176
0.301576
0.301393
0.301209
0.301025
0.300841
0.300658
0.300474
0.30029
0.300106
0.299922
0.299738
0.299555
0.299371
0.299187
0.299003
0.298819
0.298635
0.298451
0.298267
0.298084
0.2979
0.297716
0.297532
0.297348
0.297164
0.29698
0.296796
0.296612
0.296428
0.296244
0.29606
0.295876
0.295692
0.295508
0.295324
0.29514
0.294956
0.294771
0.294587
0.294403
0.294219
0.294035
0.293851
0.293667
0.293483
0.293299
0.293115
0.292931
0.292746
0.292562
0.292378
0.292194
0.29201
0.291826
0.291642
0.291457
0.291273
0.291089
0.290905
0.290721
0.290537
0.290352
0.290168
0.289984
0.2898
0.289616
0.289432
0.289247
0.289063
0.288879
0.288695
0.288511
0.288327
0.288142
0.287958
0.287774
0.28759
0.287406
0.287222
0.287037
0.286853
0.286669
0.286485
0.286301
0.286117
0.285932
0.285748
0.285564
0.28538
0.285196
0.285012
0.284827
0.284643
0.284459
0.284275
0.284091
0.283907
0.283723
0.283539
0.283355
0.283171
0.282987
0.282803
0.282619
0.282435
0.282251
0.282067
0.281883
0.281699
0.281515
0.281331
0.281147
0.280963
0.280779
0.280596
0.280412
0.280228
0.280045
0.279861
0.279677
0.279494
0.27931
0.279127
0.278944
0.27876
0.278577
0.278394
0.278211
0.278028
0.277845
0.277662
0.27748
0.277297
0.277115
0.276933
0.276751
0.276569
0.276388
0.276206
0.276025
0.275844
0.275664
0.275484
0.275304
0.275124
0.274945
0.274767
0.274589
0.274411
0.274234
0.274058
0.273883
0.273708
0.273535
0.273362
0.273191
0.273021
0.272852
0.272685
0.27252
0.272356
0.272195
0.272037
0.271882
0.271729
0.271581
0.271438
0.2713
0.271169
0.271047
0.270935
0.270837
0.270757
0.270698
0.270667
0.270669
0.270708
0.27079
0.270934
0.271134
1.0118
1.05449
1.05388
1.0227
0.974996
0.922529
0.872128
0.826903
0.787783
0.754597
0.726702
0.703314
0.683671
0.667096
0.653021
0.640982
0.630604
0.621589
0.613701
0.60675
0.600588
0.595095
0.590173
0.585743
0.58174
0.57811
0.574809
0.571799
0.569046
0.566524
0.564208
0.562078
0.560115
0.558304
0.55663
0.555082
0.553647
0.552317
0.551081
0.549933
0.548865
0.54787
0.546943
0.546078
0.54527
0.544515
0.543809
0.543147
0.542527
0.541946
0.541399
0.540886
0.540403
0.539949
0.53952
0.539116
0.538735
0.538374
0.538032
0.537709
0.537402
0.537111
0.536834
0.53657
0.536319
0.536079
0.535849
0.53563
0.535419
0.535216
0.53502
0.534831
0.534648
0.534471
0.534298
0.53413
0.533966
0.533805
0.533647
0.533492
0.53334
0.53319
0.533042
0.532896
0.532752
0.53261
0.532469
0.53233
0.532192
0.532056
0.531921
0.531787
0.531654
0.531523
0.531392
0.531263
0.531134
0.531007
0.53088
0.530754
0.530629
0.530505
0.530382
0.530259
0.530137
0.530016
0.529895
0.529775
0.529656
0.529537
0.529418
0.5293
0.529182
0.529065
0.528947
0.52883
0.528712
0.528595
0.528478
0.52836
0.528242
0.528125
0.528007
0.527888
0.52777
0.527652
0.527533
0.527415
0.527296
0.527177
0.527058
0.526939
0.526821
0.526702
0.526583
0.526464
0.526346
0.526227
0.526108
0.52599
0.525872
0.525753
0.525635
0.525517
0.525399
0.525282
0.525164
0.525046
0.524929
0.524811
0.524693
0.524576
0.524458
0.524341
0.524223
0.524106
0.523988
0.52387
0.523752
0.523635
0.523517
0.523399
0.523281
0.523163
0.523045
0.522927
0.522809
0.522691
0.522573
0.522455
0.522337
0.522219
0.522101
0.521983
0.521865
0.521747
0.521629
0.521511
0.521392
0.521274
0.521156
0.521038
0.52092
0.520802
0.520683
0.520565
0.520447
0.520328
0.52021
0.520091
0.519973
0.519854
0.519736
0.519618
0.519499
0.519381
0.519262