/*--------------------------------*- C++ -*----------------------------------*\
| =========                 |                                                 |
| \\      /  F ield         | OpenFOAM: The Open Source CFD Toolbox           |
|  \\    /   O peration     | Version:  2512                                  |
|   \\  /    A nd           | Website:  www.openfoam.com                      |
|    \\/     M anipulation  |                                                 |
\*---------------------------------------------------------------------------*/
FoamFile
{
    version     2.0;
    format      ascii;
    arch        "LSB;label=32;scalar=64";
    class       volScalarField;
    location    "0.006";
    object      Uy;
}
// * * * * * * * * * * * * * * * * * * * * * * * * * * * * * * * * * * * * * //

dimensions      [0 1 -1 0 0 0 0];

internalField   nonuniform List<scalar> 
100000
(
0.129202
0.0990864
0.0490937
0.0261542
0.0149988
0.00888253
0.00548342
0.00357789
0.00246786
0.00178775
0.00135024
0.00105624
0.000851006
0.000702951
0.000593036
0.000509297
0.000443958
0.000391835
0.000349402
0.000314224
0.000284594
0.000259297
0.000237453
0.000218411
0.000201681
0.000186885
0.000173727
0.000161967
0.000151412
0.000141902
0.000133304
0.000125506
0.000118412
0.000111942
0.000106027
0.000100606
9.56277e-05
9.10477e-05
8.68264e-05
8.29298e-05
7.93285e-05
7.60004e-05
7.29364e-05
7.01262e-05
6.75512e-05
6.5191e-05
6.30265e-05
6.10402e-05
5.92162e-05
5.75401e-05
5.59989e-05
5.45807e-05
5.32751e-05
5.20723e-05
5.09636e-05
4.9941e-05
4.89975e-05
4.81263e-05
4.73214e-05
4.65775e-05
4.58896e-05
4.52531e-05
4.46642e-05
4.41191e-05
4.36149e-05
4.31488e-05
4.27187e-05
4.23225e-05
4.19586e-05
4.16257e-05
4.13223e-05
4.10469e-05
4.07982e-05
4.05743e-05
4.03735e-05
4.01934e-05
4.0032e-05
3.98868e-05
3.97558e-05
3.96368e-05
3.95279e-05
3.94278e-05
3.93351e-05
3.92489e-05
3.91686e-05
3.90937e-05
3.90238e-05
3.89587e-05
3.88981e-05
3.88418e-05
3.87896e-05
3.87412e-05
3.86965e-05
3.86551e-05
3.86168e-05
3.85813e-05
3.85484e-05
3.85177e-05
3.8489e-05
3.8462e-05
3.84366e-05
3.84124e-05
3.83894e-05
3.83673e-05
3.83462e-05
3.8326e-05
3.8307e-05
3.82893e-05
3.82732e-05
3.82592e-05
3.82478e-05
3.82392e-05
3.82338e-05
3.82318e-05
3.82334e-05
3.82383e-05
3.82463e-05
3.82569e-05
3.82696e-05
3.82839e-05
3.82992e-05
3.83149e-05
3.83308e-05
3.83464e-05
3.83616e-05
3.83762e-05
3.83902e-05
3.84036e-05
3.84163e-05
3.84285e-05
3.84401e-05
3.84512e-05
3.84618e-05
3.8472e-05
3.84817e-05
3.84909e-05
3.84996e-05
3.85079e-05
3.85159e-05
3.85235e-05
3.85308e-05
3.8538e-05
3.85453e-05
3.85527e-05
3.85604e-05
3.85686e-05
3.85774e-05
3.85869e-05
3.85972e-05
3.86083e-05
3.86203e-05
3.8633e-05
3.86464e-05
3.86604e-05
3.86749e-05
3.86897e-05
3.87048e-05
3.87202e-05
3.87356e-05
3.87511e-05
3.87666e-05
3.8782e-05
3.87974e-05
3.88127e-05
3.88279e-05
3.88431e-05
3.88581e-05
3.8873e-05
3.88878e-05
3.89025e-05
3.89171e-05
3.89317e-05
3.89462e-05
3.89607e-05
3.89753e-05
3.89901e-05
3.9005e-05
3.90202e-05
3.90357e-05
3.90516e-05
3.90679e-05
3.90845e-05
3.91016e-05
3.91189e-05
3.91363e-05
3.91539e-05
3.91715e-05
3.91889e-05
3.9206e-05
3.92229e-05
3.92394e-05
3.92555e-05
3.92713e-05
3.92867e-05
3.9302e-05
3.93171e-05
3.93321e-05
3.93471e-05
3.93622e-05
3.93774e-05
3.93929e-05
3.94086e-05
3.94246e-05
3.94409e-05
3.94575e-05
3.94743e-05
3.94915e-05
3.9509e-05
3.95268e-05
3.95449e-05
3.95633e-05
3.95821e-05
3.96011e-05
3.96204e-05
3.96399e-05
3.96596e-05
3.96794e-05
3.96992e-05
3.97191e-05
3.97389e-05
3.97587e-05
3.97785e-05
3.97981e-05
3.98176e-05
3.9837e-05
3.98564e-05
3.98756e-05
3.98948e-05
3.99138e-05
3.99329e-05
3.99519e-05
3.99709e-05
3.99898e-05
4.00088e-05
4.00279e-05
4.0047e-05
4.00663e-05
4.00856e-05
4.01051e-05
4.01246e-05
4.01443e-05
4.01642e-05
4.01841e-05
4.02041e-05
4.02241e-05
4.02442e-05
4.02643e-05
4.02845e-05
4.03047e-05
4.03249e-05
4.03452e-05
4.03655e-05
4.03859e-05
4.04064e-05
4.0427e-05
4.04476e-05
4.04684e-05
4.04893e-05
4.05102e-05
4.05313e-05
4.05524e-05
4.05736e-05
4.05949e-05
4.06164e-05
4.06378e-05
4.06594e-05
4.06811e-05
4.07028e-05
4.07246e-05
4.07465e-05
4.07684e-05
4.07904e-05
4.08124e-05
4.08345e-05
4.08565e-05
4.08787e-05
4.09008e-05
4.0923e-05
4.09452e-05
4.09675e-05
4.09898e-05
4.10123e-05
4.10347e-05
4.10573e-05
4.10799e-05
4.11026e-05
4.11254e-05
4.11483e-05
4.11712e-05
4.11942e-05
4.12173e-05
4.12405e-05
4.12637e-05
4.12869e-05
4.13103e-05
4.13337e-05
4.13571e-05
4.13806e-05
4.14041e-05
4.14277e-05
4.14514e-05
4.14751e-05
4.14989e-05
4.15227e-05
4.15465e-05
4.15704e-05
4.15944e-05
4.16184e-05
4.16425e-05
4.16666e-05
4.16907e-05
4.1715e-05
4.17392e-05
4.17635e-05
4.17879e-05
4.18123e-05
4.18367e-05
4.18612e-05
4.18858e-05
4.19104e-05
4.1935e-05
4.19597e-05
4.19844e-05
4.20092e-05
4.2034e-05
4.20589e-05
4.20838e-05
4.21088e-05
4.21338e-05
4.21588e-05
4.21839e-05
4.2209e-05
4.22342e-05
4.22594e-05
4.22847e-05
4.231e-05
4.23353e-05
4.23607e-05
4.23861e-05
4.24116e-05
4.24371e-05
4.24627e-05
4.24883e-05
4.25139e-05
4.25396e-05
4.25653e-05
4.2591e-05
4.26168e-05
4.26426e-05
4.26685e-05
4.26944e-05
4.27204e-05
4.27463e-05
4.27724e-05
4.27984e-05
4.28245e-05
4.28506e-05
4.28768e-05
4.2903e-05
4.29293e-05
4.29555e-05
4.29818e-05
4.30082e-05
4.30346e-05
4.3061e-05
4.30874e-05
4.31139e-05
4.31404e-05
4.3167e-05
4.31936e-05
4.32202e-05
4.32468e-05
4.32735e-05
4.33002e-05
4.3327e-05
4.33538e-05
4.33806e-05
4.34074e-05
4.34343e-05
4.34612e-05
4.34881e-05
4.35151e-05
4.35421e-05
4.35691e-05
4.35962e-05
4.36232e-05
4.36504e-05
4.36775e-05
4.37047e-05
4.37319e-05
4.37591e-05
4.37863e-05
4.38136e-05
4.38409e-05
4.38682e-05
4.38956e-05
4.3923e-05
4.39504e-05
4.39778e-05
4.40053e-05
4.40328e-05
4.40603e-05
4.40878e-05
4.41153e-05
4.41429e-05
4.41705e-05
4.41982e-05
4.42258e-05
4.42535e-05
4.42812e-05
4.43089e-05
4.43366e-05
4.43644e-05
4.43921e-05
4.44199e-05
4.44478e-05
4.44756e-05
4.45035e-05
4.45313e-05
4.45592e-05
4.45872e-05
4.46151e-05
4.4643e-05
4.4671e-05
4.4699e-05
4.4727e-05
4.4755e-05
4.47831e-05
4.48111e-05
4.48392e-05
4.48673e-05
4.48954e-05
4.49235e-05
4.49517e-05
4.49798e-05
4.5008e-05
4.50362e-05
4.50644e-05
4.50926e-05
4.51208e-05
4.5149e-05
4.51773e-05
4.52055e-05
4.52338e-05
4.52621e-05
4.52904e-05
4.53187e-05
4.5347e-05
4.53754e-05
4.54037e-05
4.54321e-05
4.54604e-05
4.54888e-05
4.55172e-05
4.55456e-05
4.5574e-05
4.56024e-05
4.56308e-05
4.56592e-05
4.56876e-05
4.57161e-05
4.57445e-05
4.5773e-05
4.58014e-05
4.58299e-05
4.58583e-05
4.58868e-05
4.59153e-05
4.59438e-05
4.59723e-05
4.60008e-05
4.60293e-05
4.60578e-05
4.60863e-05
4.61148e-05
4.61433e-05
4.61718e-05
4.62003e-05
4.62288e-05
4.62573e-05
4.62858e-05
4.63144e-05
4.63429e-05
4.63714e-05
4.63999e-05
4.64284e-05
4.6457e-05
4.64855e-05
4.6514e-05
4.65425e-05
4.6571e-05
4.65996e-05
4.66281e-05
4.66566e-05
4.66851e-05
4.67136e-05
4.67421e-05
4.67706e-05
4.67991e-05
4.68275e-05
4.6856e-05
4.68845e-05
4.6913e-05
4.69414e-05
4.69699e-05
4.69983e-05
4.70268e-05
4.70552e-05
4.70837e-05
4.71121e-05
4.71405e-05
4.71689e-05
4.71973e-05
4.72257e-05
4.72541e-05
4.72824e-05
4.73108e-05
4.73392e-05
4.73675e-05
4.73958e-05
4.74242e-05
4.74525e-05
4.74808e-05
4.75091e-05
4.75373e-05
4.75656e-05
4.75939e-05
4.76221e-05
4.76503e-05
4.76785e-05
4.77067e-05
4.77349e-05
4.77631e-05
4.77912e-05
4.78194e-05
4.78475e-05
4.78756e-05
4.79037e-05
4.79318e-05
4.79599e-05
4.79879e-05
4.80159e-05
4.80439e-05
4.80719e-05
4.80999e-05
4.81279e-05
4.81558e-05
4.81837e-05
4.82116e-05
4.82395e-05
4.82674e-05
4.82952e-05
4.8323e-05
4.83508e-05
4.83786e-05
4.84064e-05
4.84341e-05
4.84618e-05
4.84895e-05
4.85172e-05
4.85449e-05
4.85725e-05
4.86001e-05
4.86277e-05
4.86552e-05
4.86828e-05
4.87103e-05
4.87377e-05
4.87652e-05
4.87926e-05
4.882e-05
4.88474e-05
4.88748e-05
4.89021e-05
4.89294e-05
4.89567e-05
4.89839e-05
4.90112e-05
4.90384e-05
4.90655e-05
4.90927e-05
4.91198e-05
4.91469e-05
4.91739e-05
4.92009e-05
4.92279e-05
4.92549e-05
4.92818e-05
4.93087e-05
4.93356e-05
4.93624e-05
4.93892e-05
4.9416e-05
4.94428e-05
4.94695e-05
4.94961e-05
4.95228e-05
4.95494e-05
4.9576e-05
4.96025e-05
4.9629e-05
4.96555e-05
4.9682e-05
4.97084e-05
4.97347e-05
4.97611e-05
4.97874e-05
4.98136e-05
4.98399e-05
4.98661e-05
4.98922e-05
4.99183e-05
4.99444e-05
4.99705e-05
4.99965e-05
5.00224e-05
5.00484e-05
5.00743e-05
5.01001e-05
5.01259e-05
5.01517e-05
5.01774e-05
5.02031e-05
5.02288e-05
5.02544e-05
5.028e-05
5.03055e-05
5.0331e-05
5.03564e-05
5.03818e-05
5.04072e-05
5.04325e-05
5.04578e-05
5.0483e-05
5.05082e-05
5.05334e-05
5.05585e-05
5.05835e-05
5.06085e-05
5.06335e-05
5.06584e-05
5.06833e-05
5.07081e-05
5.07329e-05
5.07577e-05
5.07824e-05
5.0807e-05
5.08316e-05
5.08562e-05
5.08807e-05
5.09051e-05
5.09296e-05
5.09539e-05
5.09782e-05
5.10025e-05
5.10267e-05
5.10509e-05
5.1075e-05
5.10991e-05
5.11231e-05
5.11471e-05
5.1171e-05
5.11949e-05
5.12187e-05
5.12424e-05
5.12662e-05
5.12898e-05
5.13134e-05
5.1337e-05
5.13605e-05
5.1384e-05
5.14074e-05
5.14307e-05
5.1454e-05
5.14773e-05
5.15004e-05
5.15236e-05
5.15467e-05
5.15697e-05
5.15926e-05
5.16156e-05
5.16384e-05
5.16612e-05
5.1684e-05
5.17067e-05
5.17293e-05
5.17519e-05
5.17744e-05
5.17969e-05
5.18193e-05
5.18416e-05
5.18639e-05
5.18861e-05
5.19083e-05
5.19304e-05
5.19525e-05
5.19745e-05
5.19964e-05
5.20183e-05
5.20401e-05
5.20619e-05
5.20836e-05
5.21052e-05
5.21268e-05
5.21483e-05
5.21698e-05
5.21912e-05
5.22125e-05
5.22338e-05
5.2255e-05
5.22761e-05
5.22972e-05
5.23182e-05
5.23392e-05
5.23601e-05
5.23809e-05
5.24017e-05
5.24224e-05
5.2443e-05
5.24636e-05
5.24841e-05
5.25046e-05
5.25249e-05
5.25453e-05
5.25655e-05
5.25857e-05
5.26058e-05
5.26259e-05
5.26459e-05
5.26658e-05
5.26856e-05
5.27054e-05
5.27251e-05
5.27448e-05
5.27644e-05
5.27839e-05
5.28033e-05
5.28227e-05
5.2842e-05
5.28613e-05
5.28804e-05
5.28995e-05
5.29186e-05
5.29375e-05
5.29564e-05
5.29753e-05
5.2994e-05
5.30127e-05
5.30313e-05
5.30499e-05
5.30683e-05
5.30867e-05
5.31051e-05
5.31233e-05
5.31415e-05
5.31596e-05
5.31777e-05
5.31957e-05
5.32136e-05
5.32314e-05
5.32491e-05
5.32668e-05
5.32844e-05
5.33019e-05
5.33194e-05
5.33368e-05
5.33541e-05
5.33713e-05
5.33885e-05
5.34056e-05
5.34226e-05
5.34395e-05
5.34564e-05
5.34732e-05
5.34899e-05
5.35065e-05
5.35231e-05
5.35396e-05
5.3556e-05
5.35723e-05
5.35885e-05
5.36047e-05
5.36208e-05
5.36368e-05
5.36528e-05
5.36687e-05
5.36844e-05
5.37002e-05
5.37158e-05
5.37313e-05
5.37468e-05
5.37622e-05
5.37775e-05
5.37928e-05
5.38079e-05
5.3823e-05
5.3838e-05
5.38529e-05
5.38678e-05
5.38825e-05
5.38972e-05
5.39118e-05
5.39263e-05
5.39408e-05
5.39551e-05
5.39694e-05
5.39836e-05
5.39977e-05
5.40117e-05
5.40257e-05
5.40395e-05
5.40533e-05
5.4067e-05
5.40807e-05
5.40942e-05
5.41077e-05
5.4121e-05
5.41343e-05
5.41475e-05
5.41607e-05
5.41737e-05
5.41867e-05
5.41995e-05
5.42123e-05
5.4225e-05
5.42376e-05
5.42502e-05
5.42626e-05
5.4275e-05
5.42873e-05
5.42995e-05
5.43116e-05
5.43236e-05
5.43356e-05
5.43474e-05
5.43592e-05
5.43709e-05
5.43825e-05
5.4394e-05
5.44055e-05
5.44168e-05
5.44281e-05
5.44393e-05
5.44504e-05
5.44614e-05
5.44723e-05
5.44831e-05
5.44939e-05
5.45045e-05
5.45151e-05
5.45256e-05
5.4536e-05
5.45463e-05
5.45565e-05
5.45667e-05
5.45767e-05
5.45867e-05
5.45966e-05
5.46064e-05
5.46161e-05
5.46257e-05
5.46352e-05
5.46447e-05
5.46541e-05
5.46633e-05
5.46725e-05
5.46816e-05
5.46907e-05
5.46996e-05
5.47084e-05
5.47172e-05
5.47259e-05
5.47345e-05
5.4743e-05
5.47514e-05
5.47598e-05
5.4768e-05
5.47762e-05
5.47843e-05
5.47923e-05
5.48003e-05
5.48081e-05
5.48159e-05
5.48236e-05
5.48312e-05
5.48388e-05
5.48462e-05
5.48536e-05
5.48609e-05
5.48681e-05
5.48753e-05
5.48824e-05
5.48894e-05
5.48964e-05
5.49032e-05
5.49101e-05
5.49168e-05
5.49235e-05
5.49301e-05
5.49367e-05
5.49432e-05
5.49497e-05
5.49561e-05
5.49624e-05
5.49687e-05
5.4975e-05
5.49812e-05
5.49874e-05
5.49935e-05
5.49996e-05
5.50057e-05
5.50118e-05
5.50179e-05
5.50239e-05
5.50299e-05
5.5036e-05
5.5042e-05
5.5048e-05
5.50541e-05
5.50602e-05
5.50663e-05
5.50724e-05
5.50786e-05
5.50849e-05
5.50912e-05
5.50976e-05
5.5104e-05
5.51106e-05
5.51173e-05
5.51241e-05
5.5131e-05
5.51381e-05
5.51453e-05
5.51527e-05
5.51603e-05
5.51682e-05
5.51762e-05
5.51845e-05
5.51931e-05
5.5202e-05
5.52112e-05
5.52207e-05
5.52306e-05
5.52409e-05
5.52516e-05
5.52628e-05
5.52744e-05
5.52866e-05
5.52994e-05
5.53127e-05
5.53267e-05
5.53413e-05
5.53567e-05
5.53729e-05
5.53899e-05
5.54077e-05
5.54265e-05
5.54463e-05
5.54672e-05
5.54892e-05
5.55124e-05
5.5537e-05
5.55628e-05
5.55902e-05
5.5619e-05
5.56495e-05
5.56816e-05
5.57155e-05
5.57513e-05
5.57889e-05
5.58286e-05
5.58703e-05
5.59141e-05
5.59601e-05
5.60082e-05
5.60586e-05
5.61111e-05
5.61657e-05
5.62225e-05
5.62814e-05
5.63423e-05
5.64052e-05
5.64697e-05
5.65352e-05
5.66004e-05
5.66625e-05
5.67161e-05
5.67516e-05
5.67523e-05
5.66909e-05
5.65246e-05
5.61882e-05
5.55866e-05
5.45806e-05
5.29518e-05
5.03725e-05
4.66745e-05
4.23321e-05
3.50457e-05
1.44566e-05
0.264981
0.288505
0.210531
0.143456
0.0970733
0.066601
0.0468321
0.0338785
0.0251987
0.0192291
0.0150191
0.011982
0.00974662
0.00807091
0.00679304
0.00580221
0.00502125
0.00439574
0.00388686
0.00346675
0.0031152
0.00281742
0.00256245
0.00234209
0.00215009
0.0019816
0.00183285
0.00170082
0.00158307
0.00147762
0.00138283
0.00129734
0.00122001
0.00114987
0.00108609
0.00102797
0.000974913
0.000926387
0.000881936
0.000841163
0.000803719
0.000769297
0.000737636
0.000708499
0.000681667
0.00065694
0.000634137
0.000613094
0.000593663
0.000575709
0.00055911
0.000543755
0.000529544
0.000516386
0.000504197
0.000492903
0.000482432
0.000472722
0.000463716
0.00045536
0.000447606
0.000440412
0.000433738
0.00042755
0.000421818
0.000416516
0.00041162
0.000407112
0.000402973
0.000399189
0.000395742
0.000392616
0.000389794
0.000387254
0.000384976
0.000382935
0.000381105
0.00037946
0.000377976
0.000376629
0.000375397
0.000374263
0.000373212
0.000372232
0.000371313
0.000370451
0.000369639
0.000368873
0.000368151
0.00036747
0.000366828
0.000366222
0.00036565
0.000365108
0.000364596
0.00036411
0.000363647
0.000363206
0.000362784
0.000362379
0.000361989
0.000361612
0.000361248
0.000360897
0.000360557
0.000360232
0.000359922
0.00035963
0.00035936
0.000359117
0.000358904
0.000358724
0.000358582
0.000358478
0.000358412
0.000358382
0.000358385
0.000358417
0.000358471
0.000358542
0.000358624
0.00035871
0.000358797
0.00035888
0.000358957
0.000359025
0.000359085
0.000359136
0.000359176
0.000359208
0.00035923
0.000359244
0.000359249
0.000359246
0.000359236
0.000359219
0.000359194
0.000359164
0.000359128
0.000359088
0.000359045
0.000358999
0.000358954
0.000358911
0.000358871
0.000358836
0.000358807
0.000358786
0.000358773
0.000358769
0.000358773
0.000358785
0.000358804
0.000358829
0.000358858
0.000358892
0.000358927
0.000358964
0.000359002
0.000359039
0.000359075
0.00035911
0.000359143
0.000359175
0.000359204
0.000359231
0.000359256
0.000359279
0.000359299
0.000359318
0.000359335
0.000359351
0.000359367
0.000359381
0.000359397
0.000359413
0.000359431
0.000359451
0.000359475
0.000359501
0.000359532
0.000359565
0.000359601
0.00035964
0.000359679
0.000359719
0.000359757
0.000359793
0.000359825
0.000359854
0.000359878
0.000359897
0.000359911
0.000359922
0.000359929
0.000359933
0.000359935
0.000359937
0.000359939
0.000359941
0.000359946
0.000359952
0.00035996
0.000359972
0.000359986
0.000360003
0.000360023
0.000360047
0.000360074
0.000360104
0.000360137
0.000360173
0.000360212
0.000360254
0.000360297
0.000360341
0.000360386
0.000360431
0.000360476
0.000360519
0.000360562
0.000360602
0.000360641
0.000360679
0.000360714
0.000360748
0.00036078
0.00036081
0.000360838
0.000360866
0.000360892
0.000360917
0.000360941
0.000360965
0.000360989
0.000361013
0.000361038
0.000361063
0.000361088
0.000361115
0.000361141
0.000361169
0.000361197
0.000361225
0.000361253
0.000361281
0.000361309
0.000361337
0.000361365
0.000361392
0.00036142
0.000361448
0.000361476
0.000361504
0.000361533
0.000361562
0.000361591
0.000361622
0.000361652
0.000361684
0.000361715
0.000361748
0.00036178
0.000361813
0.000361847
0.000361881
0.000361915
0.00036195
0.000361985
0.00036202
0.000362055
0.000362091
0.000362126
0.000362161
0.000362196
0.000362231
0.000362266
0.000362301
0.000362335
0.00036237
0.000362405
0.00036244
0.000362476
0.000362511
0.000362547
0.000362584
0.00036262
0.000362658
0.000362695
0.000362733
0.000362771
0.000362809
0.000362847
0.000362886
0.000362925
0.000362964
0.000363003
0.000363042
0.000363082
0.000363121
0.000363161
0.0003632
0.00036324
0.00036328
0.00036332
0.00036336
0.0003634
0.000363441
0.000363481
0.000363522
0.000363562
0.000363603
0.000363643
0.000363684
0.000363725
0.000363766
0.000363807
0.000363848
0.000363889
0.000363931
0.000363972
0.000364013
0.000364055
0.000364096
0.000364138
0.00036418
0.000364221
0.000364263
0.000364305
0.000364347
0.000364389
0.000364431
0.000364473
0.000364516
0.000364558
0.0003646
0.000364643
0.000364685
0.000364728
0.00036477
0.000364813
0.000364856
0.000364898
0.000364941
0.000364984
0.000365027
0.00036507
0.000365113
0.000365156
0.0003652
0.000365243
0.000365286
0.000365329
0.000365373
0.000365416
0.00036546
0.000365504
0.000365547
0.000365591
0.000365635
0.000365679
0.000365722
0.000365766
0.00036581
0.000365854
0.000365898
0.000365943
0.000365987
0.000366031
0.000366075
0.00036612
0.000366164
0.000366209
0.000366253
0.000366298
0.000366342
0.000366387
0.000366431
0.000366476
0.000366521
0.000366566
0.000366611
0.000366656
0.000366701
0.000366746
0.000366791
0.000366836
0.000366881
0.000366926
0.000366971
0.000367016
0.000367062
0.000367107
0.000367153
0.000367198
0.000367243
0.000367289
0.000367334
0.00036738
0.000367426
0.000367471
0.000367517
0.000367563
0.000367609
0.000367654
0.0003677
0.000367746
0.000367792
0.000367838
0.000367884
0.00036793
0.000367976
0.000368022
0.000368068
0.000368114
0.000368161
0.000368207
0.000368253
0.000368299
0.000368345
0.000368392
0.000368438
0.000368485
0.000368531
0.000368577
0.000368624
0.00036867
0.000368717
0.000368763
0.00036881
0.000368857
0.000368903
0.00036895
0.000368996
0.000369043
0.00036909
0.000369137
0.000369183
0.00036923
0.000369277
0.000369324
0.00036937
0.000369417
0.000369464
0.000369511
0.000369558
0.000369605
0.000369652
0.000369699
0.000369745
0.000369792
0.000369839
0.000369886
0.000369933
0.00036998
0.000370027
0.000370074
0.000370121
0.000370169
0.000370216
0.000370263
0.00037031
0.000370357
0.000370404
0.000370451
0.000370498
0.000370545
0.000370592
0.00037064
0.000370687
0.000370734
0.000370781
0.000370828
0.000370875
0.000370922
0.000370969
0.000371017
0.000371064
0.000371111
0.000371158
0.000371205
0.000371252
0.000371299
0.000371346
0.000371394
0.000371441
0.000371488
0.000371535
0.000371582
0.000371629
0.000371676
0.000371723
0.00037177
0.000371817
0.000371864
0.000371911
0.000371959
0.000372006
0.000372053
0.0003721
0.000372147
0.000372194
0.00037224
0.000372287
0.000372334
0.000372381
0.000372428
0.000372475
0.000372522
0.000372569
0.000372616
0.000372662
0.000372709
0.000372756
0.000372803
0.000372849
0.000372896
0.000372943
0.00037299
0.000373036
0.000373083
0.000373129
0.000373176
0.000373222
0.000373269
0.000373316
0.000373362
0.000373408
0.000373455
0.000373501
0.000373548
0.000373594
0.00037364
0.000373687
0.000373733
0.000373779
0.000373825
0.000373871
0.000373917
0.000373964
0.00037401
0.000374056
0.000374102
0.000374147
0.000374193
0.000374239
0.000374285
0.000374331
0.000374377
0.000374422
0.000374468
0.000374514
0.000374559
0.000374605
0.00037465
0.000374696
0.000374741
0.000374787
0.000374832
0.000374877
0.000374923
0.000374968
0.000375013
0.000375058
0.000375103
0.000375148
0.000375193
0.000375238
0.000375283
0.000375328
0.000375372
0.000375417
0.000375462
0.000375507
0.000375551
0.000375596
0.00037564
0.000375684
0.000375729
0.000375773
0.000375817
0.000375862
0.000375906
0.00037595
0.000375994
0.000376038
0.000376082
0.000376126
0.000376169
0.000376213
0.000376257
0.0003763
0.000376344
0.000376387
0.000376431
0.000376474
0.000376517
0.000376561
0.000376604
0.000376647
0.00037669
0.000376733
0.000376776
0.000376819
0.000376861
0.000376904
0.000376947
0.000376989
0.000377032
0.000377074
0.000377117
0.000377159
0.000377201
0.000377243
0.000377285
0.000377327
0.000377369
0.000377411
0.000377453
0.000377494
0.000377536
0.000377578
0.000377619
0.00037766
0.000377702
0.000377743
0.000377784
0.000377825
0.000377866
0.000377907
0.000377948
0.000377989
0.000378029
0.00037807
0.00037811
0.000378151
0.000378191
0.000378231
0.000378271
0.000378312
0.000378352
0.000378391
0.000378431
0.000378471
0.000378511
0.00037855
0.00037859
0.000378629
0.000378668
0.000378708
0.000378747
0.000378786
0.000378825
0.000378863
0.000378902
0.000378941
0.000378979
0.000379018
0.000379056
0.000379094
0.000379132
0.000379171
0.000379208
0.000379246
0.000379284
0.000379322
0.000379359
0.000379397
0.000379434
0.000379472
0.000379509
0.000379546
0.000379583
0.00037962
0.000379656
0.000379693
0.00037973
0.000379766
0.000379803
0.000379839
0.000379875
0.000379911
0.000379947
0.000379983
0.000380019
0.000380054
0.00038009
0.000380125
0.00038016
0.000380195
0.00038023
0.000380265
0.0003803
0.000380335
0.00038037
0.000380404
0.000380439
0.000380473
0.000380507
0.000380541
0.000380575
0.000380609
0.000380643
0.000380676
0.00038071
0.000380743
0.000380776
0.000380809
0.000380842
0.000380875
0.000380908
0.000380941
0.000380973
0.000381006
0.000381038
0.00038107
0.000381102
0.000381134
0.000381166
0.000381197
0.000381229
0.00038126
0.000381292
0.000381323
0.000381354
0.000381385
0.000381416
0.000381447
0.000381477
0.000381508
0.000381538
0.000381568
0.000381598
0.000381628
0.000381658
0.000381687
0.000381717
0.000381746
0.000381775
0.000381805
0.000381834
0.000381862
0.000381891
0.00038192
0.000381948
0.000381976
0.000382005
0.000382033
0.000382061
0.000382088
0.000382116
0.000382144
0.000382171
0.000382198
0.000382225
0.000382252
0.000382279
0.000382306
0.000382332
0.000382359
0.000382385
0.000382411
0.000382437
0.000382463
0.000382489
0.000382514
0.00038254
0.000382565
0.00038259
0.000382615
0.00038264
0.000382664
0.000382689
0.000382713
0.000382738
0.000382762
0.000382786
0.000382809
0.000382833
0.000382857
0.00038288
0.000382903
0.000382926
0.000382949
0.000382972
0.000382995
0.000383017
0.000383039
0.000383062
0.000383084
0.000383105
0.000383127
0.000383149
0.00038317
0.000383191
0.000383212
0.000383233
0.000383254
0.000383275
0.000383295
0.000383316
0.000383336
0.000383356
0.000383376
0.000383395
0.000383415
0.000383434
0.000383453
0.000383472
0.000383491
0.00038351
0.000383529
0.000383547
0.000383565
0.000383583
0.000383601
0.000383619
0.000383637
0.000383654
0.000383671
0.000383689
0.000383705
0.000383722
0.000383739
0.000383755
0.000383772
0.000383788
0.000383804
0.00038382
0.000383835
0.000383851
0.000383866
0.000383881
0.000383896
0.000383911
0.000383926
0.00038394
0.000383955
0.000383969
0.000383983
0.000383997
0.00038401
0.000384024
0.000384037
0.00038405
0.000384063
0.000384076
0.000384089
0.000384101
0.000384114
0.000384126
0.000384138
0.00038415
0.000384162
0.000384173
0.000384184
0.000384196
0.000384207
0.000384218
0.000384228
0.000384239
0.000384249
0.00038426
0.00038427
0.00038428
0.000384289
0.000384299
0.000384308
0.000384318
0.000384327
0.000384336
0.000384345
0.000384353
0.000384362
0.00038437
0.000384379
0.000384387
0.000384395
0.000384403
0.00038441
0.000384418
0.000384425
0.000384433
0.00038444
0.000384447
0.000384454
0.000384461
0.000384468
0.000384474
0.000384481
0.000384487
0.000384494
0.0003845
0.000384506
0.000384512
0.000384518
0.000384525
0.00038453
0.000384536
0.000384542
0.000384548
0.000384554
0.00038456
0.000384566
0.000384571
0.000384577
0.000384583
0.000384589
0.000384595
0.000384601
0.000384607
0.000384613
0.00038462
0.000384626
0.000384632
0.000384639
0.000384646
0.000384653
0.00038466
0.000384668
0.000384675
0.000384683
0.000384692
0.0003847
0.000384709
0.000384718
0.000384727
0.000384737
0.000384747
0.000384758
0.000384769
0.000384781
0.000384793
0.000384805
0.000384818
0.000384832
0.000384846
0.000384861
0.000384876
0.000384892
0.000384908
0.000384925
0.000384942
0.000384961
0.000384979
0.000384998
0.000385018
0.000385038
0.000385058
0.000385078
0.000385099
0.00038512
0.000385141
0.000385161
0.000385181
0.000385201
0.00038522
0.000385237
0.000385254
0.000385268
0.000385281
0.000385291
0.000385297
0.0003853
0.000385298
0.00038529
0.000385275
0.000385251
0.000385218
0.000385172
0.000385113
0.000385036
0.000384939
0.000384818
0.000384668
0.000384486
0.000384263
0.000383994
0.00038367
0.00038328
0.000382812
0.000382248
0.000381566
0.000380735
0.000379707
0.000378414
0.000376748
0.00037455
0.00037158
0.000367486
0.000361765
0.000353713
0.00034238
0.000326522
0.000304604
0.000274895
0.00023571
0.00018567
0.000125118
6.68213e-05
0.212947
0.314137
0.286029
0.228995
0.175163
0.132144
0.0998357
0.0761132
0.0587636
0.0460166
0.036573
0.0295078
0.0241655
0.0200805
0.0169197
0.014443
0.0124767
0.0108943
0.0096037
0.00853709
0.00764466
0.00688942
0.00624369
0.00568653
0.0052019
0.00477737
0.00440318
0.00407154
0.0037762
0.00351205
0.00327489
0.00306124
0.00286818
0.00269324
0.00253433
0.00238966
0.0022577
0.00213712
0.00202677
0.00192564
0.00183284
0.00174758
0.00166918
0.00159701
0.00153052
0.00146921
0.00141264
0.00136041
0.00131214
0.00126752
0.00122624
0.00118804
0.00115266
0.00111988
0.00108951
0.00106135
0.00103523
0.001011
0.000988519
0.000967658
0.000948299
0.000930338
0.00091368
0.000898241
0.000883948
0.000870736
0.000858548
0.000847336
0.000837054
0.000827662
0.000819118
0.000811379
0.000804398
0.000798126
0.000792505
0.000787476
0.000782975
0.000778939
0.000775305
0.000772016
0.000769018
0.000766267
0.000763726
0.000761363
0.000759155
0.000757085
0.000755138
0.000753306
0.000751578
0.000749948
0.00074841
0.000746958
0.000745585
0.000744286
0.000743054
0.000741884
0.00074077
0.000739707
0.00073869
0.000737714
0.000736775
0.00073587
0.000734997
0.000734157
0.000733349
0.000732578
0.000731849
0.000731169
0.000730546
0.00072999
0.00072951
0.000729115
0.00072881
0.000728598
0.00072848
0.000728449
0.000728498
0.000728616
0.000728788
0.000729001
0.00072924
0.000729492
0.000729745
0.000729991
0.000730222
0.000730433
0.000730622
0.000730786
0.000730927
0.000731043
0.000731135
0.000731205
0.000731253
0.00073128
0.000731287
0.000731275
0.000731246
0.000731202
0.000731144
0.000731075
0.000730999
0.000730919
0.000730839
0.000730763
0.000730695
0.00073064
0.0007306
0.000730578
0.000730576
0.000730595
0.000730633
0.000730691
0.000730765
0.000730854
0.000730954
0.000731062
0.000731177
0.000731294
0.000731413
0.000731531
0.000731646
0.000731758
0.000731866
0.000731968
0.000732065
0.000732157
0.000732243
0.000732323
0.000732398
0.000732469
0.000732536
0.000732599
0.00073266
0.000732721
0.000732783
0.000732847
0.000732916
0.00073299
0.000733072
0.000733161
0.000733258
0.000733362
0.000733473
0.000733589
0.000733707
0.000733824
0.000733938
0.000734047
0.000734147
0.000734237
0.000734317
0.000734384
0.000734441
0.000734488
0.000734526
0.000734557
0.000734583
0.000734608
0.000734632
0.000734657
0.000734686
0.00073472
0.000734759
0.000734804
0.000734857
0.000734916
0.000734984
0.000735059
0.000735143
0.000735234
0.000735334
0.00073544
0.000735553
0.000735671
0.000735794
0.000735919
0.000736047
0.000736174
0.0007363
0.000736423
0.000736544
0.000736661
0.000736773
0.000736881
0.000736984
0.000737083
0.000737177
0.000737267
0.000737352
0.000737435
0.000737514
0.000737591
0.000737666
0.00073774
0.000737813
0.000737886
0.00073796
0.000738035
0.00073811
0.000738188
0.000738266
0.000738346
0.000738426
0.000738507
0.000738588
0.000738669
0.00073875
0.00073883
0.00073891
0.000738989
0.000739069
0.000739148
0.000739228
0.000739309
0.00073939
0.000739472
0.000739556
0.00073964
0.000739726
0.000739813
0.000739901
0.00073999
0.00074008
0.000740171
0.000740263
0.000740356
0.00074045
0.000740544
0.000740639
0.000740734
0.00074083
0.000740925
0.000741021
0.000741116
0.00074121
0.000741304
0.000741398
0.000741492
0.000741585
0.000741679
0.000741772
0.000741867
0.000741961
0.000742056
0.000742152
0.000742249
0.000742346
0.000742445
0.000742543
0.000742643
0.000742743
0.000742843
0.000742944
0.000743045
0.000743147
0.000743249
0.000743351
0.000743453
0.000743556
0.000743658
0.000743761
0.000743864
0.000743968
0.000744071
0.000744174
0.000744278
0.000744381
0.000744485
0.000744589
0.000744693
0.000744797
0.000744901
0.000745005
0.00074511
0.000745214
0.000745318
0.000745423
0.000745528
0.000745632
0.000745737
0.000745842
0.000745947
0.000746052
0.000746157
0.000746263
0.000746368
0.000746473
0.000746578
0.000746684
0.000746789
0.000746895
0.000747
0.000747106
0.000747212
0.000747317
0.000747423
0.000747529
0.000747635
0.000747741
0.000747847
0.000747953
0.000748059
0.000748166
0.000748272
0.000748378
0.000748485
0.000748591
0.000748698
0.000748804
0.000748911
0.000749017
0.000749124
0.000749231
0.000749338
0.000749445
0.000749552
0.000749659
0.000749766
0.000749873
0.00074998
0.000750087
0.000750194
0.000750302
0.000750409
0.000750516
0.000750624
0.000750731
0.000750839
0.000750946
0.000751054
0.000751162
0.000751269
0.000751377
0.000751485
0.000751593
0.000751701
0.000751809
0.000751917
0.000752025
0.000752133
0.000752241
0.000752349
0.000752457
0.000752565
0.000752674
0.000752782
0.00075289
0.000752999
0.000753107
0.000753216
0.000753324
0.000753433
0.000753541
0.00075365
0.000753759
0.000753868
0.000753976
0.000754085
0.000754194
0.000754303
0.000754412
0.000754521
0.00075463
0.000754739
0.000754848
0.000754957
0.000755066
0.000755176
0.000755285
0.000755394
0.000755503
0.000755613
0.000755722
0.000755831
0.000755941
0.00075605
0.00075616
0.000756269
0.000756379
0.000756488
0.000756598
0.000756707
0.000756817
0.000756927
0.000757036
0.000757146
0.000757256
0.000757366
0.000757476
0.000757586
0.000757695
0.000757805
0.000757915
0.000758025
0.000758135
0.000758245
0.000758355
0.000758465
0.000758575
0.000758685
0.000758795
0.000758905
0.000759015
0.000759126
0.000759236
0.000759346
0.000759456
0.000759566
0.000759677
0.000759787
0.000759897
0.000760008
0.000760118
0.000760228
0.000760339
0.000760449
0.000760559
0.00076067
0.00076078
0.00076089