/*--------------------------------*- C++ -*----------------------------------*\
| =========                 |                                                 |
| \\      /  F ield         | OpenFOAM: The Open Source CFD Toolbox           |
|  \\    /   O peration     | Version:  2512                                  |
|   \\  /    A nd           | Website:  www.openfoam.com                      |
|    \\/     M anipulation  |                                                 |
\*---------------------------------------------------------------------------*/
FoamFile
{
    version     2.0;
    format      ascii;
    arch        "LSB;label=32;scalar=64";
    class       volVectorField;
    location    "0.1";
    object      B;
}
// * * * * * * * * * * * * * * * * * * * * * * * * * * * * * * * * * * * * * //

dimensions      [1 0 -2 0 0 -1 0];

internalField   nonuniform List<vector> 
8334
(
(-5.09193e-06 20 2.66123e-19)
(-5.08636e-06 20 2.66195e-19)
(-5.08414e-06 20 2.4542e-19)
(-5.08338e-06 20 2.71735e-19)
(-5.08142e-06 20 2.68184e-19)
(-5.07766e-06 20 2.65597e-19)
(-5.07401e-06 20 2.41883e-19)
(-5.07067e-06 20 2.66835e-19)
(-5.06681e-06 20 2.62127e-19)
(-5.0633e-06 20 2.59657e-19)
(-5.06026e-06 20 2.37647e-19)
(-5.05712e-06 20 2.6265e-19)
(-5.05413e-06 20 2.57917e-19)
(-5.05155e-06 20 2.52406e-19)
(-5.0492e-06 20 2.31326e-19)
(-5.04705e-06 20 2.41962e-19)
(-5.04515e-06 20 2.52568e-19)
(-5.04356e-06 20 2.01128e-19)
(-5.04226e-06 20 2.09574e-19)
(-5.04123e-06 20 1.68715e-19)
(-5.04045e-06 20 1.62363e-19)
(-5.03987e-06 20 7.66713e-20)
(-5.03955e-06 20 7.01472e-20)
(-5.03936e-06 20 3.74158e-20)
(-5.03941e-06 20 5.53645e-20)
(-5.03953e-06 20 -1.2738e-21)
(-5.03965e-06 20 1.728e-20)
(-5.04006e-06 20 3.75442e-21)
(-5.0402e-06 20 3.34637e-20)
(-5.04072e-06 20 -1.51809e-20)
(-5.04078e-06 20 6.74868e-21)
(-5.04023e-06 20 -6.4988e-21)
(-5.04121e-06 20 2.38358e-20)
(-5.04005e-06 20 -2.57136e-20)
(-5.04046e-06 20 2.24783e-23)
(-5.04042e-06 20 -1.16736e-20)
(-5.03818e-06 20 2.20014e-20)
(-5.04349e-06 20 -2.69388e-20)
(-5.05041e-06 20 -2.77469e-21)
(-5.05201e-06 20 -1.32911e-20)
(-5.05128e-06 20 1.78268e-20)
(-5.05049e-06 20 -3.17967e-20)
(-5.04936e-06 20 -7.14866e-21)
(-5.04774e-06 20 -1.53449e-20)
(-5.04577e-06 20 1.88258e-20)
(-5.0436e-06 20 -2.8362e-20)
(-5.04126e-06 20 -4.08711e-21)
(-5.0388e-06 20 -1.40525e-20)
(-5.03626e-06 20 2.09678e-20)
(-5.03367e-06 20 -2.95649e-20)
(-5.03104e-06 20 -6.63657e-21)
(-5.02841e-06 20 -1.46124e-20)
(-5.02579e-06 20 1.6206e-20)
(-5.02318e-06 20 -3.40483e-20)
(-5.02061e-06 20 -1.07602e-20)
(-5.01806e-06 20 -1.86642e-20)
(-5.01556e-06 20 1.46169e-20)
(-5.01309e-06 20 -3.27722e-20)
(-5.01067e-06 20 -8.53855e-21)
(-5.0083e-06 20 -1.66261e-20)
(-5.00596e-06 20 1.90295e-20)
(-5.00367e-06 20 -2.96899e-20)
(-5.00142e-06 20 -5.04406e-21)
(-4.99921e-06 20 -1.40764e-20)
(-4.99704e-06 20 1.84836e-20)
(-4.99491e-06 20 -2.99136e-20)
(-4.99281e-06 20 -4.75333e-21)
(-4.99074e-06 20 -1.12107e-20)
(-4.9887e-06 20 2.27381e-20)
(-4.98669e-06 20 -2.82331e-20)
(-4.98471e-06 20 -4.28371e-21)
(-4.98276e-06 20 -1.29949e-20)
(-4.98083e-06 20 2.04226e-20)
(-4.97892e-06 20 -3.01608e-20)
(-4.97703e-06 20 -5.15151e-21)
(-4.97516e-06 20 -1.49874e-20)
(-4.9733e-06 20 1.65742e-20)
(-4.97146e-06 20 -3.65833e-20)
(-4.96964e-06 20 -1.69215e-20)
(-4.96783e-06 20 -1.49948e-20)
(-4.96603e-06 20 -1.47896e-20)
(-4.96425e-06 20 -1.55306e-20)
(-4.96247e-06 20 -2.68271e-20)
(-4.96071e-06 20 -6.49759e-20)
(-4.95895e-06 20 -2.30128e-20)
(-4.9572e-06 20 -1.78285e-20)
(-4.95545e-06 20 -7.17895e-21)
(-4.95372e-06 20 -8.44467e-21)
(-4.95198e-06 20 -1.30471e-20)
(-4.95026e-06 20 -8.30387e-21)
(-4.94853e-06 20 -1.81298e-20)
(-4.94681e-06 20 -5.48541e-20)
(-4.9451e-06 20 -1.20683e-20)
(-4.94338e-06 20 -7.51358e-21)
(-4.94167e-06 20 6.59644e-22)
(-4.93996e-06 20 -2.97413e-21)
(-4.93825e-06 20 -8.25962e-21)
(-4.93654e-06 20 -4.86005e-21)
(-4.93483e-06 20 -2.25949e-20)
(-4.93313e-06 20 -4.7775e-20)
(-4.93142e-06 20 -3.48447e-20)
(-4.92972e-06 20 2.44508e-20)
(-4.92801e-06 20 -3.92779e-20)
(-4.9263e-06 20 1.38929e-20)
(-4.92459e-06 20 1.79499e-20)
(-4.92288e-06 20 3.38557e-20)
(-4.92117e-06 20 -3.97977e-21)
(-4.91946e-06 20 -1.51638e-20)
(-4.91775e-06 20 -4.01951e-20)
(-4.91604e-06 20 5.42792e-21)
(-4.91432e-06 20 -6.13072e-20)
(-4.9126e-06 20 -2.1142e-22)
(-4.91088e-06 20 1.0736e-20)
(-4.90916e-06 20 2.87341e-20)
(-4.90744e-06 20 -6.7012e-21)
(-4.90571e-06 20 -1.72222e-20)
(-4.90399e-06 20 -4.19059e-20)
(-4.90226e-06 20 4.59768e-21)
(-4.90054e-06 20 -6.18563e-20)
(-4.89881e-06 20 1.68223e-21)
(-4.89709e-06 20 8.98476e-21)
(-4.89535e-06 20 3.4236e-20)
(-4.89362e-06 20 -7.65007e-21)
(-4.89188e-06 20 -1.18414e-20)
(-4.89013e-06 20 8.60322e-21)
(-4.88837e-06 20 4.4629e-20)
(-4.8866e-06 20.0001 -5.17257e-21)
(-4.88483e-06 20.0001 2.76841e-21)
(-4.88306e-06 20.0001 7.28012e-21)
(-4.88128e-06 20.0001 5.65417e-21)
(-4.87949e-06 20.0001 -1.31165e-21)
(-4.87769e-06 20.0001 8.10942e-21)
(-4.87589e-06 20.0001 3.06616e-20)
(-4.87408e-06 20.0001 6.18995e-20)
(-4.87226e-06 20.0001 3.89988e-21)
(-4.87043e-06 20.0001 1.00006e-20)
(-4.8686e-06 20.0001 1.33382e-20)
(-4.86676e-06 20.0001 8.94203e-21)
(-4.86492e-06 20.0001 2.28181e-21)
(-4.86307e-06 20.0001 6.24631e-21)
(-4.86121e-06 20.0001 3.6393e-20)
(-4.85935e-06 20.0001 5.18518e-20)
(-4.85748e-06 20.0001 1.39013e-20)
(-4.85561e-06 20.0001 -9.27699e-21)
(-4.85373e-06 20.0001 -2.57422e-20)
(-4.85184e-06 20.0001 -1.13136e-20)
(-4.84994e-06 20.0001 -4.45445e-20)
(-4.84804e-06 20.0001 -3.33697e-20)
(-4.84613e-06 20.0001 -5.57787e-20)
(-4.84421e-06 20.0001 -3.27436e-21)
(-4.84229e-06 20.0001 -2.10486e-20)
(-4.84035e-06 20.0001 -2.45733e-20)
(-4.83841e-06 20.0001 -2.94227e-20)
(-4.83645e-06 20.0001 -1.13643e-20)
(-4.83448e-06 20.0001 -4.54214e-20)
(-4.83251e-06 20.0001 -3.6012e-20)
(-4.83052e-06 20.0001 -5.73125e-20)
(-4.82852e-06 20.0001 -2.23627e-21)
(-4.82652e-06 20.0001 -1.75646e-20)
(-4.8245e-06 20.0001 -2.09672e-20)
(-4.82248e-06 20.0001 -2.66918e-20)
(-4.82045e-06 20.0001 -1.33247e-20)
(-4.81842e-06 20.0001 -3.85486e-20)
(-4.81638e-06 20.0001 -4.3151e-20)
(-4.81434e-06 20.0001 -4.02755e-20)
(-4.8123e-06 20.0001 -2.81163e-20)
(-4.81026e-06 20.0001 -3.268e-20)
(-4.80823e-06 20.0001 -6.26101e-20)
(-4.8062e-06 20.0001 -1.31286e-20)
(-4.80418e-06 20.0001 -8.56651e-21)
(-4.80218e-06 20.0001 2.7237e-21)
(-4.8002e-06 20.0001 -7.81769e-22)
(-4.79824e-06 20.0001 -3.38092e-21)
(-4.79631e-06 20.0001 -2.09734e-21)
(-4.79444e-06 20.0001 -1.56276e-20)
(-4.79262e-06 20.0001 -5.27431e-20)
(-4.7909e-06 20.0001 -4.61075e-21)
(-4.7893e-06 20.0001 -1.38155e-21)
(-4.78791e-06 20.0001 6.02791e-21)
(-4.78674e-06 20.0001 5.35655e-21)
(-4.78602e-06 20.0001 3.12596e-21)
(-4.78569e-06 20.0001 1.2498e-20)
(-4.78597e-06 20.0001 -9.02102e-21)
(-4.78682e-06 20.0001 -1.56267e-20)
(-4.78789e-06 20.0001 -7.91459e-21)
(-1.52209e-05 20 2.59569e-19)
(-1.52134e-05 20 1.86426e-19)
(-1.5211e-05 20 2.56093e-19)
(-1.52065e-05 20 2.26491e-19)
(-1.51998e-05 20 2.59822e-19)
(-1.51936e-05 20 1.84301e-19)
(-1.51873e-05 20 2.52269e-19)
(-1.51803e-05 20 2.2212e-19)
(-1.51738e-05 20 2.5532e-19)
(-1.51677e-05 20 1.80834e-19)
(-1.51615e-05 20 2.49046e-19)
(-1.51554e-05 20 2.19129e-19)
(-1.51498e-05 20 2.46435e-19)
(-1.51444e-05 20 1.80327e-19)
(-1.51392e-05 20 2.13124e-19)
(-1.51343e-05 20 2.3899e-19)
(-1.51296e-05 20 1.49946e-19)
(-1.51253e-05 20 1.93348e-19)
(-1.51212e-05 20 1.04774e-19)
(-1.51174e-05 20 1.16998e-19)
(-1.51138e-05 20 -4.16919e-20)
(-1.51104e-05 20 -2.2263e-20)
(-1.51072e-05 20 -9.43035e-20)
(-1.51042e-05 20 -3.94525e-20)
(-1.51013e-05 20 -1.50582e-19)
(-1.50984e-05 20 -9.11199e-20)
(-1.50957e-05 20 -1.34605e-19)
(-1.50929e-05 20 -6.38019e-20)
(-1.50902e-05 20 -1.64757e-19)
(-1.50874e-05 20 -1.00434e-19)
(-1.50835e-05 20 -1.43219e-19)
(-1.50815e-05 20 -7.15401e-20)
(-1.5077e-05 20 -1.73426e-19)
(-1.50737e-05 20 -1.05425e-19)
(-1.50713e-05 20 -1.4663e-19)
(-1.50644e-05 20 -7.14839e-20)
(-1.50647e-05 20 -1.72741e-19)
(-1.50694e-05 20 -1.07194e-19)
(-1.50692e-05 20 -1.4682e-19)
(-1.50656e-05 20 -7.48687e-20)
(-1.50616e-05 20 -1.7701e-19)
(-1.50575e-05 20 -1.11057e-19)
(-1.50528e-05 20 -1.49235e-19)
(-1.50477e-05 20 -7.35434e-20)
(-1.50424e-05 20 -1.73908e-19)
(-1.50369e-05 20 -1.08014e-19)
(-1.50312e-05 20 -1.47501e-19)
(-1.50255e-05 20 -7.10328e-20)
(-1.50197e-05 20 -1.74163e-19)
(-1.50139e-05 20 -1.1032e-19)
(-1.50081e-05 20 -1.47551e-19)
(-1.50023e-05 20 -7.58494e-20)
(-1.49965e-05 20 -1.79035e-19)
(-1.49907e-05 20 -1.14964e-19)
(-1.4985e-05 20 -1.51755e-19)
(-1.49793e-05 20 -7.72436e-20)
(-1.49736e-05 20 -1.77784e-19)
(-1.4968e-05 20 -1.12071e-19)
(-1.49625e-05 20 -1.50219e-19)
(-1.49569e-05 20 -7.27716e-20)
(-1.49515e-05 20 -1.74649e-19)
(-1.4946e-05 20 -1.09111e-19)
(-1.49406e-05 20 -1.47196e-19)
(-1.49352e-05 20 -7.32243e-20)
(-1.49299e-05 20 -1.74692e-19)
(-1.49246e-05 20 -1.07729e-19)
(-1.49193e-05 20 -1.43173e-19)
(-1.49141e-05 20 -6.87174e-20)
(-1.49089e-05 20 -1.73606e-19)
(-1.49037e-05 20 -1.08211e-19)
(-1.48985e-05 20 -1.45732e-19)
(-1.48934e-05 20 -7.09169e-20)
(-1.48883e-05 20 -1.74792e-19)
(-1.48832e-05 20 -1.08405e-19)
(-1.48781e-05 20 -1.45891e-19)
(-1.4873e-05 20 -7.76878e-20)
(-1.48679e-05 20 -1.71062e-19)
(-1.48629e-05 20 -1.39855e-19)
(-1.48578e-05 20 -1.09631e-19)
(-1.48528e-05 20 -1.52549e-19)
(-1.48478e-05 20 -1.18299e-19)
(-1.48428e-05 20 -1.55546e-19)
(-1.48378e-05 20 -1.70908e-19)
(-1.48328e-05 20 -1.13234e-19)
(-1.48278e-05 20 -1.0341e-19)
(-1.48228e-05 20 -8.87225e-20)
(-1.48178e-05 20 -8.87635e-20)
(-1.48128e-05 20 -1.02607e-19)
(-1.48078e-05 20 -7.67044e-20)
(-1.48028e-05 20 -1.3021e-19)
(-1.47978e-05 20 -1.55177e-19)
(-1.47928e-05 20 -1.02761e-19)
(-1.47879e-05 20 -9.35206e-20)
(-1.47829e-05 20 -8.25817e-20)
(-1.47779e-05 20 -8.32954e-20)
(-1.47729e-05 20 -9.79821e-20)
(-1.47679e-05 20 -7.25226e-20)
(-1.47629e-05 20 -1.36135e-19)
(-1.47579e-05 20 -1.43977e-19)
(-1.47529e-05 20 -1.33802e-19)
(-1.47479e-05 20 -4.85275e-20)
(-1.47429e-05 20 -1.31393e-19)
(-1.47379e-05 20 -4.54018e-20)
(-1.47329e-05 20 -6.93913e-20)
(-1.47278e-05 20 -2.60862e-20)
(-1.47228e-05 20 -1.21839e-19)
(-1.47178e-05 20 -1.1604e-19)
(-1.47128e-05 20 -1.4516e-19)
(-1.47077e-05 20 -1.1954e-19)
(-1.47027e-05 20 -2.13224e-19)
(-1.46976e-05 20 -1.10155e-19)
(-1.46926e-05 20 -1.12178e-19)
(-1.46875e-05 20 -5.3149e-20)
(-1.46825e-05 20 -1.36076e-19)
(-1.46774e-05 20 -1.23435e-19)
(-1.46723e-05 20 -1.50024e-19)
(-1.46672e-05 20 -1.20521e-19)
(-1.46622e-05 20 -2.14029e-19)
(-1.46571e-05 20 -1.09673e-19)
(-1.4652e-05 20 -1.11451e-19)
(-1.46469e-05 20 -5.15542e-20)
(-1.46418e-05 20 -1.22363e-19)
(-1.46367e-05 20 -1.29582e-19)
(-1.46315e-05 20 -7.91829e-20)
(-1.46264e-05 20 -4.41773e-20)
(-1.46213e-05 20.0001 -1.18136e-19)
(-1.46161e-05 20.0001 -7.72248e-20)
(-1.4611e-05 20.0001 -8.36123e-20)
(-1.46058e-05 20.0001 -8.20088e-20)
(-1.46006e-05 20.0001 -9.79284e-20)
(-1.45954e-05 20.0001 -8.0837e-20)
(-1.45902e-05 20.0001 -2.43512e-20)
(-1.4585e-05 20.0001 -3.02706e-21)
(-1.45798e-05 20.0001 -9.33645e-20)
(-1.45745e-05 20.0001 -6.13182e-20)
(-1.45693e-05 20.0001 -7.33024e-20)
(-1.4564e-05 20.0001 -7.61452e-20)
(-1.45588e-05 20.0001 -9.62812e-20)
(-1.45535e-05 20.0001 -7.83222e-20)
(-1.45482e-05 20.0001 -2.96694e-20)
(-1.45429e-05 20.0001 -2.23725e-21)
(-1.45376e-05 20.0001 -1.10451e-19)
(-1.45323e-05 20.0001 -1.01554e-19)
(-1.4527e-05 20.0001 -1.49866e-19)
(-1.45217e-05 20.0001 -1.24519e-19)
(-1.45163e-05 20.0001 -1.79874e-19)
(-1.4511e-05 20.0001 -1.71074e-19)
(-1.45056e-05 20.0001 -1.9696e-19)
(-1.45002e-05 20.0001 -1.07632e-19)
(-1.44948e-05 20.0001 -1.68407e-19)
(-1.44894e-05 20.0001 -1.19195e-19)
(-1.4484e-05 20.0001 -1.48742e-19)
(-1.44786e-05 20.0001 -1.1962e-19)
(-1.44732e-05 20.0001 -1.78682e-19)
(-1.44677e-05 20.0001 -1.72611e-19)
(-1.44622e-05 20.0001 -1.96809e-19)
(-1.44567e-05 20.0001 -1.05311e-19)
(-1.44513e-05 20.0001 -1.64943e-19)
(-1.44457e-05 20.0001 -1.17102e-19)
(-1.44402e-05 20.0001 -1.46771e-19)
(-1.44347e-05 20.0001 -1.22562e-19)
(-1.44292e-05 20.0001 -1.71033e-19)
(-1.44236e-05 20.0001 -1.80806e-19)
(-1.44181e-05 20.0001 -1.81054e-19)
(-1.44125e-05 20.0001 -1.33514e-19)
(-1.4407e-05 20.0001 -1.69835e-19)
(-1.44014e-05 20.0001 -1.78417e-19)
(-1.43958e-05 20.0001 -1.11904e-19)
(-1.43903e-05 20.0001 -1.01269e-19)
(-1.43848e-05 20.0001 -8.33333e-20)
(-1.43792e-05 20.0001 -8.5106e-20)
(-1.43737e-05 20.0001 -9.8149e-20)
(-1.43682e-05 20.0001 -7.56487e-20)
(-1.43628e-05 20.0001 -1.35032e-19)
(-1.43574e-05 20.0001 -1.60331e-19)
(-1.43521e-05 20.0001 -1.01298e-19)
(-1.43469e-05 20.0001 -9.59022e-20)
(-1.43419e-05 20.0001 -8.47566e-20)
(-1.43371e-05 20.0001 -8.64865e-20)
(-1.43328e-05 20.0001 -9.85554e-20)
(-1.43289e-05 20.0001 -7.31047e-20)
(-1.43256e-05 20.0001 -1.30735e-19)
(-1.43231e-05 20.0001 -1.41341e-19)
(-1.43206e-05 20.0001 -1.0157e-19)
(-2.53574e-05 20 2.05104e-19)
(-2.53433e-05 20 1.06577e-19)
(-2.53376e-05 20 2.12281e-19)
(-2.53313e-05 20 1.84009e-19)
(-2.53219e-05 20 2.06116e-19)
(-2.5313e-05 20 1.06114e-19)
(-2.53039e-05 20 2.09367e-19)
(-2.52938e-05 20 1.81459e-19)
(-2.52843e-05 20 2.03947e-19)
(-2.52753e-05 20 1.03745e-19)
(-2.52659e-05 20 2.069e-19)
(-2.52568e-05 20 1.79747e-19)
(-2.52481e-05 20 1.9384e-19)
(-2.52397e-05 20 1.08581e-19)
(-2.52314e-05 20 1.57188e-19)
(-2.52234e-05 20 2.25133e-19)
(-2.52157e-05 20 4.82896e-20)
(-2.52083e-05 20 1.74367e-19)
(-2.52012e-05 20 -2.15632e-20)
(-2.51943e-05 20 5.55508e-20)
(-2.51877e-05 20 -2.25607e-19)
(-2.51813e-05 20 -1.17108e-19)
(-2.5175e-05 20 -2.8072e-19)
(-2.5169e-05 20 -1.42047e-19)
(-2.5163e-05 20 -3.58846e-19)
(-2.51571e-05 20 -1.98261e-19)
(-2.51513e-05 20 -3.25087e-19)
(-2.51455e-05 20 -1.67036e-19)
(-2.51396e-05 20 -3.73172e-19)
(-2.51338e-05 20 -2.05309e-19)
(-2.51267e-05 20 -3.32297e-19)
(-2.51215e-05 20 -1.74158e-19)
(-2.51139e-05 20 -3.78026e-19)
(-2.5107e-05 20 -2.08008e-19)
(-2.51019e-05 20 -3.33058e-19)
(-2.50915e-05 20 -1.71257e-19)
(-2.50869e-05 20 -3.75628e-19)
(-2.50886e-05 20 -2.08258e-19)
(-2.50862e-05 20 -3.32732e-19)
(-2.50797e-05 20 -1.74395e-19)
(-2.50727e-05 20 -3.78871e-19)
(-2.50655e-05 20 -2.1153e-19)
(-2.50578e-05 20 -3.34908e-19)
(-2.50495e-05 20 -1.72321e-19)
(-2.50411e-05 20 -3.77052e-19)
(-2.50324e-05 20 -2.0985e-19)
(-2.50236e-05 20 -3.33027e-19)
(-2.50147e-05 20 -1.69388e-19)
(-2.50057e-05 20 -3.77203e-19)
(-2.49967e-05 20 -2.11564e-19)
(-2.49877e-05 20 -3.33694e-19)
(-2.49787e-05 20 -1.74213e-19)
(-2.49697e-05 20 -3.80704e-19)
(-2.49608e-05 20 -2.1657e-19)
(-2.49519e-05 20 -3.3663e-19)
(-2.4943e-05 20 -1.75028e-19)
(-2.49342e-05 20 -3.80248e-19)
(-2.49254e-05 20 -2.1362e-19)
(-2.49166e-05 20 -3.3466e-19)
(-2.49079e-05 20 -1.71517e-19)
(-2.48992e-05 20 -3.78145e-19)
(-2.48906e-05 20 -2.1109e-19)
(-2.4882e-05 20 -3.32936e-19)
(-2.48734e-05 20 -1.71577e-19)
(-2.48649e-05 20 -3.77576e-19)
(-2.48564e-05 20 -2.08314e-19)
(-2.48479e-05 20 -3.27853e-19)
(-2.48395e-05 20 -1.67231e-19)
(-2.48311e-05 20 -3.76282e-19)
(-2.48227e-05 20 -2.08708e-19)
(-2.48143e-05 20 -3.29418e-19)
(-2.48059e-05 20 -1.68775e-19)
(-2.47976e-05 20 -3.75659e-19)
(-2.47893e-05 20 -2.08967e-19)
(-2.4781e-05 20 -3.27414e-19)
(-2.47727e-05 20 -1.7908e-19)
(-2.47644e-05 20 -3.60252e-19)
(-2.47561e-05 20 -2.66105e-19)
(-2.47478e-05 20 -2.39292e-19)
(-2.47396e-05 20 -3.34539e-19)
(-2.47313e-05 20 -2.02613e-19)
(-2.47231e-05 20 -3.52365e-19)
(-2.47148e-05 20 -2.4325e-19)
(-2.47066e-05 20 -2.93579e-19)
(-2.46983e-05 20 -1.81799e-19)
(-2.46901e-05 20 -2.97534e-19)
(-2.46818e-05 20 -1.68194e-19)
(-2.46736e-05 20 -2.79786e-19)
(-2.46653e-05 20 -1.59088e-19)
(-2.46571e-05 20 -3.30853e-19)
(-2.46488e-05 20 -2.32549e-19)
(-2.46406e-05 20 -2.89205e-19)
(-2.46323e-05 20 -1.75292e-19)
(-2.4624e-05 20 -2.92173e-19)
(-2.46158e-05 20 -1.63172e-19)
(-2.46075e-05 20 -2.75849e-19)
(-2.45992e-05 20 -1.55425e-19)
(-2.45909e-05 20 -3.33895e-19)
(-2.45827e-05 20 -2.23394e-19)
(-2.45744e-05 20 -3.11541e-19)
(-2.45661e-05 20 -1.3912e-19)
(-2.45578e-05 20 -3.25264e-19)
(-2.45494e-05 20 -1.3739e-19)
(-2.45411e-05 20 -2.44313e-19)
(-2.45328e-05 20 -1.11311e-19)
(-2.45244e-05 20 -3.20881e-19)
(-2.45161e-05 20 -2.08778e-19)
(-2.45077e-05 20 -3.22085e-19)
(-2.44994e-05 20 -2.06857e-19)
(-2.4491e-05 20 -4.15766e-19)
(-2.44826e-05 20 -2.17341e-19)
(-2.44743e-05 20 -3.01433e-19)
(-2.44659e-05 20 -1.4884e-19)
(-2.44575e-05 20 -3.41376e-19)
(-2.4449e-05 20 -2.20094e-19)
(-2.44406e-05 20 -3.29079e-19)
(-2.44322e-05 20 -2.10244e-19)
(-2.44238e-05 20 -4.17106e-19)
(-2.44153e-05 20 -2.16708e-19)
(-2.44069e-05 20 -2.99825e-19)
(-2.43984e-05 20 -1.47833e-19)
(-2.43899e-05 20 -3.24171e-19)
(-2.43814e-05 20 -2.18742e-19)
(-2.4373e-05 20 -2.68507e-19)
(-2.43644e-05 20 -1.31418e-19)
(-2.43559e-05 20 -3.20639e-19)
(-2.43474e-05 20.0001 -1.69871e-19)
(-2.43388e-05 20.0001 -2.60162e-19)
(-2.43303e-05 20.0001 -1.60124e-19)
(-2.43217e-05 20.0001 -3.01525e-19)
(-2.43131e-05 20.0001 -1.68778e-19)
(-2.43045e-05 20.0001 -2.08224e-19)
(-2.42959e-05 20.0001 -8.19286e-20)
(-2.42873e-05 20.0001 -2.88679e-19)
(-2.42786e-05 20.0001 -1.49385e-19)
(-2.427e-05 20.0001 -2.47091e-19)
(-2.42613e-05 20.0001 -1.52003e-19)
(-2.42526e-05 20.0001 -3.01113e-19)
(-2.42439e-05 20.0001 -1.65562e-19)
(-2.42352e-05 20.0001 -2.16868e-19)
(-2.42265e-05 20.0001 -8.33642e-20)
(-2.42178e-05 20.0001 -3.08595e-19)
(-2.4209e-05 20.0001 -1.93538e-19)
(-2.42002e-05 20.0001 -3.29354e-19)
(-2.41915e-05 20.0001 -2.18358e-19)
(-2.41827e-05 20.0001 -3.88999e-19)
(-2.41739e-05 20.0001 -2.64811e-19)
(-2.41651e-05 20.0001 -3.82749e-19)
(-2.41562e-05 20.0001 -2.09615e-19)
(-2.41474e-05 20.0001 -3.81356e-19)
(-2.41385e-05 20.0001 -2.17846e-19)
(-2.41296e-05 20.0001 -3.29616e-19)
(-2.41207e-05 20.0001 -2.13521e-19)
(-2.41118e-05 20.0001 -3.88654e-19)
(-2.41029e-05 20.0001 -2.6609e-19)
(-2.40939e-05 20.0001 -3.82425e-19)
(-2.40849e-05 20.0001 -2.07733e-19)
(-2.4076e-05 20.0001 -3.79132e-19)
(-2.4067e-05 20.0001 -2.17171e-19)
(-2.4058e-05 20.0001 -3.29502e-19)
(-2.40489e-05 20.0001 -2.16114e-19)
(-2.40399e-05 20.0001 -3.832e-19)
(-2.40308e-05 20.0001 -2.71375e-19)
(-2.40218e-05 20.0001 -3.73337e-19)
(-2.40127e-05 20.0001 -2.30896e-19)
(-2.40036e-05 20.0001 -3.82979e-19)
(-2.39946e-05 20.0001 -2.65757e-19)
(-2.39855e-05 20.0001 -3.03928e-19)
(-2.39764e-05 20.0001 -1.87265e-19)
(-2.39673e-05 20.0001 -2.99089e-19)
(-2.39583e-05 20.0001 -1.7003e-19)
(-2.39492e-05 20.0001 -2.79866e-19)
(-2.39402e-05 20.0001 -1.63004e-19)
(-2.39312e-05 20.0001 -3.41789e-19)
(-2.39222e-05 20.0001 -2.44705e-19)
(-2.39133e-05 20.0001 -2.92792e-19)
(-2.39045e-05 20.0001 -1.84706e-19)
(-2.38959e-05 20.0001 -3.04426e-19)
(-2.38875e-05 20.0001 -1.80233e-19)
(-2.38795e-05 20.0001 -2.84263e-19)
(-2.3872e-05 20.0001 -1.83485e-19)
(-2.38652e-05 20.0001 -3.20115e-19)
(-2.38593e-05 20.0001 -2.77735e-19)
(-2.38532e-05 20.0001 -2.36045e-19)
(-3.54749e-05 20 4.13644e-20)
(-3.54629e-05 20 1.26727e-19)
(-3.54546e-05 20 1.35496e-19)
(-3.54439e-05 20 1.24397e-19)
(-3.54327e-05 20 4.22562e-20)
(-3.54205e-05 20 1.24736e-19)
(-3.54073e-05 20 1.34642e-19)
(-3.5395e-05 20 1.24938e-19)
(-3.53829e-05 20 4.14932e-20)
(-3.53703e-05 20 1.23412e-19)
(-3.53581e-05 20 1.34844e-19)
(-3.53465e-05 20 1.15861e-19)
(-3.53349e-05 20 4.80102e-20)
(-3.53236e-05 20 7.07071e-20)
(-3.53125e-05 20 1.83219e-19)
(-3.53018e-05 20 -3.84726e-20)
(-3.52913e-05 20 1.08354e-19)
(-3.52812e-05 20 -1.3825e-19)
(-3.52713e-05 20 -3.4021e-20)
(-3.52616e-05 20 -3.5682e-19)
(-3.52521e-05 20 -2.16618e-19)
(-3.52428e-05 20 -4.20466e-19)
(-3.52337e-05 20 -2.47227e-19)
(-3.52247e-05 20 -4.99087e-19)
(-3.52158e-05 20 -3.02057e-19)
(-3.52069e-05 20 -4.65626e-19)
(-3.51981e-05 20 -2.70577e-19)
(-3.5189e-05 20 -5.12515e-19)
(-3.51802e-05 20 -3.07162e-19)
(-3.517e-05 20 -4.71899e-19)
(-3.51615e-05 20 -2.76578e-19)
(-3.5151e-05 20 -5.13966e-19)
(-3.51405e-05 20 -3.07466e-19)
(-3.51323e-05 20 -4.68877e-19)
(-3.51191e-05 20 -2.70799e-19)
(-3.51101e-05 20 -5.10063e-19)
(-3.51079e-05 20 -3.05409e-19)
(-3.5103e-05 20 -4.68732e-19)
(-3.50938e-05 20 -2.73839e-19)
(-3.50838e-05 20 -5.12048e-19)
(-3.50735e-05 20 -3.08017e-19)
(-3.50627e-05 20 -4.68751e-19)
(-3.50514e-05 20 -2.71011e-19)
(-3.50397e-05 20 -5.10802e-19)
(-3.50279e-05 20 -3.07853e-19)
(-3.50159e-05 20 -4.68646e-19)
(-3.50038e-05 20 -2.69297e-19)
(-3.49917e-05 20 -5.11519e-19)
(-3.49795e-05 20 -3.08718e-19)
(-3.49673e-05 20 -4.7001e-19)
(-3.49552e-05 20 -2.73129e-19)
(-3.4943e-05 20 -5.13728e-19)
(-3.49309e-05 20 -3.12653e-19)
(-3.49188e-05 20 -4.71861e-19)
(-3.49067e-05 20 -2.73802e-19)
(-3.48947e-05 20 -5.14383e-19)
(-3.48827e-05 20 -3.12527e-19)
(-3.48708e-05 20 -4.68776e-19)
(-3.48589e-05 20 -2.71781e-19)
(-3.4847e-05 20 -5.14139e-19)
(-3.48352e-05 20 -3.09451e-19)
(-3.48234e-05 20 -4.68638e-19)
(-3.48116e-05 20 -2.70843e-19)
(-3.47999e-05 20 -5.12182e-19)
(-3.47882e-05 20 -3.06006e-19)
(-3.47765e-05 20 -4.63244e-19)
(-3.47649e-05 20 -2.67094e-19)
(-3.47533e-05 20 -5.09325e-19)
(-3.47417e-05 20 -3.0451e-19)
(-3.47301e-05 20 -4.62433e-19)
(-3.47185e-05 20 -2.66857e-19)
(-3.47069e-05 20 -5.08163e-19)
(-3.46954e-05 20 -3.05705e-19)
(-3.46839e-05 20 -4.61286e-19)
(-3.46724e-05 20 -2.78565e-19)
(-3.46608e-05 20 -4.89258e-19)
(-3.46493e-05 20 -3.71259e-19)
(-3.46378e-05 20 -3.49804e-19)
(-3.46263e-05 20 -4.72103e-19)
(-3.46148e-05 20 -2.82701e-19)
(-3.46034e-05 20 -4.80286e-19)
(-3.45919e-05 20 -3.09104e-19)
(-3.45804e-05 20 -4.27218e-19)
(-3.45689e-05 20 -2.61553e-19)
(-3.45574e-05 20 -4.46935e-19)
(-3.45459e-05 20 -2.59317e-19)
(-3.45344e-05 20 -4.16921e-19)
(-3.45229e-05 20 -2.49026e-19)
(-3.45114e-05 20 -4.71709e-19)
(-3.44998e-05 20 -3.10345e-19)
(-3.44883e-05 20 -4.31788e-19)
(-3.44768e-05 20 -2.59536e-19)
(-3.44653e-05 20 -4.40855e-19)
(-3.44537e-05 20 -2.56183e-19)
(-3.44422e-05 20 -4.13885e-19)
(-3.44306e-05 20 -2.45318e-19)
(-3.4419e-05 20 -4.70445e-19)
(-3.44074e-05 20 -3.03245e-19)
(-3.43959e-05 20 -4.41866e-19)
(-3.43843e-05 20 -2.34501e-19)
(-3.43726e-05 20 -4.61397e-19)
(-3.4361e-05 20 -2.38191e-19)
(-3.43494e-05 20 -3.84669e-19)
(-3.43378e-05 20 -2.08801e-19)
(-3.43261e-05 20 -4.59319e-19)
(-3.43144e-05 20 -2.9813e-19)
(-3.43028e-05 20 -4.57332e-19)
(-3.42911e-05 20 -2.92678e-19)
(-3.42794e-05 20 -5.41173e-19)
(-3.42677e-05 20 -3.15325e-19)
(-3.4256e-05 20 -4.44085e-19)
(-3.42442e-05 20 -2.48936e-19)
(-3.42325e-05 20 -4.83703e-19)
(-3.42207e-05 20 -3.114e-19)
(-3.4209e-05 20 -4.65545e-19)
(-3.41972e-05 20 -2.97539e-19)
(-3.41854e-05 20 -5.44353e-19)
(-3.41736e-05 20 -3.14521e-19)
(-3.41618e-05 20 -4.41641e-19)
(-3.415e-05 20 -2.46281e-19)
(-3.41381e-05 20 -4.66356e-19)
(-3.41263e-05 20 -2.99855e-19)
(-3.41144e-05 20 -4.13109e-19)
(-3.41025e-05 20 -2.26559e-19)
(-3.40906e-05 20 -4.58773e-19)
(-3.40787e-05 20.0001 -2.63367e-19)
(-3.40667e-05 20.0001 -4.00613e-19)
(-3.40548e-05 20.0001 -2.41792e-19)
(-3.40428e-05 20.0001 -4.44583e-19)
(-3.40308e-05 20.0001 -2.56999e-19)
(-3.40188e-05 20.0001 -3.57521e-19)
(-3.40068e-05 20.0001 -1.77873e-19)
(-3.39948e-05 20.0001 -4.25175e-19)
(-3.39827e-05 20.0001 -2.40404e-19)
(-3.39707e-05 20.0001 -3.85024e-19)
(-3.39586e-05 20.0001 -2.32534e-19)
(-3.39465e-05 20.0001 -4.43181e-19)
(-3.39344e-05 20.0001 -2.53915e-19)
(-3.39222e-05 20.0001 -3.66321e-19)
(-3.39101e-05 20.0001 -1.83999e-19)
(-3.38979e-05 20.0001 -4.47029e-19)
(-3.38857e-05 20.0001 -2.85816e-19)
(-3.38735e-05 20.0001 -4.61774e-19)
(-3.38613e-05 20.0001 -3.04959e-19)
(-3.38491e-05 20.0001 -5.30067e-19)
(-3.38368e-05 20.0001 -3.51634e-19)
(-3.38245e-05 20.0001 -5.11075e-19)
(-3.38122e-05 20.0001 -3.05215e-19)
(-3.37999e-05 20.0001 -5.22158e-19)
(-3.37876e-05 20.0001 -3.16399e-19)
(-3.37752e-05 20.0001 -4.67525e-19)
(-3.37629e-05 20.0001 -3.03483e-19)
(-3.37505e-05 20.0001 -5.30696e-19)
(-3.37381e-05 20.0001 -3.53615e-19)
(-3.37256e-05 20.0001 -5.11389e-19)
(-3.37132e-05 20.0001 -3.0486e-19)
(-3.37007e-05 20.0001 -5.22395e-19)
(-3.36882e-05 20.0001 -3.15923e-19)
(-3.36757e-05 20.0001 -4.67688e-19)
(-3.36632e-05 20.0001 -3.0525e-19)
(-3.36506e-05 20.0001 -5.27454e-19)
(-3.36381e-05 20.0001 -3.56829e-19)
(-3.36255e-05 20.0001 -5.07904e-19)
(-3.36129e-05 20.0001 -3.22448e-19)
(-3.36004e-05 20.0001 -5.28404e-19)
(-3.35878e-05 20.0001 -3.48089e-19)
(-3.35752e-05 20.0001 -4.50116e-19)
(-3.35625e-05 20.0001 -2.74368e-19)
(-3.35499e-05 20.0001 -4.54042e-19)
(-3.35373e-05 20.0001 -2.65398e-19)
(-3.35247e-05 20.0001 -4.21595e-19)
(-3.35121e-05 20.0001 -2.56552e-19)
(-3.34996e-05 20.0001 -4.88367e-19)
(-3.3487e-05 20.0001 -3.28412e-19)
(-3.34746e-05 20.0001 -4.42128e-19)
(-3.34622e-05 20.0001 -2.76743e-19)
(-3.345e-05 20.0001 -4.66141e-19)
(-3.34379e-05 20.0001 -2.86243e-19)
(-3.34263e-05 20.0001 -4.3161e-19)
(-3.34152e-05 20.0001 -2.96892e-19)
(-3.34048e-05 20.0001 -4.61635e-19)
(-3.33954e-05 20.0001 -3.94717e-19)
(-3.33858e-05 20.0001 -3.62958e-19)
(-4.55904e-05 20 2.15709e-20)
(-4.55767e-05 20 3.4348e-20)
(-4.55647e-05 20 4.33557e-20)
(-4.5552e-05 20 -3.0275e-20)
(-4.5537e-05 20 2.08582e-20)
(-4.55209e-05 20 3.55055e-20)
(-4.55057e-05 20 4.53781e-20)
(-4.54905e-05 20 -2.87118e-20)
(-4.54748e-05 20 2.17644e-20)
(-4.54596e-05 20 3.73436e-20)
(-4.54449e-05 20 3.92552e-20)
(-4.54303e-05 20 -2.47443e-20)
(-4.54158e-05 20 -2.35899e-20)
(-4.54017e-05 20 6.87781e-20)
(-4.53879e-05 20 -8.90948e-20)
(-4.53744e-05 20 -7.90892e-21)
(-4.53612e-05 20 -1.94117e-19)
(-4.53483e-05 20 -1.39724e-19)
(-4.53355e-05 20 -3.77022e-19)
(-4.5323e-05 20 -3.05137e-19)
(-4.53107e-05 20 -4.52078e-19)
(-4.52985e-05 20 -3.3843e-19)
(-4.52865e-05 20 -5.09362e-19)
(-4.52745e-05 20 -3.8505e-19)
(-4.52626e-05 20 -4.94185e-19)
(-4.52506e-05 20 -3.58323e-19)
(-4.52384e-05 20 -5.19864e-19)
(-4.52266e-05 20 -3.88604e-19)
(-4.52134e-05 20 -4.99109e-19)
(-4.52015e-05 20 -3.60645e-19)
(-4.5188e-05 20 -5.19067e-19)
(-4.51742e-05 20 -3.86922e-19)
(-4.51627e-05 20 -4.92173e-19)
(-4.5147e-05 20 -3.53493e-19)
(-4.51341e-05 20 -5.1405e-19)
(-4.51277e-05 20 -3.83848e-19)
(-4.51198e-05 20 -4.91968e-19)
(-4.5108e-05 20 -3.551e-19)
(-4.50949e-05 20 -5.14706e-19)
(-4.50815e-05 20 -3.83805e-19)
(-4.50676e-05 20 -4.90636e-19)
(-4.50532e-05 20 -3.53617e-19)
(-4.50384e-05 20 -5.13586e-19)
(-4.50234e-05 20 -3.84417e-19)
(-4.50083e-05 20 -4.92461e-19)
(-4.4993e-05 20 -3.53911e-19)
(-4.49777e-05 20 -5.14502e-19)
(-4.49624e-05 20 -3.84026e-19)
(-4.4947e-05 20 -4.93027e-19)
(-4.49316e-05 20 -3.55192e-19)
(-4.49163e-05 20 -5.17306e-19)
(-4.4901e-05 20 -3.87637e-19)
(-4.48857e-05 20 -4.9531e-19)
(-4.48705e-05 20 -3.56802e-19)
(-4.48552e-05 20 -5.18787e-19)
(-4.48401e-05 20 -3.89731e-19)
(-4.4825e-05 20 -4.91626e-19)
(-4.48099e-05 20 -3.56259e-19)
(-4.47948e-05 20 -5.18395e-19)
(-4.47798e-05 20 -3.86793e-19)
(-4.47648e-05 20 -4.92749e-19)
(-4.47499e-05 20 -3.54335e-19)
(-4.4735e-05 20 -5.15668e-19)
(-4.47201e-05 20 -3.83709e-19)
(-4.47052e-05 20 -4.876e-19)
(-4.46903e-05 20 -3.50657e-19)
(-4.46755e-05 20 -5.10925e-19)
(-4.46607e-05 20 -3.79273e-19)
(-4.46459e-05 20 -4.84682e-19)
(-4.46311e-05 20 -3.48568e-19)
(-4.46164e-05 20 -5.10162e-19)
(-4.46016e-05 20 -3.81584e-19)
(-4.45869e-05 20 -4.86434e-19)
(-4.45721e-05 20 -3.57039e-19)
(-4.45574e-05 20 -5.00997e-19)
(-4.45426e-05 20 -4.25025e-19)
(-4.45279e-05 20 -4.11869e-19)
(-4.45132e-05 20 -4.87789e-19)
(-4.44985e-05 20 -3.41398e-19)
(-4.44837e-05 20 -4.72486e-19)
(-4.4469e-05 20 -3.60339e-19)
(-4.44543e-05 20 -4.48654e-19)
(-4.44395e-05 20 -3.31292e-19)
(-4.44248e-05 20 -4.61505e-19)
(-4.441e-05 20 -3.36883e-19)
(-4.43953e-05 20 -4.44597e-19)
(-4.43805e-05 20 -3.27481e-19)
(-4.43657e-05 20 -4.80859e-19)
(-4.43509e-05 20 -3.758e-19)
(-4.43361e-05 20 -4.58695e-19)
(-4.43213e-05 20 -3.31859e-19)
(-4.43065e-05 20 -4.55099e-19)
(-4.42917e-05 20 -3.35049e-19)
(-4.42769e-05 20 -4.42261e-19)
(-4.4262e-05 20 -3.23153e-19)
(-4.42472e-05 20 -4.77481e-19)
(-4.42323e-05 20 -3.69172e-19)
(-4.42174e-05 20 -4.61243e-19)
(-4.42025e-05 20 -3.15203e-19)
(-4.41876e-05 20 -4.66347e-19)
(-4.41727e-05 20 -3.19987e-19)
(-4.41577e-05 20 -4.16757e-19)
(-4.41428e-05 20 -2.94804e-19)
(-4.41278e-05 20 -4.66406e-19)
(-4.41128e-05 20 -3.68355e-19)
(-4.40979e-05 20 -4.82184e-19)
(-4.40828e-05 20 -3.66196e-19)
(-4.40678e-05 20 -5.34038e-19)
(-4.40528e-05 20 -3.8905e-19)
(-4.40377e-05 20 -4.75394e-19)
(-4.40227e-05 20 -3.34858e-19)
(-4.40076e-05 20 -4.94029e-19)
(-4.39925e-05 20 -3.83401e-19)
(-4.39774e-05 20 -4.90745e-19)
(-4.39622e-05 20 -3.71617e-19)
(-4.39471e-05 20 -5.39267e-19)
(-4.39319e-05 20 -3.9009e-19)
(-4.39168e-05 20 -4.70977e-19)
(-4.39016e-05 20 -3.28917e-19)
(-4.38864e-05 20 -4.76481e-19)
(-4.38711e-05 20 -3.6548e-19)
(-4.38559e-05 20 -4.43839e-19)
(-4.38406e-05 20 -3.0832e-19)
(-4.38253e-05 20 -4.64892e-19)
(-4.381e-05 20 -3.37727e-19)
(-4.37947e-05 20.0001 -4.30916e-19)
(-4.37794e-05 20.0001 -3.14002e-19)
(-4.3764e-05 20.0001 -4.54817e-19)
(-4.37486e-05 20.0001 -3.27523e-19)
(-4.37332e-05 20.0001 -3.95489e-19)
(-4.37178e-05 20.0001 -2.6507e-19)
(-4.37024e-05 20.0001 -4.32507e-19)
(-4.36869e-05 20.0001 -3.14684e-19)
(-4.36714e-05 20.0001 -4.14642e-19)
(-4.36559e-05 20.0001 -3.04772e-19)
(-4.36404e-05 20.0001 -4.51265e-19)
(-4.36249e-05 20.0001 -3.25035e-19)
(-4.36093e-05 20.0001 -4.03178e-19)
(-4.35937e-05 20.0001 -2.75067e-19)
(-4.35781e-05 20.0001 -4.56836e-19)
(-4.35625e-05 20.0001 -3.6002e-19)
(-4.35469e-05 20.0001 -4.83152e-19)
(-4.35312e-05 20.0001 -3.76741e-19)
(-4.35155e-05 20.0001 -5.35145e-19)
(-4.34998e-05 20.0001 -4.18256e-19)
(-4.34841e-05 20.0001 -5.26802e-19)
(-4.34683e-05 20.0001 -3.82565e-19)
(-4.34526e-05 20.0001 -5.2781e-19)
(-4.34368e-05 20.0001 -3.94735e-19)
(-4.3421e-05 20.0001 -4.96775e-19)
(-4.34051e-05 20.0001 -3.80096e-19)
(-4.33892e-05 20.0001 -5.37471e-19)
(-4.33734e-05 20.0001 -4.2215e-19)
(-4.33574e-05 20.0001 -5.2887e-19)
(-4.33415e-05 20.0001 -3.84671e-19)
(-4.33255e-05 20.0001 -5.30966e-19)
(-4.33096e-05 20.0001 -3.94656e-19)
(-4.32936e-05 20.0001 -4.95165e-19)
(-4.32775e-05 20.0001 -3.80605e-19)
(-4.32615e-05 20.0001 -5.35147e-19)
(-4.32454e-05 20.0001 -4.25068e-19)
(-4.32294e-05 20.0001 -5.28789e-19)
(-4.32133e-05 20.0001 -3.97283e-19)
(-4.31972e-05 20.0001 -5.36479e-19)
(-4.3181e-05 20.0001 -4.1464e-19)
(-4.31649e-05 20.0001 -4.81991e-19)
(-4.31488e-05 20.0001 -3.50023e-19)
(-4.31326e-05 20.0001 -4.72603e-19)