/*--------------------------------*- C++ -*----------------------------------*\
| =========                 |                                                 |
| \\      /  F ield         | OpenFOAM: The Open Source CFD Toolbox           |
|  \\    /   O peration     | Version:  2512                                  |
|   \\  /    A nd           | Website:  www.openfoam.com                      |
|    \\/     M anipulation  |                                                 |
\*---------------------------------------------------------------------------*/
FoamFile
{
    version     2.0;
    format      ascii;
    arch        "LSB;label=32;scalar=64";
    class       volScalarField;
    location    "0.1";
    object      p;
}
// * * * * * * * * * * * * * * * * * * * * * * * * * * * * * * * * * * * * * //

dimensions      [1 -1 -2 0 0 0 0];

internalField   nonuniform List<scalar> 
8334
(
-384.907
-385.578
-386.249
-386.922
-387.596
-388.271
-388.947
-389.624
-390.302
-390.981
-391.661
-392.342
-393.024
-393.707
-394.391
-395.076
-395.762
-396.449
-397.137
-397.827
-398.517
-399.208
-399.9
-400.593
-401.287
-401.982
-402.678
-403.375
-404.073
-404.772
-405.472
-406.173
-406.874
-407.577
-408.281
-408.985
-409.691
-410.398
-411.106
-411.814
-412.523
-413.233
-413.944
-414.656
-415.369
-416.083
-416.797
-417.512
-418.228
-418.945
-419.663
-420.382
-421.101
-421.822
-422.543
-423.265
-423.988
-424.711
-425.436
-426.161
-426.887
-427.614
-428.342
-429.07
-429.8
-430.53
-431.26
-431.992
-432.725
-433.458
-434.192
-434.926
-435.662
-436.398
-437.135
-437.873
-438.611
-439.35
-440.09
-440.831
-441.573
-442.315
-443.058
-443.801
-444.545
-445.29
-446.036
-446.783
-447.53
-448.278
-449.026
-449.775
-450.525
-451.276
-452.027
-452.779
-453.531
-454.285
-455.038
-455.793
-456.548
-457.304
-458.06
-458.818
-459.575
-460.334
-461.093
-461.852
-462.612
-463.373
-464.135
-464.897
-465.659
-466.423
-467.186
-467.951
-468.716
-469.481
-470.248
-471.014
-471.782
-472.549
-473.318
-474.087
-474.856
-475.626
-476.397
-477.168
-477.94
-478.712
-479.484
-480.258
-481.031
-481.806
-482.58
-483.355
-484.131
-484.907
-485.684
-486.461
-487.239
-488.017
-488.796
-489.575
-490.354
-491.134
-491.914
-492.695
-493.477
-494.258
-495.04
-495.823
-496.606
-497.389
-498.173
-498.958
-499.742
-500.527
-501.313
-502.099
-502.885
-503.671
-504.458
-505.246
-506.033
-506.821
-507.61
-508.399
-509.188
-509.977
-510.767
-511.557
-512.348
-513.138
-513.93
-514.721
-515.513
-516.305
-517.097
-517.89
-518.683
-519.476
-520.27
-521.063
-521.857
-389.816
-390.487
-391.16
-391.834
-392.509
-393.185
-393.862
-394.54
-395.219
-395.899
-396.58
-397.262
-397.945
-398.629
-399.314
-400
-400.687
-401.376
-402.065
-402.755
-403.446
-404.138
-404.831
-405.525
-406.22
-406.916
-407.613
-408.311
-409.01
-409.71
-410.411
-411.112
-411.815
-412.519
-413.224
-413.929
-414.636
-415.344
-416.052
-416.761
-417.471
-418.182
-418.894
-419.607
-420.321
-421.035
-421.75
-422.466
-423.183
-423.901
-424.62
-425.339
-426.06
-426.781
-427.503
-428.226
-428.949
-429.674
-430.399
-431.125
-431.852
-432.58
-433.308
-434.038
-434.768
-435.499
-436.23
-436.963
-437.696
-438.43
-439.164
-439.9
-440.636
-441.373
-442.111
-442.849
-443.588
-444.328
-445.069
-445.811
-446.553
-447.296
-448.039
-448.783
-449.528
-450.274
-451.021
-451.768
-452.516
-453.264
-454.013
-454.763
-455.514
-456.265
-457.017
-457.769
-458.523
-459.276
-460.031
-460.786
-461.542
-462.298
-463.056
-463.813
-464.572
-465.331
-466.09
-466.85
-467.611
-468.373
-469.135
-469.897
-470.661
-471.424
-472.189
-472.954
-473.719
-474.486
-475.252
-476.02
-476.787
-477.556
-478.325
-479.094
-479.864
-480.635
-481.406
-482.178
-482.95
-483.722
-484.496
-485.269
-486.044
-486.818
-487.593
-488.369
-489.145
-489.922
-490.699
-491.477
-492.255
-493.034
-493.813
-494.592
-495.372
-496.152
-496.933
-497.715
-498.496
-499.278
-500.061
-500.844
-501.627
-502.411
-503.196
-503.98
-504.765
-505.551
-506.336
-507.123
-507.909
-508.696
-509.484
-510.271
-511.059
-511.848
-512.637
-513.426
-514.215
-515.005
-515.795
-516.586
-517.376
-518.168
-518.959
-519.751
-520.543
-521.335
-522.128
-522.921
-523.714
-524.507
-525.301
-526.095
-394.053
-394.725
-395.398
-396.072
-396.747
-397.423
-398.1
-398.778
-399.457
-400.137
-400.818
-401.5
-402.183
-402.867
-403.552
-404.238
-404.925
-405.614
-406.303
-406.993
-407.684
-408.376
-409.069
-409.763
-410.458
-411.154
-411.851
-412.549
-413.248
-413.948
-414.649
-415.351
-416.053
-416.757
-417.462
-418.167
-418.874
-419.582
-420.29
-420.999
-421.709
-422.42
-423.132
-423.845
-424.559
-425.273
-425.988
-426.704
-427.421
-428.139
-428.858
-429.578
-430.298
-431.019
-431.741
-432.464
-433.188
-433.912
-434.637
-435.363
-436.09
-436.818
-437.546
-438.276
-439.006
-439.737
-440.468
-441.201
-441.934
-442.668
-443.402
-444.138
-444.874
-445.611
-446.349
-447.087
-447.827
-448.566
-449.307
-450.049
-450.791
-451.534
-452.277
-453.021
-453.767
-454.512
-455.259
-456.006
-456.754
-457.502
-458.251
-459.001
-459.752
-460.503
-461.255
-462.007
-462.761
-463.514
-464.269
-465.024
-465.78
-466.536
-467.294
-468.051
-468.81
-469.569
-470.328
-471.088
-471.849
-472.611
-473.373
-474.135
-474.899
-475.662
-476.427
-477.192
-477.957
-478.724
-479.49
-480.258
-481.025
-481.794
-482.563
-483.332
-484.102
-484.873
-485.644
-486.416
-487.188
-487.96
-488.734
-489.507
-490.282
-491.056
-491.831
-492.607
-493.383
-494.16
-494.937
-495.715
-496.493
-497.272
-498.051
-498.83
-499.61
-500.39
-501.171
-501.953
-502.734
-503.516
-504.299
-505.082
-505.865
-506.649
-507.433
-508.218
-509.003
-509.789
-510.574
-511.361
-512.147
-512.934
-513.722
-514.509
-515.297
-516.086
-516.875
-517.664
-518.453
-519.243
-520.033
-520.824
-521.614
-522.405
-523.197
-523.989
-524.781
-525.573
-526.366
-527.159
-527.952
-528.745
-529.539
-530.333
-398.963
-399.636
-400.31
-400.985
-401.661
-402.338
-403.016
-403.695
-404.375
-405.056
-405.738
-406.421
-407.105
-407.79
-408.476
-409.164
-409.852
-410.541
-411.231
-411.922
-412.614
-413.307
-414.001
-414.696
-415.392
-416.089
-416.787
-417.486
-418.186
-418.887
-419.589
-420.291
-420.995
-421.7
-422.406
-423.112
-423.82
-424.528
-425.237
-425.947
-426.658
-427.37
-428.083
-428.797
-429.511
-430.226
-430.943
-431.66
-432.377
-433.096
-433.816
-434.536
-435.257
-435.979
-436.702
-437.426
-438.15
-438.875
-439.601
-440.328
-441.056
-441.784
-442.514
-443.244
-443.975
-444.706
-445.439
-446.172
-446.906
-447.64
-448.376
-449.112
-449.849
-450.587
-451.325
-452.065
-452.805
-453.545
-454.287
-455.029
-455.772
-456.515
-457.26
-458.005
-458.75
-459.497
-460.244
-460.992
-461.74
-462.489
-463.239
-463.99
-464.741
-465.493
-466.245
-466.999
-467.752
-468.507
-469.262
-470.018
-470.774
-471.532
-472.289
-473.048
-473.807
-474.566
-475.327
-476.087
-476.849
-477.611
-478.373
-479.137
-479.901
-480.665
-481.43
-482.195
-482.962
-483.728
-484.496
-485.263
-486.032
-486.801
-487.57
-488.34
-489.111
-489.882
-490.654
-491.426
-492.198
-492.972
-493.745
-494.52
-495.294
-496.069
-496.845
-497.621
-498.398
-499.175
-499.953
-500.731
-501.51
-502.289
-503.068
-503.848
-504.628
-505.409
-506.191
-506.972
-507.754
-508.537
-509.32
-510.103
-510.887
-511.671
-512.456
-513.241
-514.027
-514.812
-515.599
-516.385
-517.172
-517.96
-518.747
-519.535
-520.324
-521.113
-521.902
-522.691
-523.481
-524.271
-525.062
-525.852
-526.643
-527.435
-528.227
-529.019
-529.811
-530.604
-531.397
-532.19
-532.983
-533.777
-534.571
-403.874
-404.548
-405.223
-405.899
-406.576
-407.254
-407.933
-408.613
-409.294
-409.976
-410.659
-411.343
-412.028
-412.714
-413.402
-414.09
-414.779
-415.469
-416.16
-416.852
-417.545
-418.239
-418.934
-419.63
-420.327
-421.025
-421.724
-422.424
-423.125
-423.827
-424.53
-425.233
-425.938
-426.644
-427.35
-428.058
-428.766
-429.475
-430.186
-430.897
-431.608
-432.321
-433.035
-433.749
-434.464
-435.181
-435.898
-436.615
-437.334
-438.054
-438.774
-439.495
-440.217
-440.94
-441.664
-442.388
-443.113
-443.839
-444.566
-445.294
-446.022
-446.752
-447.482
-448.213
-448.944
-449.677
-450.41
-451.144
-451.878
-452.614
-453.35
-454.087
-454.825
-455.563
-456.303
-457.043
-457.783
-458.525
-459.267
-460.01
-460.753
-461.498
-462.243
-462.988
-463.735
-464.482
-465.23
-465.978
-466.727
-467.477
-468.228
-468.979
-469.731
-470.483
-471.237
-471.991
-472.745
-473.5
-474.256
-475.013
-475.77
-476.527
-477.286
-478.045
-478.804
-479.565
-480.325
-481.087
-481.849
-482.611
-483.375
-484.139
-484.903
-485.668
-486.433
-487.2
-487.966
-488.734
-489.501
-490.27
-491.039
-491.808
-492.578
-493.349
-494.12
-494.892
-495.664
-496.436
-497.21
-497.983
-498.758
-499.532
-500.307
-501.083
-501.859
-502.636
-503.413
-504.191
-504.969
-505.748
-506.527
-507.306
-508.086
-508.866
-509.647
-510.429
-511.21
-511.992
-512.775
-513.558
-514.341
-515.125
-515.909
-516.694
-517.479
-518.265
-519.05
-519.837
-520.623
-521.41
-522.198
-522.985
-523.773
-524.562
-525.35
-526.14
-526.929
-527.719
-528.509
-529.3
-530.09
-530.881
-531.673
-532.465
-533.257
-534.049
-534.842
-535.635
-536.428
-537.221
-538.015
-538.809
-408.786
-409.461
-410.137
-410.814
-411.492
-412.171
-412.851
-413.532
-414.214
-414.897
-415.581
-416.266
-416.952
-417.64
-418.328
-419.017
-419.707
-420.398
-421.09
-421.783
-422.477
-423.172
-423.869
-424.566
-425.263
-425.962
-426.662
-427.363
-428.065
-428.768
-429.471
-430.176
-430.882
-431.588
-432.296
-433.004
-433.713
-434.424
-435.135
-435.846
-436.559
-437.273
-437.987
-438.702
-439.419
-440.136
-440.853
-441.572
-442.292
-443.012
-443.733
-444.455
-445.178
-445.902
-446.626
-447.351
-448.077
-448.804
-449.532
-450.26
-450.99
-451.72
-452.451
-453.182
-453.915
-454.648
-455.382
-456.116
-456.852
-457.588
-458.325
-459.063
-459.801
-460.541
-461.281
-462.021
-462.763
-463.505
-464.248
-464.991
-465.736
-466.481
-467.226
-467.973
-468.72
-469.468
-470.216
-470.965
-471.715
-472.466
-473.217
-473.969
-474.721
-475.475
-476.229
-476.983
-477.738
-478.494
-479.251
-480.008
-480.765
-481.524
-482.283
-483.042
-483.803
-484.563
-485.325
-486.087
-486.849
-487.613
-488.377
-489.141
-489.906
-490.671
-491.438
-492.204
-492.972
-493.739
-494.508
-495.277
-496.046
-496.816
-497.587
-498.358
-499.13
-499.902
-500.674
-501.448
-502.221
-502.996
-503.77
-504.545
-505.321
-506.097
-506.874
-507.651
-508.429
-509.207
-509.985
-510.765
-511.544
-512.324
-513.104
-513.885
-514.667
-515.448
-516.23
-517.013
-517.796
-518.579
-519.363
-520.147
-520.932
-521.717
-522.503
-523.288
-524.075
-524.861
-525.648
-526.435
-527.223
-528.011
-528.8
-529.588
-530.378
-531.167
-531.957
-532.747
-533.537
-534.328
-535.119
-535.911
-536.703
-537.495
-538.287
-539.08
-539.873
-540.666
-541.459
-542.253
-543.047
-413.024
-413.699
-414.374
-415.051
-415.73
-416.409
-417.089
-417.77
-418.452
-419.135
-419.819
-420.504
-421.19
-421.878
-422.566
-423.255
-423.945
-424.636
-425.328
-426.021
-426.715
-427.411
-428.107
-428.804
-429.502
-430.2
-430.9
-431.601
-432.303
-433.006
-433.71
-434.414
-435.12
-435.826
-436.534
-437.242
-437.951
-438.662
-439.373
-440.084
-440.797
-441.511
-442.225
-442.94
-443.657
-444.374
-445.091
-445.81
-446.53
-447.25
-447.971
-448.693
-449.416
-450.14
-450.864
-451.589
-452.315
-453.042
-453.77
-454.499
-455.228
-455.958
-456.689
-457.42
-458.153
-458.886
-459.62
-460.355
-461.09
-461.826
-462.563
-463.301
-464.039
-464.779
-465.519
-466.259
-467.001
-467.743
-468.486
-469.229
-469.974
-470.719
-471.464
-472.211
-472.958
-473.706
-474.454
-475.203
-475.953
-476.704
-477.455
-478.207
-478.959
-479.713
-480.467
-481.221
-481.976
-482.732
-483.489
-484.246
-485.003
-485.762
-486.521
-487.28
-488.041
-488.801
-489.563
-490.325
-491.087
-491.851
-492.615
-493.379
-494.144
-494.909
-495.676
-496.442
-497.21
-497.977
-498.746
-499.515
-500.284
-501.054
-501.825
-502.596
-503.368
-504.14
-504.912
-505.686
-506.459
-507.234
-508.008
-508.783
-509.559
-510.335
-511.112
-511.889
-512.667
-513.445
-514.223
-515.003
-515.782
-516.562
-517.342
-518.123
-518.904
-519.686
-520.468
-521.251
-522.034
-522.817
-523.601
-524.385
-525.17
-525.955
-526.741
-527.526
-528.313
-529.099
-529.886
-530.673
-531.461
-532.249
-533.038
-533.826
-534.616
-535.405
-536.195
-536.985
-537.775
-538.566
-539.357
-540.149
-540.941
-541.733
-542.525
-543.318
-544.111
-544.904
-545.697
-546.491
-547.285
-417.936
-418.612
-419.289
-419.967
-420.647
-421.327
-422.008
-422.69
-423.373
-424.057
-424.742
-425.428
-426.116
-426.804
-427.493
-428.183
-428.874
-429.566
-430.259
-430.954
-431.649
-432.345
-433.042
-433.74
-434.439
-435.138
-435.839
-436.541
-437.244
-437.948
-438.652
-439.358
-440.064
-440.772
-441.48
-442.189
-442.9
-443.611
-444.322
-445.035
-445.749
-446.463
-447.178
-447.895
-448.612
-449.329
-450.048
-450.768
-451.488
-452.209
-452.931
-453.654
-454.378
-455.102
-455.827
-456.553
-457.28
-458.008
-458.737
-459.466
-460.196
-460.927
-461.658
-462.391
-463.124
-463.858
-464.593
-465.328
-466.064
-466.801
-467.539
-468.277
-469.017
-469.757
-470.497
-471.239
-471.981
-472.724
-473.467
-474.212
-474.957
-475.702
-476.449
-477.196
-477.944
-478.692
-479.441
-480.191
-480.942
-481.693
-482.445
-483.197
-483.951
-484.705
-485.459
-486.214
-486.97
-487.727
-488.484
-489.241
-490
-490.759
-491.518
-492.279
-493.039
-493.801
-494.563
-495.325
-496.089
-496.853
-497.617
-498.382
-499.147
-499.914
-500.68
-501.448
-502.215
-502.984
-503.753
-504.522
-505.292
-506.063
-506.834
-507.606
-508.378
-509.15
-509.924
-510.697
-511.471
-512.246
-513.021
-513.797
-514.573
-515.35
-516.127
-516.905
-517.683
-518.461
-519.24
-520.02
-520.8
-521.58
-522.361
-523.142
-523.924
-524.706
-525.489
-526.272
-527.055
-527.839
-528.623
-529.408
-530.193
-530.978
-531.764
-532.551
-533.337
-534.124
-534.911
-535.699
-536.487
-537.276
-538.064
-538.854
-539.643
-540.433
-541.223
-542.013
-542.804
-543.595
-544.387
-545.178
-545.971
-546.763
-547.556
-548.348
-549.142
-549.935
-550.729
-551.523
-422.85
-423.527
-424.205
-424.884
-425.565
-426.246
-426.928
-427.611
-428.295
-428.98
-429.666
-430.354
-431.042
-431.731
-432.421
-433.112
-433.804
-434.497
-435.192
-435.887
-436.583
-437.28
-437.978
-438.677
-439.376
-440.077
-440.779
-441.482
-442.186
-442.89
-443.596
-444.302
-445.01
-445.718
-446.428
-447.138
-447.849
-448.56
-449.273
-449.987
-450.701
-451.417
-452.133
-452.85
-453.567
-454.286
-455.006
-455.726
-456.447
-457.169
-457.892
-458.616
-459.34
-460.065
-460.792
-461.518
-462.246
-462.975
-463.704
-464.434
-465.165
-465.896
-466.629
-467.362
-468.096
-468.831
-469.566
-470.302
-471.039
-471.777
-472.515
-473.255
-473.995
-474.735
-475.477
-476.219
-476.962
-477.705
-478.45
-479.195
-479.94
-480.687
-481.434
-482.182
-482.93
-483.679
-484.429
-485.18
-485.931
-486.683
-487.435
-488.189
-488.943
-489.697
-490.452
-491.208
-491.965
-492.722
-493.479
-494.238
-494.997
-495.756
-496.517
-497.277
-498.039
-498.801
-499.563
-500.327
-501.091
-501.855
-502.62
-503.385
-504.152
-504.918
-505.686
-506.453
-507.222
-507.991
-508.76
-509.53
-510.301
-511.072
-511.844
-512.616
-513.388
-514.162
-514.935
-515.709
-516.484
-517.259
-518.035
-518.811
-519.588
-520.365
-521.143
-521.921
-522.699
-523.478
-524.258
-525.038
-525.818
-526.599
-527.38
-528.162
-528.944
-529.727
-530.51
-531.293
-532.077
-532.861
-533.646
-534.431
-535.216
-536.002
-536.788
-537.575
-538.362
-539.149
-539.937
-540.725
-541.514
-542.302
-543.091
-543.881
-544.671
-545.461
-546.251
-547.042
-547.833
-548.625
-549.416
-550.209
-551.001
-551.793
-552.586
-553.38
-554.173
-554.967
-555.761
-427.088
-427.765
-428.443
-429.122
-429.803
-430.484
-431.166
-431.849
-432.533
-433.218
-433.904
-434.592
-435.28
-435.969
-436.659
-437.35
-438.042
-438.735
-439.43
-440.125
-440.821
-441.518
-442.216
-442.915
-443.615
-444.315
-445.017
-445.72
-446.424
-447.128
-447.834
-448.541
-449.248
-449.956
-450.666
-451.376
-452.087
-452.798
-453.511
-454.225
-454.939
-455.655
-456.371
-457.088
-457.806
-458.524
-459.244
-459.964
-460.685
-461.407
-462.13
-462.854
-463.578
-464.303
-465.03
-465.756
-466.484
-467.213
-467.942
-468.672
-469.403
-470.134
-470.867
-471.6
-472.334
-473.069
-473.804
-474.54
-475.277
-476.015
-476.753
-477.493
-478.233
-478.973
-479.715
-480.457
-481.2
-481.943
-482.688
-483.433
-484.178
-484.925
-485.672
-486.42
-487.168
-487.917
-488.667
-489.418
-490.169
-490.921
-491.673
-492.427
-493.181
-493.935
-494.69
-495.446
-496.203
-496.96
-497.717
-498.476
-499.235
-499.994
-500.755
-501.515
-502.277
-503.039
-503.801
-504.565
-505.329
-506.093
-506.858
-507.623
-508.39
-509.156
-509.924
-510.691
-511.46
-512.229
-512.998
-513.768
-514.539
-515.31
-516.082
-516.854
-517.626
-518.4
-519.173
-519.947
-520.722
-521.497
-522.273
-523.049
-523.826
-524.603
-525.381
-526.159
-526.937
-527.716
-528.496
-529.276
-530.056
-530.837
-531.618
-532.4
-533.182
-533.965
-534.748
-535.531
-536.315
-537.099
-537.884
-538.669
-539.454
-540.24
-541.026
-541.813
-542.6
-543.387
-544.175
-544.963
-545.752
-546.54
-547.329
-548.119
-548.909
-549.699
-550.489
-551.28
-552.071
-552.863
-553.654
-554.446
-555.239
-556.031
-556.824
-557.618
-558.411
-559.205
-559.999
-432.003
-432.681
-433.36
-434.04
-434.722
-435.404
-436.087
-436.771
-437.456
-438.142
-438.83
-439.518
-440.207
-440.897
-441.588
-442.28
-442.974
-443.668
-444.363
-445.059
-445.756
-446.454
-447.153
-447.853
-448.553
-449.255
-449.958
-450.662
-451.366
-452.072
-452.779
-453.486
-454.194
-454.904
-455.614
-456.325
-457.036
-457.749
-458.463
-459.177
-459.893
-460.609
-461.326
-462.044
-462.762
-463.482
-464.202
-464.923
-465.645
-466.368
-467.092
-467.816
-468.541
-469.268
-469.994
-470.722
-471.451
-472.18
-472.91
-473.641
-474.372
-475.105
-475.838
-476.572
-477.307
-478.042
-478.778
-479.515
-480.253
-480.991
-481.731
-482.471
-483.211
-483.953
-484.695
-485.438
-486.181
-486.926
-487.671
-488.416
-489.163
-489.91
-490.658
-491.406
-492.155
-492.905
-493.656
-494.407
-495.159
-495.911
-496.665
-497.419
-498.173
-498.928
-499.684
-500.441
-501.198
-501.955
-502.714
-503.473
-504.232
-504.993
-505.753
-506.515
-507.277
-508.039
-508.803
-509.567
-510.331
-511.096
-511.861
-512.628
-513.394
-514.162
-514.929
-515.698
-516.467
-517.236
-518.006
-518.777
-519.548
-520.32
-521.092
-521.864
-522.638
-523.411
-524.185
-524.96
-525.735
-526.511
-527.287
-528.064
-528.841
-529.619
-530.397
-531.175
-531.954
-532.734
-533.514
-534.294
-535.075
-535.856
-536.638
-537.42
-538.203
-538.986
-539.769
-540.553
-541.337
-542.122
-542.907
-543.692
-544.478
-545.264
-546.051
-546.838
-547.625
-548.413
-549.201
-549.99
-550.778
-551.567
-552.357
-553.147
-553.937
-554.727
-555.518
-556.309
-557.101
-557.892
-558.684
-559.477
-560.269
-561.062
-561.856
-562.649
-563.443
-564.237
-436.919
-437.598
-438.278
-438.96
-439.642
-440.325
-441.009
-441.694
-442.38
-443.068
-443.756
-444.445
-445.135
-445.826
-446.518
-447.211
-447.906
-448.601
-449.297
-449.994
-450.692
-451.391
-452.091
-452.791
-453.493
-454.196
-454.9
-455.604
-456.31
-457.017
-457.724
-458.432
-459.142
-459.852
-460.563
-461.275
-461.987
-462.701
-463.415
-464.131
-464.847
-465.564
-466.282
-467
-467.72
-468.44
-469.161
-469.883
-470.606
-471.33
-472.054
-472.779
-473.506
-474.232
-474.96
-475.689
-476.418
-477.148
-477.879
-478.61
-479.343
-480.076
-480.81
-481.545
-482.28
-483.016
-483.753
-484.491
-485.229
-485.969
-486.709
-487.449
-488.191
-488.933
-489.676
-490.419
-491.164
-491.909
-492.654
-493.401
-494.148
-494.896
-495.644
-496.393
-497.143
-497.894
-498.645
-499.397
-500.149
-500.903
-501.657
-502.411
-503.166
-503.922
-504.679
-505.436
-506.193
-506.952
-507.711
-508.47
-509.231
-509.991
-510.753
-511.515
-512.277
-513.041
-513.804
-514.569
-515.334
-516.099
-516.866
-517.632
-518.4
-519.167
-519.936
-520.705
-521.474
-522.244
-523.015
-523.786
-524.558
-525.33
-526.102
-526.876
-527.649
-528.423
-529.198
-529.973
-530.749
-531.525
-532.302
-533.079
-533.857
-534.635
-535.413
-536.192
-536.972
-537.752
-538.532
-539.313
-540.094
-540.876
-541.658
-542.441
-543.224
-544.007
-544.791
-545.575
-546.36
-547.145
-547.93
-548.716
-549.502
-550.289
-551.076
-551.863
-552.651
-553.439
-554.227
-555.016
-555.805
-556.595
-557.385
-558.175
-558.965
-559.756
-560.547
-561.339
-562.13
-562.922
-563.715
-564.507
-565.3
-566.094
-566.887
-567.681
-568.475
-441.836
-442.516
-443.197
-443.88
-444.563
-445.247
-445.932
-446.618
-447.306
-447.994
-448.683
-449.373
-450.064
-450.756
-451.449
-452.144
-452.839
-453.535
-454.232
-454.93
-455.629
-456.329
-457.03
-457.731
-458.434
-459.138
-459.842
-460.548
-461.255
-461.962
-462.67
-463.38
-464.09
-464.801
-465.513
-466.225
-466.939
-467.653
-468.369
-469.085
-469.802
-470.52
-471.238
-471.958
-472.678
-473.399
-474.121
-474.844
-475.568
-476.292
-477.017
-477.744
-478.47
-479.198
-479.927
-480.656
-481.386
-482.117
-482.848
-483.581
-484.314
-485.048
-485.783
-486.518
-487.254
-487.991
-488.729
-489.467
-490.207
-490.947
-491.687
-492.429
-493.171
-493.914
-494.657
-495.402
-496.147
-496.892
-497.639
-498.386
-499.134
-499.882
-500.631
-501.381
-502.132
-502.883
-503.635
-504.387
-505.141
-505.895
-506.649
-507.404
-508.16
-508.917
-509.674
-510.431
-511.19
-511.949
-512.708
-513.469
-514.229
-514.991
-515.753
-516.515
-517.279
-518.042
-518.807
-519.572
-520.337
-521.104
-521.87
-522.638
-523.405
-524.174
-524.943
-525.712
-526.482
-527.253
-528.024
-528.796
-529.568
-530.34
-531.114
-531.887
-532.661
-533.436
-534.211
-534.987
-535.763
-536.54
-537.317
-538.095
-538.873
-539.651
-540.43
-541.21
-541.99
-542.77
-543.551
-544.332
-545.114
-545.896
-546.679
-547.462
-548.245
-549.029
-549.813
-550.598
-551.383
-552.168
-552.954
-553.74
-554.527
-555.314
-556.101
-556.889
-557.677
-558.465
-559.254
-560.043
-560.833
-561.623
-562.413
-563.203
-563.994
-564.785
-565.577
-566.368
-567.16
-567.953
-568.745
-569.538
-570.331
-571.125
-571.919
-572.713
-446.074
-446.754
-447.435
-448.118
-448.801
-449.485
-450.17
-450.856
-451.543
-452.232
-452.921
-453.611
-454.302
-454.994
-455.687
-456.382
-457.077
-457.773
-458.47
-459.168
-459.867
-460.567
-461.268
-461.969
-462.672
-463.376
-464.081
-464.786
-465.493
-466.2
-466.908
-467.618
-468.328
-469.039
-469.751
-470.463
-471.177
-471.891
-472.607
-473.323
-474.04
-474.758
-475.476
-476.196
-476.916
-477.637
-478.359
-479.082
-479.806
-480.53
-481.255
-481.982
-482.708
-483.436
-484.165
-484.894
-485.624
-486.355
-487.086
-487.819
-488.552
-489.286
-490.021
-490.756
-491.492
-492.229
-492.967
-493.705
-494.445
-495.185
-495.925
-496.667
-497.409
-498.152
-498.895
-499.64
-500.385
-501.13
-501.877
-502.624
-503.372
-504.12
-504.869
-505.619
-506.37
-507.121
-507.873
-508.625
-509.379
-510.133
-510.887
-511.642
-512.398
-513.155
-513.912
-514.669
-515.428
-516.187
-516.946
-517.706
-518.467
-519.229
-519.991
-520.753
-521.517
-522.28
-523.045
-523.81
-524.575
-525.342
-526.108
-526.876
-527.643
-528.412
-529.181
-529.95
-530.72
-531.491
-532.262
-533.033
-533.806
-534.578
-535.351
-536.125
-536.899
-537.674
-538.449
-539.225
-540.001
-540.778
-541.555
-542.333
-543.111
-543.889
-544.668
-545.448
-546.228
-547.008
-547.789
-548.57
-549.352
-550.134
-550.917
-551.7
-552.483
-553.267
-554.051
-554.836
-555.621
-556.406
-557.192
-557.978
-558.765
-559.552
-560.339
-561.127
-561.915
-562.703
-563.492
-564.281
-565.071
-565.861
-566.651
-567.441
-568.232
-569.023
-569.814
-570.606
-571.398
-572.191
-572.983
-573.776
-574.569
-575.363
-576.157
-576.951
-450.992
-451.673
-452.355
-453.039
-453.723
-454.408
-455.094
-455.781
-456.47
-457.159
-457.849
-458.54
-459.232
-459.925
-460.62
-461.315
-462.011
-462.708
-463.406
-464.105
-464.805
-465.506
-466.207
-466.91
-467.614
-468.319
-469.024
-469.731
-470.438
-471.146
-471.856
-472.566
-473.277
-473.989
-474.701
-475.415
-476.129
-476.845
-477.561
-478.278
-478.996
-479.714
-480.434
-481.154
-481.875
-482.597
-483.32
-484.044
-484.768
-485.493
-486.22
-486.946
-487.674
-488.403
-489.132
-489.862
-490.593
-491.324
-492.057
-492.79
-493.524
-494.259
-494.994
-495.73
-496.467
-497.205
-497.943
-498.683
-499.423
-500.163
-500.905
-501.647
-502.39
-503.133
-503.878
-504.623
-505.368
-506.115
-506.862
-507.61
-508.358
-509.107
-509.857
-510.608
-511.359
-512.111
-512.863
-513.617
-514.371
-515.125
-515.88
-516.636
-517.393
-518.15
-518.907
-519.666
-520.425
-521.184
-521.944
-522.705
-523.467
-524.229
-524.991
-525.755
-526.518
-527.283
-528.048
-528.813
-529.58
-530.346
-531.114
-531.881
-532.65
-533.419
-534.188
-534.958
-535.729
-536.5
-537.271
-538.044
-538.816
-539.589
-540.363
-541.137
-541.912
-542.687
-543.463
-544.239
-545.016
-545.793
-546.571
-547.349
-548.127
-548.906
-549.686
-550.466
-551.246
-552.027
-552.808
-553.59
-554.372
-555.155
-555.938
-556.721
-557.505
-558.289
-559.074
-559.859
-560.644
-561.43
-562.216
-563.003
-563.79
-564.577
-565.365
-566.153
-566.941
-567.73
-568.519
-569.309
-570.099
-570.889
-571.679
-572.47
-573.261
-574.052
-574.844
-575.636
-576.429
-577.221
-578.014
-578.807
-579.601
-580.395
-581.189
-455.911
-456.593
-457.277
-457.961
-458.646
-459.332
-460.019
-460.708
-461.397
-462.087
-462.778
-463.47
-464.163
-464.858
-465.553
-466.249
-466.946
-467.644
-468.343
-469.043
-469.744
-470.445
-471.148
-471.852
-472.557
-473.262
-473.969
-474.676
-475.384
-476.094
-476.804
-477.515
-478.227
-478.939
-479.653
-480.367
-481.083
-481.799
-482.516
-483.234
-483.952
-484.672
-485.392
-486.113
-486.835
-487.558
-488.282
-489.006
-489.731
-490.458
-491.184
-491.912
-492.641
-493.37
-494.1
-494.831
-495.562
-496.295
-497.028
-497.762
-498.497
-499.232
-499.968
-500.705
-501.443
-502.181
-502.921
-503.661
-504.401
-505.143
-505.885
-506.628
-507.371
-508.116
-508.861
-509.606
-510.353
-511.1
-511.848
-512.596
-513.345
-514.095
-514.846
-515.597
-516.349
-517.101
-517.855
-518.609
-519.363
-520.118
-520.874
-521.631
-522.388
-523.145
-523.904
-524.663
-525.422
-526.182
-526.943
-527.705
-528.467
-529.229
-529.993
-530.756
-531.521
-532.286
-533.051
-533.818
-534.584
-535.352
-536.119
-536.888
-537.657
-538.426
-539.196
-539.967
-540.738
-541.509
-542.282
-543.054
-543.827
-544.601
-545.375
-546.15
-546.925
-547.701
-548.477
-549.254
-550.031
-550.809
-551.587
-552.365
-553.144
-553.924
-554.704
-555.484
-556.265
-557.046
-557.828
-558.61
-559.393
-560.176
-560.959
-561.743
-562.527
-563.312
-564.097
-564.882
-565.668
-566.454
-567.241
-568.028
-568.815
-569.603
-570.391
-571.179
-571.968
-572.757
-573.547
-574.336
-575.127
-575.917
-576.708
-577.499
-578.29
-579.082
-579.874
-580.667
-581.459
-582.252
-583.045
-583.839
-584.633
-585.427
-460.831
-461.514
-462.199
-462.884
-463.57
-464.257
-464.945
-465.635
-466.325
-467.016
-467.708
-468.401
-469.095
-469.791
-470.487
-471.184
-471.882
-472.581
-473.281
-473.982
-474.683
-475.386
-476.09
-476.795
-477.5
-478.207
-478.914
-479.622
-480.332
-481.042
-481.753
-482.465
-483.177
-483.891
-484.605
-485.321
-486.037
-486.754
-487.472
-488.19
-488.91
-489.63
-490.351
-491.073
-491.796
-492.52
-493.244
-493.969
-494.696
-495.422
-496.15
-496.879
-497.608
-498.338
-499.069
-499.8
-500.533
-501.266
-502
-502.735
-503.47
-504.206
-504.943
-505.681
-506.419
-507.159
-507.899
-508.639
-509.381
-510.123
-510.866
-511.609
-512.354
-513.099
-513.844
-514.591
-515.338
-516.086
-516.834
-517.583
-518.333
-519.084
-519.835
-520.587
-521.339
-522.093
-522.847
-523.601
-524.356
-525.112
-525.868
-526.626
-527.383
-528.142
-528.901
-529.66
-530.42
-531.181
-531.943
-532.705
-533.467
-534.231
-534.994
-535.759
-536.524
-537.289
-538.056
-538.822
-539.589
-540.357
-541.126
-541.895
-542.664
-543.434
-544.205
-544.976
-545.747
-546.52
-547.292
-548.065
-548.839
-549.613
-550.388
-551.163
-551.939
-552.715
-553.492
-554.269
-555.047
-555.825
-556.603
-557.382
-558.162
-558.942
-559.722
-560.503
-561.284
-562.066
-562.848
-563.631
-564.414
-565.197
-565.981
-566.765
-567.55
-568.335
-569.12
-569.906
-570.692
-571.479
-572.266
-573.053
-573.841
-574.629
-575.417
-576.206
-576.995
-577.785
-578.574
-579.365
-580.155
-580.946
-581.737
-582.528
-583.32
-584.112
-584.904
-585.697
-586.49
-587.283
-588.077
-588.871
-465.069
-465.752
-466.437
-467.122
-467.808
-468.495
-469.183
-469.873
-470.563
-471.254
-471.946
-472.639
-473.333
-474.029
-474.725
-475.422
-476.12
-476.819
-477.519
-478.219
-478.921
-479.624
-480.328
-481.033
-481.738
-482.445
-483.152
-483.86
-484.57
-485.28
-485.991
-486.703
-487.415
-488.129
-488.843
-489.559
-490.275
-490.992
-491.71
-492.428
-493.148
-493.868
-494.589
-495.311
-496.034
-496.758
-497.482
-498.207
-498.934
-499.66
-500.388
-501.117
-501.846
-502.576
-503.307
-504.038
-504.771
-505.504
-506.238
-506.973
-507.708
-508.444
-509.181
-509.919
-510.657
-511.397
-512.137
-512.877
-513.619
-514.361
-515.104
-515.847
-516.592
-517.337
-518.082
-518.829
-519.576
-520.324
-521.072
-521.821
-522.571
-523.322
-524.073
-524.825
-525.577
-526.331
-527.084
-527.839
-528.594
-529.35
-530.106
-530.864
-531.621
-532.38
-533.139
-533.898
-534.658
-535.419
-536.181
-536.943
-537.705
-538.469
-539.232
-539.997
-540.762
-541.527
-542.293
-543.06
-543.827
-544.595
-545.364
-546.133
-546.902
-547.672
-548.443
-549.214
-549.985
-550.758
-551.53
-552.303
-553.077
-553.851
-554.626
-555.401
-556.177
-556.953
-557.73
-558.507
-559.285
-560.063
-560.841
-561.62
-562.4
-563.18
-563.96
-564.741
-565.522
-566.304
-567.086
-567.869
-568.652
-569.435
-570.219
-571.003
-571.788
-572.573
-573.358
-574.144
-574.93
-575.717
-576.504
-577.291
-578.079
-578.867
-579.655
-580.444
-581.233
-582.023
-582.812
-583.603
-584.393
-585.184
-585.975
-586.766
-587.558
-588.35
-589.142
-589.935
-590.728
-591.521
-592.315
-593.108
-469.99
-470.674
-471.36
-472.046
-472.733
-473.421
-474.111
-474.801
-475.492
-476.184
-476.877
-477.571
-478.266
-478.963
-479.66
-480.358
-481.057
-481.757
-482.457
-483.159
-483.862
-484.566
-485.271
-485.976
-486.683
-487.39
-488.098
-488.808
-489.518
-490.229
-490.94
-491.653
-492.367
-493.081
-493.797
-494.513
-495.23
-495.948
-496.666
-497.386
-498.106
-498.827
-499.549
-500.272
-500.996
-501.72
-502.445
-503.172
-503.898
-504.626
-505.355
-506.084
-506.814
-507.545