/*--------------------------------*- C++ -*----------------------------------*\
| =========                 |                                                 |
| \\      /  F ield         | OpenFOAM: The Open Source CFD Toolbox           |
|  \\    /   O peration     | Version:  2512                                  |
|   \\  /    A nd           | Website:  www.openfoam.com                      |
|    \\/     M anipulation  |                                                 |
\*---------------------------------------------------------------------------*/
FoamFile
{
    version     2.0;
    format      ascii;
    arch        "LSB;label=32;scalar=64";
    class       volScalarField;
    location    "0.1";
    object      pB;
}
// * * * * * * * * * * * * * * * * * * * * * * * * * * * * * * * * * * * * * //

dimensions      [1 1 -3 0 0 -1 0];

internalField   nonuniform List<scalar> 
8334
(
4.06695
4.07641
4.08586
4.09538
4.10495
4.11458
4.12423
4.13394
4.14368
4.15346
4.16328
4.17313
4.18302
4.19293
4.20286
4.21281
4.22276
4.23273
4.24269
4.25264
4.26259
4.27251
4.2824
4.29227
4.30209
4.31188
4.32161
4.33129
4.34092
4.35048
4.35998
4.36941
4.37878
4.38809
4.39732
4.40652
4.41563
4.42473
4.43393
4.44319
4.45246
4.46174
4.47103
4.48034
4.48966
4.49899
4.50833
4.51768
4.52704
4.53641
4.54578
4.55518
4.56458
4.57398
4.5834
4.59283
4.60227
4.61172
4.62117
4.63064
4.64011
4.64959
4.65908
4.66858
4.67808
4.68759
4.6971
4.70662
4.71615
4.72568
4.73521
4.74475
4.75429
4.76384
4.77339
4.78294
4.7925
4.80205
4.81161
4.82118
4.83074
4.84031
4.84988
4.85945
4.86903
4.8786
4.88818
4.89776
4.90733
4.91691
4.92649
4.93607
4.94565
4.95524
4.96482
4.9744
4.98398
4.99357
5.00315
5.01274
5.02232
5.03191
5.04149
5.05108
5.06066
5.07025
5.07984
5.08942
5.09901
5.1086
5.11818
5.12777
5.13736
5.14694
5.15653
5.16612
5.17571
5.1853
5.19488
5.20447
5.21406
5.22366
5.23325
5.24284
5.25243
5.26202
5.27162
5.28121
5.29081
5.3004
5.31
5.31959
5.32919
5.33879
5.34839
5.35799
5.36759
5.37719
5.38679
5.3964
5.406
5.41561
5.42521
5.43482
5.44443
5.45404
5.46365
5.47327
5.48289
5.49251
5.50213
5.51175
5.52137
5.531
5.54063
5.55025
5.55989
5.56952
5.57915
5.58878
5.59842
5.60805
5.61768
5.62731
5.63694
5.64657
5.65619
5.66581
5.67542
5.68503
5.69462
5.70421
5.71379
5.72336
5.73291
5.74246
5.75199
5.7615
5.77101
5.78051
5.79001
5.79951
5.80902
5.81857
5.82813
4.14574
4.15714
4.1686
4.18013
4.1917
4.2033
4.21495
4.22664
4.23837
4.25013
4.26193
4.27375
4.2856
4.29746
4.30934
4.32123
4.33312
4.34501
4.35688
4.36874
4.38057
4.39238
4.40415
4.41588
4.42756
4.43919
4.45076
4.46227
4.47371
4.48509
4.4964
4.50763
4.5188
4.52987
4.54092
4.55188
4.56278
4.57376
4.58483
4.59592
4.60701
4.61812
4.62925
4.64039
4.65155
4.66272
4.6739
4.6851
4.69631
4.70753
4.71877
4.73002
4.74128
4.75256
4.76385
4.77515
4.78646
4.79778
4.80912
4.82047
4.83182
4.84319
4.85456
4.86595
4.87734
4.88874
4.90015
4.91156
4.92298
4.93441
4.94584
4.95727
4.96871
4.98016
4.99161
5.00306
5.01452
5.02598
5.03744
5.04891
5.06037
5.07184
5.08332
5.09479
5.10627
5.11774
5.12922
5.1407
5.15218
5.16366
5.17514
5.18662
5.19811
5.20959
5.22107
5.23255
5.24403
5.25552
5.267
5.27848
5.28996
5.30144
5.31292
5.3244
5.33588
5.34736
5.35884
5.37032
5.3818
5.39328
5.40475
5.41623
5.4277
5.43917
5.45065
5.46212
5.47359
5.48507
5.49654
5.50801
5.51948
5.53095
5.54242
5.55389
5.56536
5.57683
5.58829
5.59976
5.61123
5.6227
5.63416
5.64563
5.6571
5.66856
5.68003
5.6915
5.70297
5.71443
5.7259
5.73737
5.74884
5.76031
5.77178
5.78325
5.79472
5.8062
5.81767
5.82915
5.84063
5.85211
5.86359
5.87508
5.88656
5.89805
5.90954
5.92103
5.93252
5.94402
5.95551
5.96701
5.9785
5.98999
6.00149
6.01298
6.02446
6.03595
6.04743
6.0589
6.07036
6.08182
6.09326
6.10469
6.11611
6.1275
6.13889
6.15025
6.16159
6.17292
6.18422
6.19552
6.20681
6.21811
6.22941
6.24075
4.21497
4.22834
4.24172
4.25519
4.26871
4.28225
4.29585
4.30948
4.32315
4.33685
4.35058
4.36434
4.37812
4.39192
4.40572
4.41954
4.43335
4.44715
4.46094
4.47471
4.48846
4.50217
4.51584
4.52946
4.54304
4.55656
4.57001
4.5834
4.59672
4.60997
4.62314
4.63623
4.64926
4.66218
4.67507
4.68787
4.70058
4.71336
4.72623
4.73913
4.75204
4.76497
4.77791
4.79088
4.80386
4.81686
4.82987
4.8429
4.85595
4.86901
4.88209
4.89519
4.90831
4.92143
4.93458
4.94774
4.96091
4.9741
4.9873
5.00052
5.01375
5.02699
5.04024
5.0535
5.06677
5.08006
5.09335
5.10665
5.11995
5.13327
5.14659
5.15992
5.17325
5.18659
5.19993
5.21328
5.22663
5.23998
5.25334
5.26671
5.28007
5.29344
5.30681
5.32018
5.33355
5.34693
5.36031
5.37368
5.38706
5.40044
5.41382
5.4272
5.44057
5.45395
5.46733
5.48071
5.49409
5.50746
5.52084
5.53422
5.54759
5.56096
5.57434
5.58771
5.60108
5.61445
5.62782
5.64118
5.65455
5.66791
5.68127
5.69463
5.70799
5.72135
5.7347
5.74806
5.76141
5.77476
5.78811
5.80146
5.81481
5.82816
5.8415
5.85484
5.86819
5.88153
5.89487
5.9082
5.92154
5.93488
5.94821
5.96154
5.97488
5.98821
6.00154
6.01487
6.0282
6.04153
6.05486
6.06819
6.08152
6.09485
6.10818
6.12151
6.13484
6.14817
6.1615
6.17484
6.18818
6.20151
6.21485
6.22819
6.24154
6.25488
6.26823
6.28158
6.29493
6.30828
6.32163
6.33498
6.34833
6.36169
6.37504
6.38839
6.40173
6.41507
6.42841
6.44174
6.45506
6.46837
6.48166
6.49494
6.5082
6.52144
6.53466
6.54785
6.56102
6.57416
6.58727
6.60036
6.61344
6.62651
6.63959
6.65268
4.2994
4.31472
4.3301
4.34555
4.36104
4.37657
4.39214
4.40774
4.42337
4.43904
4.45472
4.47043
4.48615
4.50188
4.51761
4.53334
4.54905
4.56475
4.58043
4.59607
4.61168
4.62725
4.64276
4.65823
4.67363
4.68896
4.70422
4.71941
4.73452
4.74955
4.76449
4.77937
4.79413
4.80885
4.82349
4.83803
4.85261
4.86728
4.88199
4.89671
4.91145
4.92621
4.94099
4.95579
4.97061
4.98545
5.00032
5.0152
5.0301
5.04502
5.05996
5.07492
5.08989
5.10489
5.11991
5.13494
5.14999
5.16505
5.18013
5.19523
5.21034
5.22546
5.2406
5.25575
5.27091
5.28608
5.30126
5.31645
5.33164
5.34685
5.36206
5.37728
5.39251
5.40774
5.42298
5.43822
5.45347
5.46872
5.48397
5.49923
5.51449
5.52975
5.54502
5.56028
5.57555
5.59082
5.60609
5.62136
5.63663
5.65191
5.66718
5.68245
5.69772
5.71299
5.72826
5.74353
5.75879
5.77406
5.78932
5.80459
5.81985
5.83511
5.85037
5.86562
5.88088
5.89613
5.91138
5.92663
5.94187
5.95712
5.97236
5.98759
6.00283
6.01806
6.03329
6.04852
6.06375
6.07897
6.0942
6.10942
6.12463
6.13985
6.15506
6.17027
6.18548
6.20068
6.21589
6.23109
6.24629
6.26149
6.27668
6.29187
6.30707
6.32226
6.33745
6.35264
6.36782
6.38301
6.39819
6.41338
6.42856
6.44375
6.45893
6.47412
6.4893
6.50449
6.51968
6.53487
6.55006
6.56525
6.58044
6.59564
6.61083
6.62603
6.64123
6.65644
6.67164
6.68685
6.70205
6.71726
6.73247
6.74767
6.76288
6.77808
6.79327
6.80846
6.82364
6.83881
6.85397
6.86911
6.88424
6.89934
6.91442
6.92947
6.94449
6.95947
6.97442
6.98934
7.00422
7.01908
7.03392
7.04876
7.0636
4.38752
4.40481
4.42216
4.43958
4.45705
4.47455
4.49207
4.50963
4.52722
4.54482
4.56245
4.58009
4.59773
4.61537
4.633
4.65063
4.66823
4.6858
4.70334
4.72084
4.73829
4.75569
4.77303
4.7903
4.80751
4.82464
4.84169
4.85865
4.87553
4.89232
4.90903
4.92563
4.94217
4.95864
4.97501
4.9914
5.00787
5.02438
5.04091
5.05746
5.07402
5.09062
5.10723
5.12387
5.14053
5.15722
5.17393
5.19066
5.20741
5.22419
5.24099
5.25781
5.27465
5.29151
5.3084
5.3253
5.34222
5.35916
5.37612
5.39309
5.41008
5.42709
5.4441
5.46114
5.47818
5.49523
5.5123
5.52938
5.54646
5.56355
5.58066
5.59776
5.61488
5.632
5.64913
5.66626
5.68339
5.70053
5.71768
5.73482
5.75197
5.76913
5.78628
5.80344
5.82059
5.83775
5.85491
5.87207
5.88922
5.90638
5.92354
5.94069
5.95785
5.975
5.99216
6.00931
6.02646
6.0436
6.06075
6.07789
6.09503
6.11217
6.12931
6.14644
6.16357
6.1807
6.19782
6.21495
6.23206
6.24918
6.26629
6.2834
6.3005
6.31761
6.3347
6.3518
6.36889
6.38598
6.40307
6.42015
6.43723
6.4543
6.47138
6.48844
6.50551
6.52257
6.53963
6.55669
6.57374
6.5908
6.60785
6.62489
6.64194
6.65898
6.67602
6.69306
6.71009
6.72713
6.74416
6.7612
6.77823
6.79526
6.8123
6.82933
6.84636
6.8634
6.88043
6.89747
6.91451
6.93155
6.94859
6.96563
6.98268
6.99973
7.01678
7.03383
7.05088
7.06794
7.08499
7.10205
7.1191
7.13615
7.1532
7.17024
7.18728
7.20431
7.22132
7.23832
7.25531
7.27227
7.28921
7.30612
7.323
7.33984
7.35664
7.3734
7.39011
7.40678
7.42342
7.44002
7.45661
7.4732
4.47926
4.4985
4.51784
4.53723
4.55664
4.57608
4.59556
4.61506
4.63457
4.65411
4.67365
4.6932
4.71274
4.73228
4.75179
4.77128
4.79075
4.81017
4.82955
4.84888
4.86816
4.88736
4.9065
4.92557
4.94455
4.96345
4.98226
5.00098
5.0196
5.03814
5.05658
5.07494
5.09322
5.11142
5.12961
5.14788
5.16619
5.18452
5.20286
5.22124
5.23964
5.25806
5.27651
5.29498
5.31348
5.33201
5.35057
5.36915
5.38776
5.40639
5.42504
5.44373
5.46243
5.48116
5.49991
5.51868
5.53747
5.55628
5.57511
5.59396
5.61282
5.6317
5.6506
5.66951
5.68843
5.70736
5.72631
5.74527
5.76423
5.78321
5.80219
5.82118
5.84018
5.85918
5.87819
5.8972
5.91622
5.93524
5.95427
5.9733
5.99233
6.01136
6.0304
6.04943
6.06847
6.08751
6.10655
6.12558
6.14462
6.16365
6.18269
6.20172
6.22075
6.23978
6.25881
6.27784
6.29686
6.31588
6.3349
6.35391
6.37292
6.39193
6.41094
6.42994
6.44893
6.46793
6.48692
6.5059
6.52488
6.54386
6.56284
6.5818
6.60077
6.61973
6.63869
6.65764
6.67659
6.69553
6.71447
6.73341
6.75234
6.77127
6.79019
6.80911
6.82802
6.84693
6.86584
6.88474
6.90364
6.92254
6.94143
6.96032
6.97921
6.9981
7.01698
7.03586
7.05474
7.07361
7.09249
7.11136
7.13024
7.14911
7.16798
7.18686
7.20573
7.22461
7.24348
7.26236
7.28124
7.30012
7.319
7.33789
7.35677
7.37566
7.39455
7.41345
7.43234
7.45124
7.47013
7.48903
7.50792
7.52681
7.54569
7.56457
7.58344
7.60229
7.62113
7.63995
7.65875
7.67751
7.69625
7.71495
7.7336
7.75221
7.77077
7.78928
7.80773
7.82613
7.8445
7.86283
7.88116
4.55335
4.57452
4.59574
4.61703
4.63835
4.6597
4.68109
4.70249
4.72391
4.74534
4.76678
4.78822
4.80965
4.83107
4.85247
4.87385
4.89519
4.91649
4.93774
4.95893
4.98007
5.00114
5.02213
5.04304
5.06387
5.08461
5.10525
5.1258
5.14625
5.16661
5.18687
5.20704
5.22713
5.24714
5.26714
5.2872
5.3073
5.32742
5.34756
5.36773
5.38793
5.40815
5.4284
5.44868
5.46899
5.48933
5.5097
5.5301
5.55053
5.57098
5.59147
5.61198
5.63251
5.65307
5.67366
5.69427
5.71491
5.73556
5.75624
5.77694
5.79765
5.81839
5.83914
5.85991
5.88069
5.90148
5.92229
5.94311
5.96393
5.98477
6.00562
6.02648
6.04734
6.06821
6.08909
6.10997
6.13086
6.15175
6.17265
6.19355
6.21445
6.23535
6.25626
6.27717
6.29807
6.31898
6.33989
6.3608
6.3817
6.40261
6.42351
6.44441
6.46531
6.48621
6.5071
6.528
6.54888
6.56977
6.59065
6.61153
6.63241
6.65328
6.67415
6.69501
6.71587
6.73672
6.75757
6.77841
6.79925
6.82009
6.84092
6.86174
6.88256
6.90337
6.92418
6.94499
6.96579
6.98658
7.00737
7.02815
7.04893
7.0697
7.09047
7.11123
7.13199
7.15274
7.17349
7.19424
7.21497
7.23571
7.25644
7.27717
7.29789
7.31861
7.33933
7.36005
7.38076
7.40147
7.42218
7.44288
7.46359
7.48429
7.505
7.5257
7.5464
7.56711
7.58782
7.60852
7.62923
7.64994
7.67066
7.69137
7.71209
7.73281
7.75353
7.77426
7.79498
7.81571
7.83644
7.85716
7.87789
7.89861
7.91933
7.94003
7.96073
7.98142
8.00208
8.02273
8.04335
8.06394
8.08449
8.10501
8.12547
8.14588
8.16623
8.18652
8.20675
8.22691
8.24702
8.2671
8.28715
4.65014
4.67324
4.6964
4.71962
4.74287
4.76615
4.78944
4.81274
4.83607
4.85939
4.88271
4.90602
4.92932
4.95259
4.97583
4.99904
5.0222
5.04531
5.06836
5.09135
5.11426
5.13709
5.15984
5.1825
5.20507
5.22754
5.24991
5.27217
5.29434
5.3164
5.33837
5.36027
5.38209
5.40388
5.42572
5.4476
5.46951
5.49143
5.51339
5.53537
5.55738
5.57943
5.6015
5.62361
5.64575
5.66793
5.69013
5.71237
5.73464
5.75694
5.77927
5.80163
5.82402
5.84643
5.86887
5.89134
5.91383
5.93635
5.95888
5.98144
6.00402
6.02661
6.04922
6.07185
6.0945
6.11715
6.13982
6.16251
6.1852
6.2079
6.23061
6.25333
6.27606
6.2988
6.32154
6.34429
6.36704
6.38979
6.41255
6.43531
6.45807
6.48084
6.50361
6.52637
6.54914
6.57191
6.59467
6.61744
6.6402
6.66297
6.68573
6.70848
6.73124
6.75399
6.77674
6.79948
6.82222
6.84496
6.86769
6.89042
6.91315
6.93587
6.95858
6.98129
7.00399
7.02669
7.04938
7.07207
7.09475
7.11742
7.14009
7.16275
7.18541
7.20806
7.23071
7.25335
7.27598
7.29861
7.32123
7.34384
7.36645
7.38905
7.41165
7.43424
7.45682
7.4794
7.50197
7.52454
7.54711
7.56967
7.59222
7.61477
7.63732
7.65986
7.6824
7.70493
7.72746
7.74999
7.77252
7.79505
7.81758
7.8401
7.86262
7.88515
7.90767
7.9302
7.95273
7.97526
7.99779
8.02032
8.04285
8.06539
8.08793
8.11048
8.13302
8.15557
8.17812
8.20067
8.22322
8.24576
8.26831
8.29085
8.31338
8.33589
8.3584
8.38088
8.40335
8.42578
8.44818
8.47055
8.49286
8.51512
8.53733
8.55946
8.58153
8.60352
8.62543
8.64728
8.66909
8.69086
4.75027
4.77529
4.80039
4.82552
4.85068
4.87585
4.90102
4.92622
4.95141
4.9766
5.00178
5.02693
5.05207
5.07716
5.10222
5.12723
5.15219
5.17708
5.2019
5.22664
5.2513
5.27588
5.30035
5.32473
5.34901
5.37318
5.39725
5.42121
5.44507
5.46884
5.49252
5.51613
5.53972
5.56333
5.58698
5.61066
5.63436
5.65809
5.68185
5.70564
5.72947
5.75333
5.77723
5.80116
5.82512
5.84913
5.87316
5.89724
5.92134
5.94548
5.96965
5.99385
6.01808
6.04234
6.06662
6.09094
6.11528
6.13964
6.16403
6.18844
6.21286
6.23731
6.26177
6.28626
6.31075
6.33526
6.35978
6.38432
6.40887
6.43342
6.45799
6.48256
6.50714
6.53173
6.55632
6.58092
6.60552
6.63013
6.65474
6.67935
6.70396
6.72858
6.75319
6.77781
6.80242
6.82703
6.85165
6.87626
6.90087
6.92547
6.95007
6.97468
6.99927
7.02386
7.04845
7.07304
7.09762
7.12219
7.14676
7.17132
7.19588
7.22044
7.24498
7.26953
7.29406
7.31859
7.34311
7.36762
7.39213
7.41663
7.44113
7.46562
7.4901
7.51457
7.53904
7.5635
7.58795
7.6124
7.63683
7.66127
7.68569
7.71011
7.73452
7.75892
7.78332
7.80771
7.8321
7.85648
7.88085
7.90522
7.92959
7.95395
7.9783
8.00265
8.027
8.05134
8.07568
8.10002
8.12436
8.14869
8.17303
8.19736
8.22169
8.24603
8.27036
8.29469
8.31903
8.34337
8.36771
8.39206
8.4164
8.44075
8.4651
8.48946
8.51381
8.53817
8.56253
8.58689
8.61125
8.6356
8.65995
8.68429
8.70862
8.73293
8.75723
8.7815
8.80573
8.82994
8.8541
8.8782
8.90225
8.92624
8.95015
8.97398
8.99773
9.02139
9.04497
9.06849
9.09197
4.82675
4.85365
4.88059
4.90759
4.93461
4.96163
4.98867
5.01572
5.04277
5.06981
5.09684
5.12384
5.15082
5.17776
5.20465
5.23149
5.25828
5.28499
5.31164
5.3382
5.36467
5.39105
5.41733
5.44351
5.46958
5.49555
5.5214
5.54714
5.57279
5.59833
5.62379
5.64918
5.67454
5.69992
5.72533
5.75077
5.77623
5.80172
5.82725
5.85281
5.8784
5.90404
5.92971
5.95541
5.98116
6.00695
6.03277
6.05863
6.08453
6.11046
6.13643
6.16243
6.18846
6.21452
6.24062
6.26674
6.29289
6.31907
6.34527
6.3715
6.39775
6.42401
6.4503
6.4766
6.50293
6.52926
6.55561
6.58198
6.60835
6.63474
6.66114
6.68754
6.71395
6.74037
6.7668
6.79323
6.81967
6.84611
6.87255
6.899
6.92544
6.95189
6.97834
7.00479
7.03124
7.05769
7.08413
7.11058
7.13702
7.16346
7.18989
7.21632
7.24275
7.26917
7.29559
7.32201
7.34842
7.37482
7.40122
7.42761
7.45399
7.48037
7.50674
7.53311
7.55947
7.58582
7.61216
7.6385
7.66482
7.69115
7.71746
7.74376
7.77006
7.79635
7.82263
7.84891
7.87517
7.90143
7.92768
7.95392
7.98015
8.00638
8.0326
8.05881
8.08501
8.11121
8.1374
8.16358
8.18976
8.21593
8.2421
8.26825
8.29441
8.32056
8.3467
8.37285
8.39898
8.42512
8.45125
8.47738
8.50351
8.52964
8.55577
8.58189
8.60802
8.63415
8.66028
8.68642
8.71255
8.73869
8.76483
8.79098
8.81713
8.84328
8.86943
8.89559
8.92174
8.9479
8.97405
9.00021
9.02635
9.05249
9.07861
9.10472
9.13081
9.15687
9.1829
9.20889
9.23484
9.26073
9.28655
9.31231
9.33798
9.36357
9.38906
9.41445
9.43975
9.46498
9.49015
4.93139
4.96018
4.989
5.01787
5.04673
5.07562
5.10451
5.1334
5.16227
5.19113
5.21996
5.24877
5.27753
5.30624
5.3349
5.3635
5.39202
5.42047
5.44883
5.4771
5.50527
5.53334
5.5613
5.58915
5.61689
5.64452
5.67203
5.69944
5.72674
5.75397
5.78112
5.80824
5.83537
5.86253
5.88972
5.91693
5.94417
5.97145
5.99876
6.02611
6.0535
6.08093
6.1084
6.13591
6.16347
6.19106
6.2187
6.24637
6.27408
6.30183
6.32962
6.35744
6.38529
6.41318
6.4411
6.46905
6.49702
6.52503
6.55305
6.58111
6.60918
6.63727
6.66539
6.69352
6.72167
6.74983
6.77801
6.8062
6.8344
6.86261
6.89083
6.91907
6.9473
6.97555
7.0038
7.03205
7.06031
7.08857
7.11684
7.1451
7.17337
7.20164
7.22991
7.25818
7.28644
7.31471
7.34297
7.37123
7.39949
7.42774
7.45599
7.48423
7.51247
7.5407
7.56893
7.59716
7.62537
7.65358
7.68179
7.70998
7.73817
7.76635
7.79453
7.82269
7.85085
7.879
7.90715
7.93528
7.9634
7.99152
8.01963
8.04773
8.07582
8.1039
8.13197
8.16003
8.18809
8.21613
8.24417
8.2722
8.30022
8.32823
8.35623
8.38423
8.41221
8.44019
8.46816
8.49613
8.52409
8.55204
8.57998
8.60792
8.63586
8.66378
8.69171
8.71963
8.74755
8.77546
8.80337
8.83128
8.85919
8.8871
8.91501
8.94292
8.97083
8.99874
9.02665
9.05457
9.08249
9.11041
9.13833
9.16626
9.19419
9.22213
9.25007
9.27801
9.30595
9.33388
9.36182
9.38975
9.41767
9.44557
9.47346
9.50133
9.52917
9.55698
9.58475
9.61246
9.64012
9.66771
9.69522
9.72264
9.74997
9.7772
9.80431
9.83131
9.85824
9.88509
5.03908
5.06972
5.10038
5.13108
5.1618
5.19251
5.22321
5.25391
5.28458
5.31522
5.34583
5.3764
5.40692
5.43738
5.46777
5.49808
5.52832
5.55846
5.58851
5.61846
5.64829
5.67802
5.70763
5.73712
5.7665
5.79577
5.82492
5.85398
5.88295
5.91185
5.94071
5.96958
5.99847
6.02739
6.05634
6.08531
6.11432
6.14337
6.17246
6.20159
6.23077
6.25999
6.28925
6.31856
6.34791
6.3773
6.40673
6.43621
6.46573
6.49528
6.52487
6.5545
6.58417
6.61387
6.64359
6.67335
6.70314
6.73296
6.7628
6.79266
6.82255
6.85245
6.88238
6.91232
6.94228
6.97226
7.00224
7.03224
7.06226
7.09228
7.12231
7.15235
7.18239
7.21245
7.2425
7.27256
7.30263
7.3327
7.36277
7.39284
7.42291
7.45298
7.48305
7.51312
7.54319
7.57325
7.60331
7.63337
7.66342
7.69347
7.72351
7.75355
7.78359
7.81361
7.84363
7.87365
7.90365
7.93365
7.96364
7.99363
8.0236
8.05357
8.08353
8.11348
8.14342
8.17335
8.20327
8.23319
8.26309
8.29298
8.32287
8.35274
8.38261
8.41246
8.44231
8.47214
8.50197
8.53178
8.56159
8.59139
8.62117
8.65095
8.68072
8.71048
8.74023
8.76998
8.79971
8.82944
8.85916
8.88888
8.91858
8.94829
8.97798
9.00767
9.03736
9.06704
9.09672
9.1264
9.15607
9.18575
9.21542
9.24509
9.27476
9.30444
9.33411
9.36379
9.39347
9.42315
9.45284
9.48253
9.51223
9.54192
9.57162
9.60133
9.63103
9.66074
9.69044
9.72014
9.74984
9.77953
9.8092
9.83886
9.86849
9.89809
9.92766
9.95719
9.98666
10.0161
10.0454
10.0747
10.1038
10.1329
10.1618
10.1907
10.2193
10.248
10.2765
5.14966
5.18211
5.21461
5.24713
5.27965
5.31215
5.34464
5.37711
5.40954
5.44194
5.4743
5.5066
5.53883
5.571
5.60308
5.63508
5.66699
5.6988
5.7305
5.76209
5.79356
5.82491
5.85614
5.88726
5.91825
5.94914
5.97993
6.01062
6.04126
6.07185
6.10244
6.13304
6.16368
6.19434
6.22503
6.25576
6.28653
6.31734
6.3482
6.3791
6.41005
6.44105
6.47209
6.50318
6.53431
6.56549
6.59671
6.62798
6.65928
6.69063
6.72202
6.75344
6.7849
6.81639
6.84792
6.87947
6.91105
6.94267
6.9743
7.00596
7.03764
7.06934
7.10106
7.1328
7.16456
7.19632
7.22811
7.2599
7.2917
7.32352
7.35534
7.38717
7.41901
7.45085
7.48269
7.51454
7.5464
7.57825
7.61011
7.64196
7.67382
7.70567
7.73753
7.76938
7.80122
7.83307
7.86491
7.89675
7.92858
7.9604
7.99222
8.02404
8.05584
8.08764
8.11944
8.15122
8.183
8.21477
8.24653
8.27828
8.31002
8.34175
8.37348
8.40519
8.43689
8.46859
8.50027
8.53194
8.5636
8.59526
8.6269
8.65853
8.69015
8.72176
8.75335
8.78494
8.81652
8.84809
8.87964
8.91119
8.94272
8.97425
9.00577
9.03727
9.06877
9.10026
9.13174
9.16322
9.19468
9.22614
9.25759
9.28904
9.32048
9.35192
9.38335
9.41477
9.4462
9.47762
9.50904
9.54046
9.57188
9.6033
9.63472
9.66614
9.69756
9.72899
9.76042
9.79185
9.82329
9.85473
9.88617
9.91762
9.94907
9.98053
10.012
10.0434
10.0749
10.1063
10.1378
10.1692
10.2006
10.232
10.2633
10.2946
10.3259
10.3571
10.3883
10.4193
10.4503
10.4812
10.512
10.5426
10.5732
10.6035
10.6338
10.664
5.22873
5.26298
5.29725
5.33155
5.36585
5.40012
5.43439
5.46864
5.50284
5.53701
5.57113
5.60519
5.63918
5.6731
5.70694
5.74069
5.77434
5.80788
5.84132
5.87463
5.90783
5.94091
5.97386
6.00668
6.03939
6.07199
6.10448
6.13689
6.16923
6.20153
6.23383
6.26613
6.29847
6.33082
6.36322
6.39565
6.42812
6.46063
6.4932
6.52581
6.55847
6.59118
6.62393
6.65674
6.6896
6.7225
6.75545
6.78845
6.82149
6.85457
6.88769
6.92086
6.95406
6.98729
7.02056
7.05387
7.0872
7.12056
7.15395
7.18736
7.2208
7.25426
7.28774
7.32124
7.35475
7.38828
7.42182
7.45538
7.48895
7.52252
7.55611
7.5897
7.6233
7.65691
7.69052
7.72414
7.75776
7.79138
7.825
7.85862
7.89224
7.92586
7.95948
7.99309
8.0267
8.06031
8.09392
8.12752
8.16111
8.1947
8.22828
8.26186
8.29542
8.32898
8.36254
8.39608
8.42962
8.46314
8.49666
8.53017
8.56367
8.59715
8.63063
8.6641
8.69755
8.731
8.76443
8.79785
8.83126
8.86466
8.89805
8.93143
8.9648
8.99815
9.03149
9.06482
9.09814
9.13145
9.16475
9.19803
9.23131
9.26457
9.29782
9.33107
9.3643
9.39753
9.43074
9.46395
9.49715
9.53034
9.56352
9.5967
9.62987
9.66303
9.69619
9.72935
9.7625
9.79565
9.8288
9.86194
9.89509
9.92824
9.96138
9.99453
10.0277
10.0608
10.094
10.1272
10.1603
10.1935
10.2267
10.2598
10.293
10.3262
10.3594
10.3926
10.4258
10.4589
10.4921
10.5253
10.5584
10.5915
10.6246
10.6576
10.6906
10.7235
10.7564
10.7892
10.8219
10.8545
10.8869
10.9193
10.9515
10.9835
11.0155
11.0473
5.34293
5.37895
5.41499
5.45104
5.48707
5.5231
5.55909
5.59504
5.63096
5.66682
5.70262
5.73835
5.774
5.80956
5.84504
5.88041
5.91567
5.95081
5.98584
6.02074
6.05551
6.09016
6.12468
6.15908
6.19337
6.22755
6.26165
6.29568
6.32966
6.36364
6.39763
6.43164
6.46567
6.49975
6.53385
6.56801
6.60221
6.63646
6.67076
6.70511
6.73951
6.77397
6.80847
6.84303
6.87764
6.9123
6.947
6.98175
7.01655
7.05139
7.08627
7.1212
7.15616
7.19115
7.22618
7.26125
7.29634
7.33146
7.36661
7.40178
7.43697
7.47219
7.50742
7.54268
7.57795
7.61323
7.64853
7.68384
7.71916
7.75449
7.78982
7.82517
7.86052
7.89588
7.93123
7.9666
8.00196
8.03733
8.07269
8.10806
8.14342
8.17878
8.21414
8.2495
8.28485
8.3202
8.35554
8.39088
8.42621
8.46153
8.49685
8.53215
8.56745
8.60274
8.63803
8.6733
8.70856
8.74382
8.77906
8.81429
8.84951
8.88473
8.91992
8.95511
8.99029
9.02545
9.0606
9.09574
9.13087
9.16598
9.20109
9.23618
9.27126
9.30632
9.34137
9.37641
9.41144
9.44646
9.48146
9.51646
9.55144
9.58641
9.62137
9.65632
9.69125
9.72618
9.7611
9.79601
9.83091
9.86581
9.90069
9.93557
9.97045
10.0053
10.0402
10.075
10.1099
10.1448
10.1796
10.2145
10.2493
10.2842
10.319
10.3539
10.3887
10.4236
10.4585
10.4933
10.5282
10.5631
10.598
10.6329
10.6678
10.7027
10.7376
10.7725
10.8073
10.8422
10.8771
10.9119
10.9467
10.9815
11.0163
11.051
11.0856
11.1202
11.1547
11.189
11.2233
11.2575
11.2915
11.3254
11.3591
11.3927
11.4261
5.45963
5.4974
5.53515
5.57292
5.61068
5.6484
5.68607
5.72371
5.76129
5.79881
5.83625
5.8736
5.91087
5.94805
5.98511
6.02207
6.0589
6.09561
6.13219
6.16864
6.20496
6.24115
6.27722
6.31317
6.34902
6.38478
6.42048
6.45613
6.49177
6.52741
6.56308
6.59877
6.6345
6.67027
6.70609
6.74195
6.77786
6.81383
6.84985
6.88592
6.92205
6.95824
6.99448
7.03077
7.06711
7.10351
7.13995
7.17644
7.21297
7.24955
7.28618
7.32284
7.35954
7.39627
7.43304
7.46984
7.50667
7.54353
7.58042
7.61732
7.65425
7.69121
7.72818
7.76516
7.80217
7.83918
7.87621
7.91325
7.9503
7.98736
8.02443
8.0615
8.09858
8.13566
8.17274
8.20983
8.24692
8.28401
8.32109
8.35818
8.39526
8.43234
8.46942
8.50649
8.54356
8.58062
8.61768
8.65473
8.69177
8.7288
8.76583
8.80285
8.83985
8.87685
8.91384
8.95082
8.98779
9.02474
9.06169
9.09862
9.13554
9.17245
9.20935
9.24623
9.2831
9.31996
9.35681
9.39364
9.43046
9.46727
9.50406
9.54084
9.57761
9.61436
9.6511
9.68783
9.72454
9.76124
9.79793
9.83461
9.87127
9.90792
9.94457
9.9812
10.0178
10.0544
10.091
10.1276
10.1642
10.2008
10.2373
10.2739
10.3105
10.347
10.3836
10.4201
10.4566
10.4932
10.5297
10.5662
10.6028
10.6393
10.6759
10.7124
10.749
10.7855
10.8221
10.8586
10.8952
10.9318
10.9684
11.0049
11.0415
11.0781
11.1147
11.1513
11.1878
11.2244
11.2609
11.2974
11.3339
11.3703
11.4067
11.443
11.4793
11.5154
11.5515
11.5874
11.6232
11.6589
11.6944
11.7298
11.765
11.8001
5.57869
5.61813
5.6576
5.69706
5.73648
5.77585
5.81519
5.85446
5.89366
5.93279
5.97183
6.01078
6.04963
6.08836
6.12698
6.16548
6.20385
6.24208
6.28019
6.31815
6.35599
6.3937
6.4313
6.46879
6.50619
6.54353
6.58082
6.6181
6.65538
6.69268
6.73001
6.76737
6.80478
6.84223
6.87973
6.91729
6.9549
6.99257
7.03029
7.06807
7.10591
7.14381
7.18176
7.21976
7.25782
7.29593
7.33409
7.3723
7.41055
7.44885
7.48719
7.52557
7.56399
7.60244
7.64093
7.67944
7.71799
7.75656
7.79516
7.83378
7.87243
7.91109
7.94977
7.98847
8.02718
8.0659
8.10464
8.14339
8.18214
8.22091
8.25968
8.29845
8.33723
8.37602
8.4148
8.45359
8.49237
8.53116
8.56994
8.60872
8.6475
8.68628
8.72505
8.76381
8.80257
8.84132
8.88007
8.9188
8.95753
8.99625
9.03496
9.07366
9.11235
9.15103
9.1897
9.22836
9.267
9.30564
9.34426
9.38287
9.42146
9.46004
9.49861
9.53717
9.57571
9.61424
9.65275
9.69125
9.72974
9.76821
9.80667
9.84511
9.88354
9.92196
9.96036
9.99875
10.0371
10.0755
10.1138
10.1522
10.1905
10.2288
10.2671
10.3054
10.3437
10.3819
10.4202
10.4584
10.4967
10.5349
10.5731
10.6113
10.6496
10.6878
10.726
10.7642
10.8024
10.8406
10.8788
10.917
10.9552
10.9934
11.0316
11.0698
11.108
11.1462
11.1845
11.2227
11.2609
11.2992
11.3374
11.3757
11.4139
11.4522
11.4904
11.5286
11.5668
11.605
11.6432
11.6814
11.7195
11.7575
11.7955
11.8334
11.8712
11.9089
11.9465
11.9839
12.0212
12.0584
12.0954
12.1322
5.65877
5.6999
5.74103
5.78216
5.82326
5.86431
5.90531
5.94625
5.98711
6.0279
6.06859
6.10919
6.14969
6.19007
6.23033
6.27046
6.31047
6.35033
6.39006
6.42965
6.4691
6.50843
6.54764
6.58675
6.62577
6.66472
6.70363
6.74252
6.78141
6.82033
6.85926
6.89824
6.93725
6.97632
7.01544
7.05461
7.09384
7.13313
7.17248
7.21189
7.25136
7.29089
7.33047
7.37012
7.40982
7.44957
7.48937
7.52923
7.56913
7.60908
7.64907
7.6891
7.72918
7.76929
7.80944
7.84962
7.88982
7.93006
7.97032
8.01061
8.05092
8.09125
8.1316
8.17197
8.21235
8.25275
8.29315
8.33357
8.374
8.41444
8.45488
8.49533
8.53578
8.57624
8.6167
8.65715
8.69761
8.73807
8.77853
8.81898
8.85943
8.89988
8.94032
8.98075
9.02118
9.06161
9.10202
9.14243
9.18282
9.22321
9.26359
9.30396
9.34432
9.38466
9.425
9.46532
9.50563
9.54593
9.58621
9.62648
9.66674
9.70698
9.74721
9.78742
9.82762
9.86781
9.90798
9.94814
9.98828
10.0284
10.0685
10.1086
10.1487
10.1888
10.2288
10.2688
10.3089
10.3489
10.3889
10.4289
10.4688
10.5088
10.5487
10.5886
10.6286
10.6685
10.7084
10.7483
10.7881
10.828
10.8679
10.9077
10.9476
10.9874
11.0273
11.0671
11.1069
11.1468
11.1866
11.2265
11.2663
11.3061
11.346
11.3858
11.4257
11.4655
11.5054
11.5453
11.5851
11.625
11.6649
11.7048
11.7447
11.7846
11.8244
11.8643
11.9042
11.944
11.9838
12.0236
12.0633
12.103
12.1426
12.1822
12.2216
12.2609
12.3002
12.3392
12.3781
12.4169
12.4555
12.4939
5.7804
5.82316
5.86592
5.90866
5.95136
5.994
6.03657
6.07907
6.12149
6.16381
6.20603
6.24815
6.29015
6.33202
6.37376
6.41537
6.45683
6.49816
6.53934
6.58039
6.62131
6.66211
6.70281
6.74341
6.78396
6.82445
6.86493
6.90541
6.9459
6.98642
7.02698
7.06759
7.10824
7.14895
7.18971
7.23054
7.27142
7.31237
7.35338
7.39445
7.43559
7.47678
7.51804
7.55935
7.60072
7.64214
7.68362
7.72514
7.76672
7.80834
7.85
7.8917
7.93345
7.97523
8.01704
8.05888
8.10076
8.14266
8.18459
8.22654
8.26851
8.3105
8.35251
8.39453
8.43657
8.47863
8.52069
8.56276
8.60485
8.64693
8.68903
8.73113
8.77323
8.81533
8.85744
8.89954
8.94165
8.98375
9.02585
9.06794
9.11003
9.15212
9.1942
9.23627
9.27834
9.3204
9.36245
9.40449
9.44652
9.48854
9.53054
9.57254
9.61453
9.6565
9.69846
9.74041
9.78234
9.82426
9.86617
9.90806
9.94994
9.9918
10.0336
10.0755
10.1173
10.1591
10.2009
10.2427
10.2844
10.3261
10.3679
10.4096
10.4513
10.4929
10.5346
10.5762
10.6179
10.6595
10.7011
10.7427
10.7842
10.8258
10.8673
10.9089
10.9504
10.9919
11.0334
11.0749
11.1164
11.1579
11.1993
11.2408
11.2823
11.3237
11.3652
11.4066
11.4481
11.4895
11.5309
11.5724
11.6138
11.6553
11.6968
11.7382
11.7797
11.8212
11.8626
11.9041
11.9456
11.9871
12.0286
12.0701
12.1116
12.1531
12.1946
12.2361
12.2775
12.319
12.3604
12.4017
12.443
12.4842
12.5254
12.5664
12.6073
12.6481
12.6888
12.7293
12.7696
12.8098
12.8498
5.90391
5.94826
5.99261
6.03693
6.08118
6.12535
6.16946
6.21347
6.25739
6.30121
6.34492
6.3885
6.43196
6.47528
6.51846
6.56149
6.60439
6.64714
6.68975
6.73223
6.77459
6.81685
6.85901
6.90112
6.94317
6.98521
7.02724
7.0693
7.11137
7.15349
7.19565
7.23787
7.28014
7.32247
7.36486
7.40731
7.44983
7.49242
7.53507
7.57778
7.62056
7.6634
7.7063
7.74925
7.79227
7.83533
7.87845
7.92162
7.96484
8.00811
8.05141
8.09476
8.13814
8.18156
8.22502
8.2685
8.31201
8.35555
8.39911
8.4427
8.4863
8.52992
8.57356
8.61722
8.66089
8.70457
8.74826
8.79196
8.83566
8.87938
8.92309
8.96681
9.01053
9.05426
9.09798
9.1417
9.18542
9.22914
9.27285
9.31656
9.36026
9.40396
9.44765
9.49133
9.535
9.57866
9.62232
9.66596
9.70959
9.75321
9.79682
9.84042
9.884
9.92757
9.97113
10.0147
10.0582
10.1017
10.1452
10.1887
10.2322
10.2756
10.319
10.3625
10.4059
10.4493
10.4926
10.536
10.5793
10.6226
10.6659
10.7092
10.7525
10.7957
10.839
10.8822
10.9254
10.9686
11.0118
11.0549
11.0981
11.1412
11.1844
11.2275
11.2706
11.3137
11.3567
11.3998
11.4429
11.4859
11.529
11.572
11.615
11.6581
11.7011
11.7441
11.7871
11.8302
11.8732
11.9162
11.9593
12.0023
12.0454
12.0884
12.1315
12.1745
12.2176
12.2607
12.3038
12.3469
12.3899
12.433
12.4761
12.5192
12.5622
12.6053
12.6483
12.6913
12.7342
12.7771
12.8199
12.8626
12.9053
12.9478
12.9901
13.0324
13.0744
13.1163
13.1581
13.1996
5.98317
6.02912
6.07503
6.12093
6.16676
6.21251
6.25819
6.30378
6.34926
6.39464
6.43991
6.48505
6.53005
6.57492
6.61965
6.66422
6.70865
6.75294
6.79708
6.8411
6.88499
6.92877
6.97247
7.0161
7.05969
7.10325
7.14681
7.19039
7.234
7.27765
7.32134
7.36508
7.40889
7.45275
7.49668
7.54068
7.58474
7.62887
7.67307
7.71733
7.76166
7.80605
7.85051
7.89503
7.9396
7.98423
8.02892
8.07366
8.11844
8.16328
8.20816
8.25308
8.29804
8.34304
8.38807
8.43313
8.47822
8.52334
8.56849
8.61365
8.65884
8.70405
8.74928
8.79452
8.83977
8.88504
8.93032
8.9756
9.0209
9.0662
9.1115
9.15681
9.20212
9.24743
9.29274
9.33805
9.38336
9.42866
9.47396
9.51926
9.56455
9.60983
9.6551
9.70037
9.74563
9.79088
9.83611
9.88134
9.92656
9.97176
10.017
10.0621
10.1073
10.1524
10.1976
10.2427
10.2878
10.3329
10.378
10.423
10.4681
10.5131
10.5581
10.6031
10.6481
10.693
10.738
10.7829
10.8278
10.8727
10.9176
10.9624
11.0073
11.0521
11.0969
11.1417
11.1864
11.2312
11.2759
11.3206
11.3654
11.4101
11.4547
11.4994
11.5441