/*--------------------------------*- C++ -*----------------------------------*\
| =========                 |                                                 |
| \\      /  F ield         | OpenFOAM: The Open Source CFD Toolbox           |
|  \\    /   O peration     | Version:  2512                                  |
|   \\  /    A nd           | Website:  www.openfoam.com                      |
|    \\/     M anipulation  |                                                 |
\*---------------------------------------------------------------------------*/
FoamFile
{
    version     2.0;
    format      ascii;
    arch        "LSB;label=32;scalar=64";
    class       surfaceScalarField;
    location    "0.1";
    object      phi;
}
// * * * * * * * * * * * * * * * * * * * * * * * * * * * * * * * * * * * * * //

dimensions      [1 0 -1 0 0 0 0];

oriented        oriented;

internalField   nonuniform List<scalar> 
16433
(
0.00267763
0.00267765
-3.83031e-07
0.00267753
-2.94546e-07
0.00267743
-3.13041e-07
0.00267734
-3.34512e-07
0.00267724
-3.45851e-07
0.00267715
-3.38227e-07
0.00267705
-3.45639e-07
0.00267695
-3.53405e-07
0.00267684
-3.52898e-07
0.00267673
-3.58151e-07
0.00267663
-3.65711e-07
0.00267652
-3.69586e-07
0.0026764
-3.73907e-07
0.00267629
-3.79731e-07
0.00267617
-3.85238e-07
0.00267605
-3.90543e-07
0.00267593
-3.95822e-07
0.00267581
-4.01362e-07
0.00267568
-4.07087e-07
0.00267556
-4.12967e-07
0.00267543
-4.19563e-07
0.0026753
-4.25134e-07
0.00267516
-4.33271e-07
0.00267503
-4.38628e-07
0.00267489
-4.48021e-07
0.00267475
-4.5545e-07
0.00267461
-4.62102e-07
0.00267447
-4.76129e-07
0.00267433
-4.77739e-07
0.00267417
-4.96049e-07
0.00267403
-5.13851e-07
0.00267386
-4.8733e-07
0.00267373
-5.76556e-07
0.00267354
-4.71921e-07
0.00267336
-5.92206e-07
0.00267323
-5.59576e-07
0.00267309
-4.07368e-07
0.00267293
-4.13065e-07
0.00267277
-4.47929e-07
0.00267261
-4.43005e-07
0.00267245
-4.36838e-07
0.00267229
-4.40245e-07
0.00267212
-4.45385e-07
0.00267195
-4.49952e-07
0.00267178
-4.54467e-07
0.00267161
-4.58983e-07
0.00267143
-4.63367e-07
0.00267125
-4.67586e-07
0.00267108
-4.71643e-07
0.00267089
-4.75545e-07
0.00267071
-4.79302e-07
0.00267053
-4.8292e-07
0.00267034
-4.86413e-07
0.00267015
-4.89792e-07
0.00266996
-4.93066e-07
0.00266977
-4.96245e-07
0.00266958
-4.9934e-07
0.00266938
-5.02359e-07
0.00266918
-5.0531e-07
0.00266898
-5.08203e-07
0.00266878
-5.11042e-07
0.00266857
-5.13832e-07
0.00266837
-5.1658e-07
0.00266816
-5.19289e-07
0.00266795
-5.21965e-07
0.00266774
-5.24611e-07
0.00266752
-5.27227e-07
0.00266731
-5.2982e-07
0.00266709
-5.32393e-07
0.00266687
-5.34945e-07
0.00266665
-5.37479e-07
0.00266642
-5.39998e-07
0.0026662
-5.42503e-07
0.00266597
-5.44996e-07
0.00266574
-5.47479e-07
0.00266551
-5.49951e-07
0.00266528
-5.52413e-07
0.00266504
-5.54867e-07
0.0026648
-5.57316e-07
0.00266456
-5.5976e-07
0.00266432
-5.62195e-07
0.00266408
-5.64625e-07
0.00266383
-5.67051e-07
0.00266359
-5.69472e-07
0.00266334
-5.71891e-07
0.00266309
-5.74305e-07
0.00266283
-5.76717e-07
0.00266258
-5.79126e-07
0.00266232
-5.81532e-07
0.00266206
-5.83937e-07
0.0026618
-5.86339e-07
0.00266154
-5.88739e-07
0.00266127
-5.91137e-07
0.002661
-5.93533e-07
0.00266074
-5.95928e-07
0.00266047
-5.98322e-07
0.00266019
-6.00715e-07
0.00265992
-6.03106e-07
0.00265964
-6.05495e-07
0.00265936
-6.07883e-07
0.00265908
-6.10272e-07
0.0026588
-6.12658e-07
0.00265851
-6.15044e-07
0.00265823
-6.17428e-07
0.00265794
-6.19812e-07
0.00265765
-6.22196e-07
0.00265736
-6.24578e-07
0.00265706
-6.2696e-07
0.00265677
-6.2934e-07
0.00265647
-6.31719e-07
0.00265617
-6.34095e-07
0.00265587
-6.36471e-07
0.00265556
-6.3884e-07
0.00265526
-6.41215e-07
0.00265495
-6.43607e-07
0.00265464
-6.46011e-07
0.00265433
-6.48432e-07
0.00265401
-6.50892e-07
0.0026537
-6.53235e-07
0.00265338
-6.55593e-07
0.00265306
-6.57973e-07
0.00265274
-6.60299e-07
0.00265241
-6.62581e-07
0.00265209
-6.64892e-07
0.00265176
-6.67217e-07
0.00265143
-6.69547e-07
0.0026511
-6.71876e-07
0.00265077
-6.74209e-07
0.00265043
-6.76536e-07
0.0026501
-6.78854e-07
0.00264976
-6.81144e-07
0.00264942
-6.83397e-07
0.00264908
-6.85724e-07
0.00264873
-6.88055e-07
0.00264838
-6.90373e-07
0.00264804
-6.92673e-07
0.00264769
-6.94965e-07
0.00264733
-6.97311e-07
0.00264698
-6.99648e-07
0.00264662
-7.0197e-07
0.00264627
-7.0428e-07
0.00264591
-7.06579e-07
0.00264554
-7.08869e-07
0.00264518
-7.11156e-07
0.00264482
-7.13436e-07
0.00264445
-7.15711e-07
0.00264408
-7.17987e-07
0.00264371
-7.20265e-07
0.00264333
-7.22496e-07
0.00264296
-7.24712e-07
0.00264258
-7.26917e-07
0.0026422
-7.29104e-07
0.00264182
-7.3124e-07
0.00264144
-7.33365e-07
0.00264106
-7.35485e-07
0.00264067
-7.37596e-07
0.00264028
-7.39692e-07
0.00263989
-7.41766e-07
0.0026395
-7.43819e-07
0.00263911
-7.45846e-07
0.00263871
-7.47839e-07
0.00263831
-7.49797e-07
0.00263791
-7.51711e-07
0.00263751
-7.53586e-07
0.00263711
-7.5544e-07
0.00263671
-7.57262e-07
0.0026363
-7.59052e-07
0.00263589
-7.60768e-07
0.00263548
-7.62394e-07
0.00263507
-7.63918e-07
0.00263465
-7.65333e-07
0.00263424
-7.66605e-07
0.00263382
-7.67719e-07
0.0026334
-7.68605e-07
0.00263298
-7.69322e-07
0.00263256
-7.69555e-07
0.00263213
-7.69834e-07
0.0026317
-7.68808e-07
0.00263127
-7.68956e-07
0.00263084
-7.66148e-07
0.00263041
-7.66942e-07
0.00262998
-7.64152e-07
0.00262954
-7.67403e-07
-7.79582e-07
0.00267765
-4.64515e-07
0.00267753
-2.30369e-07
0.00267742
-2.59023e-07
0.00267734
-3.15817e-07
0.00267725
-3.15362e-07
0.00267715
-3.0198e-07
0.00267705
-3.146e-07
0.00267695
-3.21164e-07
0.00267684
-3.17664e-07
0.00267673
-3.2403e-07
0.00267663
-3.32068e-07
0.00267652
-3.34985e-07
0.0026764
-3.39196e-07
0.00267629
-3.45176e-07
0.00267617
-3.50514e-07
0.00267605
-3.55649e-07
0.00267593
-3.60803e-07
0.00267581
-3.66159e-07
0.00267568
-3.71796e-07
0.00267556
-3.77585e-07
0.00267543
-3.83971e-07
0.0026753
-3.89649e-07
0.00267516
-3.97247e-07
0.00267503
-4.03042e-07
0.00267489
-4.11625e-07
0.00267475
-4.1929e-07
0.00267461
-4.26137e-07
0.00267447
-4.38101e-07
0.00267433
-4.44346e-07
0.00267417
-4.52852e-07
0.00267403
-4.82858e-07
0.00267387
-4.40965e-07
0.00267371
-5.384e-07
0.00267356
-4.38197e-07
0.00267337
-5.22199e-07
0.00267322
-5.35568e-07
0.00267309
-3.96719e-07
0.00267293
-3.79102e-07
0.00267277
-4.14761e-07
0.00267261
-4.149e-07
0.00267245
-4.07297e-07
0.00267228
-4.09223e-07
0.00267212
-4.14161e-07
0.00267195
-4.18666e-07
0.00267178
-4.23075e-07
0.0026716
-4.27531e-07
0.00267143
-4.31886e-07
0.00267125
-4.36081e-07
0.00267107
-4.40116e-07
0.00267089
-4.43997e-07
0.00267071
-4.47729e-07
0.00267053
-4.51323e-07
0.00267034
-4.54788e-07
0.00267015
-4.58139e-07
0.00266996
-4.61383e-07
0.00266977
-4.64532e-07
0.00266957
-4.67596e-07
0.00266938
-4.70582e-07
0.00266918
-4.73501e-07
0.00266898
-4.76359e-07
0.00266878
-4.79164e-07
0.00266857
-4.81919e-07
0.00266837
-4.8463e-07
0.00266816
-4.87303e-07
0.00266795
-4.89941e-07
0.00266774
-4.92548e-07
0.00266752
-4.95127e-07
0.00266731
-4.97682e-07
0.00266709
-5.00215e-07
0.00266687
-5.02728e-07
0.00266665
-5.05222e-07
0.00266642
-5.07701e-07
0.0026662
-5.10166e-07
0.00266597
-5.12617e-07
0.00266574
-5.15058e-07
0.00266551
-5.17489e-07
0.00266528
-5.1991e-07
0.00266504
-5.22322e-07
0.0026648
-5.24728e-07
0.00266456
-5.27128e-07
0.00266432
-5.29521e-07
0.00266408
-5.31908e-07
0.00266383
-5.34292e-07
0.00266359
-5.3667e-07
0.00266334
-5.39044e-07
0.00266309
-5.41415e-07
0.00266283
-5.43784e-07
0.00266258
-5.46149e-07
0.00266232
-5.48511e-07
0.00266206
-5.50872e-07
0.0026618
-5.5323e-07
0.00266154
-5.55585e-07
0.00266127
-5.57939e-07
0.002661
-5.60293e-07
0.00266074
-5.62643e-07
0.00266046
-5.64992e-07
0.00266019
-5.6734e-07
0.00265992
-5.69686e-07
0.00265964
-5.72032e-07
0.00265936
-5.74376e-07
0.00265908
-5.7672e-07
0.0026588
-5.79062e-07
0.00265851
-5.81403e-07
0.00265823
-5.83743e-07
0.00265794
-5.86082e-07
0.00265765
-5.88421e-07
0.00265736
-5.90759e-07
0.00265706
-5.93094e-07
0.00265677
-5.95431e-07
0.00265647
-5.97766e-07
0.00265617
-6.00098e-07
0.00265587
-6.0243e-07
0.00265556
-6.04757e-07
0.00265526
-6.0709e-07
0.00265495
-6.09436e-07
0.00265464
-6.11793e-07
0.00265433
-6.14163e-07
0.00265401
-6.1655e-07
0.0026537
-6.18865e-07
0.00265338
-6.21181e-07
0.00265306
-6.23504e-07
0.00265274
-6.25789e-07
0.00265241
-6.28045e-07
0.00265209
-6.30314e-07
0.00265176
-6.32595e-07
0.00265143
-6.34881e-07
0.0026511
-6.37165e-07
0.00265077
-6.3945e-07
0.00265043
-6.41732e-07
0.0026501
-6.44003e-07
0.00264976
-6.46252e-07
0.00264942
-6.48483e-07
0.00264907
-6.50758e-07
0.00264873
-6.53038e-07
0.00264838
-6.55311e-07
0.00264804
-6.5757e-07
0.00264769
-6.59828e-07
0.00264733
-6.62117e-07
0.00264698
-6.64404e-07
0.00264662
-6.66679e-07
0.00264627
-6.68944e-07
0.00264591
-6.71199e-07
0.00264554
-6.73445e-07
0.00264518
-6.75688e-07
0.00264481
-6.77924e-07
0.00264445
-6.80152e-07
0.00264408
-6.82381e-07
0.00264371
-6.84604e-07
0.00264333
-6.86792e-07
0.00264296
-6.88964e-07
0.00264258
-6.91123e-07
0.0026422
-6.93262e-07
0.00264182
-6.95363e-07
0.00264144
-6.97449e-07
0.00264106
-6.99527e-07
0.00264067
-7.01593e-07
0.00264028
-7.03644e-07
0.00263989
-7.05675e-07
0.0026395
-7.07682e-07
0.00263911
-7.09665e-07
0.00263871
-7.11613e-07
0.00263831
-7.13529e-07
0.00263791
-7.15404e-07
0.00263751
-7.17243e-07
0.00263711
-7.19054e-07
0.00263671
-7.20832e-07
0.0026363
-7.22574e-07
0.00263589
-7.24245e-07
0.00263548
-7.25824e-07
0.00263507
-7.27306e-07
0.00263465
-7.28683e-07
0.00263424
-7.29914e-07
0.00263382
-7.30983e-07
0.0026334
-7.31811e-07
0.00263298
-7.32478e-07
0.00263256
-7.32589e-07
0.00263213
-7.32827e-07
0.0026317
-7.31505e-07
0.00263127
-7.31665e-07
0.00263084
-7.2835e-07
0.00263041
-7.28666e-07
0.00262998
-7.26894e-07
0.00262954
-7.27216e-07
-7.36439e-07
0.0026775
0.00267759
-3.66714e-07
0.00267744
-1.68189e-07
0.00267733
-2.64145e-07
0.00267724
-2.93669e-07
0.00267715
-2.71246e-07
0.00267705
-2.8361e-07
0.00267695
-2.88383e-07
0.00267684
-2.82879e-07
0.00267673
-2.90504e-07
0.00267663
-2.9842e-07
0.00267652
-3.00115e-07
0.0026764
-3.04421e-07
0.00267629
-3.10612e-07
0.00267617
-3.15736e-07
0.00267605
-3.20708e-07
0.00267593
-3.25728e-07
0.00267581
-3.30904e-07
0.00267568
-3.3645e-07
0.00267556
-3.42159e-07
0.00267543
-3.48342e-07
0.0026753
-3.54073e-07
0.00267516
-3.61237e-07
0.00267503
-3.67333e-07
0.00267489
-3.75305e-07
0.00267475
-3.83028e-07
0.00267461
-3.90174e-07
0.00267447
-4.00247e-07
0.00267432
-4.09674e-07
0.00267417
-4.12059e-07
0.00267402
-4.47261e-07
0.00267387
-4.0329e-07
0.00267371
-4.91611e-07
0.00267356
-4.10886e-07
0.00267338
-4.61486e-07
0.00267322
-4.97275e-07
0.00267308
-3.84086e-07
0.00267293
-3.50434e-07
0.00267277
-3.80621e-07
0.00267261
-3.8532e-07
0.00267245
-3.77934e-07
0.00267228
-3.78503e-07
0.00267212
-3.83042e-07
0.00267195
-3.87466e-07
0.00267178
-3.91767e-07
0.0026716
-3.96143e-07
0.00267143
-4.00454e-07
0.00267125
-4.04617e-07
0.00267107
-4.08623e-07
0.00267089
-4.12475e-07
0.00267071
-4.16179e-07
0.00267053
-4.19744e-07
0.00267034
-4.2318e-07
0.00267015
-4.265e-07
0.00266996
-4.29713e-07
0.00266977
-4.3283e-07
0.00266957
-4.35861e-07
0.00266938
-4.38814e-07
0.00266918
-4.41699e-07
0.00266898
-4.44522e-07
0.00266878
-4.47291e-07
0.00266857
-4.50009e-07
0.00266837
-4.52684e-07
0.00266816
-4.5532e-07
0.00266795
-4.57921e-07
0.00266774
-4.6049e-07
0.00266752
-4.63031e-07
0.00266731
-4.65546e-07
0.00266709
-4.68039e-07
0.00266687
-4.70512e-07
0.00266665
-4.72967e-07
0.00266642
-4.75405e-07
0.0026662
-4.77829e-07
0.00266597
-4.80239e-07
0.00266574
-4.82639e-07
0.00266551
-4.85028e-07
0.00266528
-4.87407e-07
0.00266504
-4.89777e-07
0.0026648
-4.9214e-07
0.00266456
-4.94498e-07
0.00266432
-4.96848e-07
0.00266408
-4.99192e-07
0.00266383
-5.01532e-07
0.00266359
-5.03867e-07
0.00266334
-5.06198e-07
0.00266308
-5.08526e-07
0.00266283
-5.1085e-07
0.00266258
-5.13171e-07
0.00266232
-5.1549e-07
0.00266206
-5.17806e-07
0.0026618
-5.2012e-07
0.00266154
-5.22432e-07
0.00266127
-5.24741e-07
0.002661
-5.2705e-07
0.00266074
-5.29356e-07
0.00266046
-5.31661e-07
0.00266019
-5.33965e-07
0.00265992
-5.36267e-07
0.00265964
-5.38568e-07
0.00265936
-5.40867e-07
0.00265908
-5.43166e-07
0.0026588
-5.45464e-07
0.00265851
-5.47761e-07
0.00265823
-5.50056e-07
0.00265794
-5.5235e-07
0.00265765
-5.54645e-07
0.00265736
-5.56938e-07
0.00265706
-5.5923e-07
0.00265677
-5.61521e-07
0.00265647
-5.63811e-07
0.00265617
-5.66098e-07
0.00265586
-5.68386e-07
0.00265556
-5.70672e-07
0.00265525
-5.72962e-07
0.00265495
-5.75262e-07
0.00265464
-5.77571e-07
0.00265433
-5.7989e-07
0.00265401
-5.82214e-07
0.0026537
-5.84493e-07
0.00265338
-5.86767e-07
0.00265306
-5.89038e-07
0.00265274
-5.91283e-07
0.00265241
-5.93506e-07
0.00265209
-5.95735e-07
0.00265176
-5.97971e-07
0.00265143
-6.00212e-07
0.0026511
-6.02451e-07
0.00265077
-6.04691e-07
0.00265043
-6.06926e-07
0.0026501
-6.09153e-07
0.00264976
-6.11364e-07
0.00264942
-6.13563e-07
0.00264907
-6.15789e-07
0.00264873
-6.18021e-07
0.00264838
-6.20248e-07
0.00264804
-6.22466e-07
0.00264768
-6.24685e-07
0.00264733
-6.26923e-07
0.00264698
-6.29161e-07
0.00264662
-6.31389e-07
0.00264626
-6.33608e-07
0.00264591
-6.35818e-07
0.00264554
-6.38021e-07
0.00264518
-6.40219e-07
0.00264481
-6.4241e-07
0.00264445
-6.44593e-07
0.00264408
-6.46773e-07
0.00264371
-6.48944e-07
0.00264333
-6.5109e-07
0.00264296
-6.53219e-07
0.00264258
-6.55332e-07
0.0026422
-6.57425e-07
0.00264182
-6.59487e-07
0.00264144
-6.61532e-07
0.00264106
-6.63567e-07
0.00264067
-6.65589e-07
0.00264028
-6.67597e-07
0.00263989
-6.69583e-07
0.0026395
-6.71546e-07
0.00263911
-6.73485e-07
0.00263871
-6.75389e-07
0.00263831
-6.77266e-07
0.00263791
-6.79101e-07
0.00263751
-6.80903e-07
0.00263711
-6.82671e-07
0.00263671
-6.84406e-07
0.0026363
-6.86103e-07
0.00263589
-6.87731e-07
0.00263548
-6.89266e-07
0.00263507
-6.90709e-07
0.00263465
-6.92052e-07
0.00263424
-6.93245e-07
0.00263382
-6.94274e-07
0.0026334
-6.9505e-07
0.00263298
-6.95681e-07
0.00263256
-6.95667e-07
0.00263213
-6.95913e-07
0.0026317
-6.94199e-07
0.00263127
-6.94589e-07
0.00263084
-6.90231e-07
0.00263041
-6.91194e-07
0.00262997
-6.87458e-07
0.00262954
-6.87262e-07
-6.95362e-07
0.00267744
0.00267749
-2.73383e-07
0.00267735
-1.83003e-07
0.00267723
-2.39633e-07
0.00267714
-2.44927e-07
0.00267705
-2.58984e-07
0.00267695
-2.54633e-07
0.00267684
-2.46737e-07
0.00267673
-2.57322e-07
0.00267663
-2.64927e-07
0.00267652
-2.65099e-07
0.0026764
-2.69762e-07
0.00267629
-2.76154e-07
0.00267617
-2.80959e-07
0.00267605
-2.85791e-07
0.00267593
-2.90647e-07
0.00267581
-2.95625e-07
0.00267568
-3.01083e-07
0.00267556
-3.06712e-07
0.00267543
-3.12699e-07
0.0026753
-3.18426e-07
0.00267516
-3.25239e-07
0.00267503
-3.3147e-07
0.00267489
-3.39036e-07
0.00267475
-3.46628e-07
0.00267461
-3.54058e-07
0.00267447
-3.62699e-07
0.00267432
-3.7396e-07
0.00267417
-3.73415e-07
0.00267402
-4.08493e-07
0.00267387
-3.68937e-07
0.00267371
-4.42185e-07
0.00267356
-3.8445e-07
0.00267339
-4.10341e-07
0.00267322
-4.52568e-07
0.00267308
-3.66043e-07
0.00267293
-3.24605e-07
0.00267277
-3.47061e-07
0.00267261
-3.54537e-07
0.00267245
-3.48359e-07
0.00267228
-3.48001e-07
0.00267212
-3.52035e-07
0.00267195
-3.56334e-07
0.00267178
-3.60528e-07
0.0026716
-3.64815e-07
0.00267143
-3.69069e-07
0.00267125
-3.73191e-07
0.00267107
-3.77163e-07
0.00267089
-3.80983e-07
0.00267071
-3.84655e-07
0.00267053
-3.88189e-07
0.00267034
-3.91593e-07
0.00267015
-3.9488e-07
0.00266996
-3.9806e-07
0.00266977
-4.01142e-07
0.00266957
-4.04139e-07
0.00266938
-4.07057e-07
0.00266918
-4.09906e-07
0.00266898
-4.12693e-07
0.00266878
-4.15426e-07
0.00266857
-4.18107e-07
0.00266837
-4.20745e-07
0.00266816
-4.23343e-07
0.00266795
-4.25905e-07
0.00266774
-4.28436e-07
0.00266752
-4.30937e-07
0.00266731
-4.33413e-07
0.00266709
-4.35867e-07
0.00266687
-4.383e-07
0.00266665
-4.40714e-07
0.00266642
-4.43112e-07
0.0026662
-4.45494e-07
0.00266597
-4.47863e-07
0.00266574
-4.50221e-07
0.00266551
-4.52568e-07
0.00266528
-4.54905e-07
0.00266504
-4.57233e-07
0.0026648
-4.59553e-07
0.00266456
-4.61868e-07
0.00266432
-4.64175e-07
0.00266408
-4.66477e-07
0.00266383
-4.68773e-07
0.00266359
-4.71065e-07
0.00266334
-4.73352e-07
0.00266308
-4.75636e-07
0.00266283
-4.77917e-07
0.00266258
-4.80194e-07
0.00266232
-4.82469e-07
0.00266206
-4.84741e-07
0.0026618
-4.87011e-07
0.00266154
-4.89278e-07
0.00266127
-4.91544e-07
0.002661
-4.93808e-07
0.00266073
-4.9607e-07
0.00266046
-4.9833e-07
0.00266019
-5.0059e-07
0.00265992
-5.02847e-07
0.00265964
-5.05104e-07
0.00265936
-5.07359e-07
0.00265908
-5.09613e-07
0.0026588
-5.11866e-07
0.00265851
-5.14119e-07
0.00265823
-5.16369e-07
0.00265794
-5.18619e-07
0.00265765
-5.20869e-07
0.00265736
-5.23117e-07
0.00265706
-5.25364e-07
0.00265676
-5.27611e-07
0.00265647
-5.29857e-07
0.00265617
-5.321e-07
0.00265586
-5.34344e-07
0.00265556
-5.36586e-07
0.00265525
-5.38833e-07
0.00265495
-5.41087e-07
0.00265464
-5.43349e-07
0.00265433
-5.45617e-07
0.00265401
-5.47885e-07
0.0026537
-5.50123e-07
0.00265338
-5.52353e-07
0.00265306
-5.54576e-07
0.00265274
-5.56779e-07
0.00265241
-5.58966e-07
0.00265209
-5.61155e-07
0.00265176
-5.63348e-07
0.00265143
-5.65544e-07
0.0026511
-5.67738e-07
0.00265077
-5.69933e-07
0.00265043
-5.72123e-07
0.0026501
-5.74306e-07
0.00264976
-5.76476e-07
0.00264942
-5.7864e-07
0.00264907
-5.8082e-07
0.00264873
-5.83005e-07
0.00264838
-5.85187e-07
0.00264803
-5.87363e-07
0.00264768
-5.89541e-07
0.00264733
-5.9173e-07
0.00264698
-5.93919e-07
0.00264662
-5.961e-07
0.00264626
-5.98274e-07
0.0026459
-6.00439e-07
0.00264554
-6.02598e-07
0.00264518
-6.04752e-07
0.00264481
-6.06898e-07
0.00264445
-6.09034e-07
0.00264408
-6.11167e-07
0.00264371
-6.1329e-07
0.00264333
-6.1539e-07
0.00264296
-6.17475e-07
0.00264258
-6.19543e-07
0.0026422
-6.21592e-07
0.00264182
-6.23613e-07
0.00264144
-6.25617e-07
0.00264106
-6.27611e-07
0.00264067
-6.2959e-07
0.00264028
-6.31555e-07
0.00263989
-6.33497e-07
0.0026395
-6.35415e-07
0.00263911
-6.37312e-07
0.00263871
-6.39171e-07
0.00263831
-6.41009e-07
0.00263791
-6.42802e-07
0.00263751
-6.44568e-07
0.00263711
-6.46294e-07
0.00263671
-6.47985e-07
0.0026363
-6.49643e-07
0.00263589
-6.51231e-07
0.00263548
-6.52721e-07
0.00263507
-6.54121e-07
0.00263465
-6.55436e-07
0.00263424
-6.56594e-07
0.00263382
-6.5759e-07
0.0026334
-6.58313e-07
0.00263298
-6.58935e-07
0.00263256
-6.58759e-07
0.00263213
-6.59134e-07
0.0026317
-6.56774e-07
0.00263128
-6.579e-07
0.00263084
-6.51485e-07
0.00263041
-6.54263e-07
0.00262997
-6.47214e-07
0.00262954
-6.47726e-07
-6.54156e-07
0.00267739
0.00267738
-2.30606e-07
0.00267724
-1.59604e-07
0.00267714
-2.09841e-07
0.00267705
-2.34955e-07
0.00267694
-2.22934e-07
0.00267684
-2.12497e-07
0.00267674
-2.2491e-07
0.00267663
-2.31022e-07
0.00267652
-2.29671e-07
0.0026764
-2.35132e-07
0.00267629
-2.41652e-07
0.00267617
-2.46069e-07
0.00267605
-2.5084e-07
0.00267593
-2.55516e-07
0.00267581
-2.60289e-07
0.00267568
-2.65679e-07
0.00267556
-2.71226e-07
0.00267543
-2.77025e-07
0.0026753
-2.82707e-07
0.00267516
-2.89226e-07
0.00267503
-2.955e-07
0.00267489
-3.02763e-07
0.00267475
-3.10171e-07
0.00267461
-3.17774e-07
0.00267447
-3.25431e-07
0.00267432
-3.37388e-07
0.00267417
-3.36016e-07
0.00267402
-3.68095e-07
0.00267387
-3.3635e-07
0.00267371
-3.93433e-07
0.00267356
-3.55909e-07
0.0026734
-3.65618e-07
0.00267323
-4.05726e-07
0.00267308
-3.42947e-07
0.00267293
-2.99914e-07
0.00267277
-3.14322e-07
0.00267261
-3.23014e-07
0.00267245
-3.18495e-07
0.00267228
-3.17623e-07
0.00267211
-3.21126e-07
0.00267195
-3.25266e-07
0.00267178
-3.29357e-07
0.0026716
-3.33548e-07
0.00267143
-3.37735e-07
0.00267125
-3.41809e-07
0.00267107
-3.4574e-07
0.00267089
-3.49521e-07
0.00267071
-3.53158e-07
0.00267053
-3.56656e-07
0.00267034
-3.60025e-07
0.00267015
-3.63277e-07
0.00266996
-3.66421e-07
0.00266977
-3.69468e-07
0.00266957
-3.72428e-07
0.00266938
-3.7531e-07
0.00266918
-3.78122e-07
0.00266898
-3.80872e-07
0.00266878
-3.83567e-07
0.00266857
-3.86211e-07
0.00266837
-3.88811e-07
0.00266816
-3.9137e-07
0.00266795
-3.93894e-07
0.00266774
-3.96385e-07
0.00266752
-3.98847e-07
0.00266731
-4.01283e-07
0.00266709
-4.03697e-07
0.00266687
-4.06089e-07
0.00266665
-4.08463e-07
0.00266642
-4.10819e-07
0.0026662
-4.13161e-07
0.00266597
-4.15488e-07
0.00266574
-4.17804e-07
0.00266551
-4.20109e-07
0.00266528
-4.22404e-07
0.00266504
-4.24689e-07
0.0026648
-4.26967e-07
0.00266456
-4.29239e-07
0.00266432
-4.31503e-07
0.00266408
-4.33761e-07
0.00266383
-4.36014e-07
0.00266358
-4.38263e-07
0.00266334
-4.40506e-07
0.00266308
-4.42747e-07
0.00266283
-4.44983e-07
0.00266258
-4.47217e-07
0.00266232
-4.49447e-07
0.00266206
-4.51676e-07
0.0026618
-4.53902e-07
0.00266154
-4.56125e-07
0.00266127
-4.58346e-07
0.002661
-4.60566e-07
0.00266073
-4.62784e-07
0.00266046
-4.65e-07
0.00266019
-4.67214e-07
0.00265992
-4.69428e-07
0.00265964
-4.7164e-07
0.00265936
-4.7385e-07
0.00265908
-4.7606e-07
0.0026588
-4.78268e-07
0.00265851
-4.80476e-07
0.00265823
-4.82682e-07
0.00265794
-4.84887e-07
0.00265765
-4.87092e-07
0.00265736
-4.89296e-07
0.00265706
-4.91499e-07
0.00265676
-4.93701e-07
0.00265647
-4.95902e-07
0.00265617
-4.98101e-07
0.00265586
-5.003e-07
0.00265556
-5.025e-07
0.00265525
-5.04702e-07
0.00265495
-5.0691e-07
0.00265464
-5.09125e-07
0.00265432
-5.11343e-07
0.00265401
-5.13558e-07
0.0026537
-5.15753e-07
0.00265338
-5.17939e-07
0.00265306
-5.20116e-07
0.00265274
-5.22277e-07
0.00265241
-5.24425e-07
0.00265209
-5.26573e-07
0.00265176
-5.28723e-07
0.00265143
-5.30874e-07
0.0026511
-5.33025e-07
0.00265077
-5.35174e-07
0.00265043
-5.3732e-07
0.0026501
-5.39459e-07
0.00264976
-5.41588e-07
0.00264942
-5.43714e-07
0.00264907
-5.45849e-07
0.00264873
-5.47988e-07
0.00264838
-5.50125e-07
0.00264803
-5.52259e-07
0.00264768
-5.54393e-07
0.00264733
-5.56535e-07
0.00264698
-5.58676e-07
0.00264662
-5.60811e-07
0.00264626
-5.6294e-07
0.0026459
-5.6506e-07
0.00264554
-5.67174e-07
0.00264518
-5.69284e-07
0.00264481
-5.71386e-07
0.00264445
-5.73475e-07
0.00264408
-5.7556e-07
0.00264371
-5.77636e-07
0.00264333
-5.79692e-07
0.00264296
-5.81732e-07
0.00264258
-5.83755e-07
0.0026422
-5.85762e-07
0.00264182
-5.8774e-07
0.00264144
-5.89703e-07
0.00264106
-5.91654e-07
0.00264067
-5.93589e-07
0.00264028
-5.95514e-07
0.00263989
-5.9741e-07
0.0026395
-5.99285e-07
0.00263911
-6.0114e-07
0.00263871
-6.02954e-07
0.00263831
-6.04754e-07
0.00263791
-6.06506e-07
0.00263751
-6.08235e-07
0.00263711
-6.09916e-07
0.0026367
-6.11567e-07
0.0026363
-6.13187e-07
0.00263589
-6.14734e-07
0.00263548
-6.1618e-07
0.00263507
-6.17551e-07
0.00263465
-6.18841e-07
0.00263424
-6.19968e-07
0.00263382
-6.2093e-07
0.0026334
-6.21613e-07
0.00263298
-6.22234e-07
0.00263256
-6.21904e-07
0.00263213
-6.22457e-07
0.0026317
-6.19377e-07
0.00263128
-6.21445e-07
0.00263084
-6.12495e-07
0.00263041
-6.17824e-07
0.00262997
-6.05872e-07
0.00262953
-6.07602e-07
-6.13843e-07
0.00267738
-3.15288e-07
0.00267725
-8.66322e-08
0.00267713
-1.60008e-07
0.00267705
-2.14931e-07
0.00267694
-1.89318e-07
0.00267684
-1.77655e-07
0.00267673
-1.93662e-07
0.00267663
-1.97412e-07
0.00267651
-1.94259e-07
0.0026764
-2.00863e-07
0.00267629
-2.07268e-07
0.00267617
-2.11179e-07
0.00267605
-2.15949e-07
0.00267593
-2.20367e-07
0.00267581
-2.24908e-07
0.00267568
-2.30255e-07
0.00267556
-2.35711e-07
0.00267543
-2.41323e-07
0.0026753
-2.46926e-07
0.00267516
-2.53191e-07
0.00267503
-2.59442e-07
0.00267489
-2.66468e-07
0.00267475
-2.73674e-07
0.00267461
-2.81329e-07
0.00267447
-2.88364e-07
0.00267432
-3.00277e-07
0.00267417
-2.99352e-07
0.00267402
-3.27263e-07
0.00267387
-3.03731e-07
0.00267371
-3.46723e-07
0.00267356
-3.24578e-07
0.0026734
-3.25356e-07
0.00267323
-3.59318e-07
0.00267308
-3.15582e-07
0.00267293
-2.74919e-07
0.00267277
-2.82506e-07
0.00267261
-2.9112e-07
0.00267244
-2.8827e-07
0.00267228
-2.87267e-07
0.00267211
-2.90295e-07
0.00267195
-2.94252e-07
0.00267177
-2.98242e-07
0.0026716
-3.02337e-07
0.00267143
-3.06451e-07
0.00267125
-3.10469e-07
0.00267107
-3.14353e-07
0.00267089
-3.18092e-07
0.00267071
-3.21688e-07
0.00267052
-3.25147e-07
0.00267034
-3.28478e-07
0.00267015
-3.31692e-07
0.00266996
-3.34798e-07
0.00266977
-3.37808e-07
0.00266957
-3.4073e-07
0.00266938
-3.43574e-07
0.00266918
-3.46348e-07
0.00266898
-3.4906e-07
0.00266878
-3.51716e-07
0.00266857
-3.54322e-07
0.00266837
-3.56883e-07
0.00266816
-3.59403e-07
0.00266795
-3.61887e-07
0.00266774
-3.64338e-07
0.00266752
-3.66761e-07
0.00266731
-3.69157e-07
0.00266709
-3.7153e-07
0.00266687
-3.73881e-07
0.00266665
-3.76214e-07
0.00266642
-3.78529e-07
0.0026662
-3.80829e-07
0.00266597
-3.83115e-07
0.00266574
-3.85389e-07
0.00266551
-3.87651e-07
0.00266527
-3.89904e-07
0.00266504
-3.92147e-07
0.0026648
-3.94382e-07
0.00266456
-3.9661e-07
0.00266432
-3.98832e-07
0.00266408
-4.01047e-07
0.00266383
-4.03256e-07
0.00266358
-4.05461e-07
0.00266334
-4.07661e-07
0.00266308
-4.09858e-07
0.00266283
-4.1205e-07
0.00266258
-4.1424e-07
0.00266232
-4.16427e-07
0.00266206
-4.18611e-07
0.0026618
-4.20792e-07
0.00266154
-4.22971e-07
0.00266127
-4.25148e-07
0.002661
-4.27324e-07
0.00266073
-4.29497e-07
0.00266046
-4.31669e-07
0.00266019
-4.33839e-07
0.00265992
-4.36008e-07
0.00265964
-4.38175e-07
0.00265936
-4.40341e-07
0.00265908
-4.42507e-07
0.0026588
-4.44671e-07
0.00265851
-4.46834e-07
0.00265823
-4.48995e-07
0.00265794
-4.51156e-07
0.00265765
-4.53316e-07
0.00265735
-4.55476e-07
0.00265706
-4.57633e-07
0.00265676
-4.59791e-07
0.00265647
-4.61947e-07
0.00265617
-4.64102e-07
0.00265586
-4.66257e-07
0.00265556
-4.68413e-07
0.00265525
-4.70571e-07
0.00265495
-4.72733e-07
0.00265464
-4.749e-07
0.00265432
-4.77069e-07
0.00265401
-4.79234e-07
0.0026537
-4.81385e-07
0.00265338
-4.83526e-07
0.00265306
-4.85658e-07
0.00265274
-4.87776e-07
0.00265241
-4.89885e-07
0.00265209
-4.91991e-07
0.00265176
-4.94098e-07
0.00265143
-4.96205e-07
0.0026511
-4.98312e-07
0.00265077
-5.00416e-07
0.00265043
-5.02517e-07
0.0026501
-5.04613e-07
0.00264976
-5.06701e-07
0.00264942
-5.08786e-07
0.00264907
-5.10878e-07
0.00264873
-5.12972e-07
0.00264838
-5.15064e-07
0.00264803
-5.17155e-07
0.00264768
-5.19246e-07
0.00264733
-5.21341e-07
0.00264698
-5.23435e-07
0.00264662
-5.25524e-07
0.00264626
-5.27607e-07
0.0026459
-5.29682e-07
0.00264554
-5.31752e-07
0.00264518
-5.33819e-07
0.00264481
-5.35876e-07
0.00264445
-5.37917e-07
0.00264408
-5.39956e-07
0.00264371
-5.41985e-07
0.00264333
-5.43996e-07
0.00264296
-5.45992e-07
0.00264258
-5.4797e-07
0.0026422
-5.49936e-07
0.00264182
-5.5187e-07
0.00264144
-5.5379e-07
0.00264106
-5.55701e-07
0.00264067
-5.57593e-07
0.00264028
-5.59476e-07
0.00263989
-5.61327e-07
0.0026395
-5.63159e-07
0.00263911
-5.64976e-07
0.00263871
-5.6674e-07
0.00263831
-5.68509e-07
0.00263791
-5.70214e-07
0.00263751
-5.71912e-07
0.00263711
-5.73549e-07
0.0026367
-5.75154e-07
0.0026363
-5.76749e-07
0.00263589
-5.78264e-07
0.00263548
-5.79658e-07
0.00263507
-5.80974e-07
0.00263465
-5.82261e-07
0.00263424
-5.83357e-07
0.00263382
-5.843e-07
0.0026334
-5.84934e-07
0.00263298
-5.85601e-07
0.00263256
-5.8507e-07
0.00263213
-5.85934e-07
0.0026317
-5.81865e-07
0.00263128
-5.85494e-07
0.00263084
-5.72794e-07
0.00263041
-5.82445e-07
0.00262997
-5.63141e-07
0.00262953
-5.68014e-07
-5.73622e-07
0.00267723
0.0026773
-2.1496e-07
0.00267716
-8.49597e-08
0.00267703
-1.56279e-07
0.00267694
-1.63144e-07
0.00267684
-1.50653e-07
0.00267674
-1.62398e-07
0.00267663
-1.6229e-07
0.00267651
-1.58699e-07
0.0026764
-1.66835e-07
0.00267629
-1.7265e-07
0.00267617
-1.76094e-07
0.00267605
-1.81046e-07
0.00267593
-1.85139e-07
0.00267581
-1.89456e-07
0.00267568
-1.94807e-07
0.00267556
-2.0016e-07
0.00267543
-2.05587e-07
0.0026753
-2.11085e-07
0.00267516
-2.17123e-07
0.00267503
-2.23307e-07
0.00267489
-2.30136e-07
0.00267475
-2.37144e-07
0.00267461
-2.44746e-07
0.00267447
-2.51427e-07
0.00267432
-2.62853e-07
0.00267417
-2.62999e-07
0.00267402
-2.86548e-07
0.00267387
-2.70524e-07
0.00267371
-3.02216e-07
0.00267356
-2.9095e-07
0.0026734
-2.87641e-07
0.00267323
-3.14464e-07
0.00267308
-2.84984e-07
0.00267293
-2.4902e-07
0.00267277
-2.51351e-07
0.00267261
-2.59096e-07
0.00267244
-2.57721e-07
0.00267228
-2.56872e-07
0.00267211
-2.59518e-07
0.00267194
-2.63286e-07
0.00267177
-2.67177e-07
0.0026716
-2.71179e-07
0.00267143
-2.75214e-07
0.00267125
-2.79171e-07
0.00267107
-2.83003e-07
0.00267089
-2.86695e-07
0.00267071
-2.90247e-07
0.00267052
-2.93664e-07
0.00267034
-2.96953e-07
0.00267015
-3.00126e-07
0.00266996
-3.03193e-07
0.00266977
-3.06162e-07
0.00266957
-3.09045e-07
0.00266938
-3.1185e-07
0.00266918
-3.14585e-07
0.00266898
-3.17257e-07
0.00266878
-3.19874e-07
0.00266857
-3.2244e-07
0.00266837
-3.24961e-07
0.00266816
-3.27441e-07
0.00266795
-3.29885e-07
0.00266774
-3.32297e-07
0.00266752
-3.34679e-07
0.00266731
-3.37034e-07
0.00266709
-3.39366e-07
0.00266687
-3.41677e-07
0.00266665
-3.43968e-07
0.00266642
-3.46242e-07
0.0026662
-3.485e-07
0.00266597
-3.50744e-07
0.00266574
-3.52975e-07
0.00266551
-3.55195e-07
0.00266527
-3.57405e-07
0.00266504
-3.59605e-07
0.0026648
-3.61798e-07
0.00266456
-3.63983e-07
0.00266432
-3.66161e-07
0.00266408
-3.68332e-07
0.00266383
-3.70499e-07
0.00266358
-3.7266e-07
0.00266334
-3.74816e-07
0.00266308
-3.76969e-07
0.00266283
-3.79118e-07
0.00266258
-3.81264e-07
0.00266232
-3.83406e-07
0.00266206
-3.85546e-07
0.0026618
-3.87683e-07
0.00266153
-3.89818e-07
0.00266127
-3.91951e-07
0.002661
-3.94082e-07
0.00266073
-3.96211e-07
0.00266046
-3.98338e-07
0.00266019
-4.00464e-07
0.00265992
-4.02588e-07
0.00265964
-4.04711e-07
0.00265936
-4.06833e-07
0.00265908
-4.08953e-07
0.0026588
-4.11073e-07
0.00265851
-4.13191e-07
0.00265823
-4.15308e-07
0.00265794
-4.17424e-07
0.00265765
-4.1954e-07
0.00265735
-4.21655e-07
0.00265706
-4.23768e-07
0.00265676
-4.25881e-07
0.00265647
-4.27993e-07
0.00265617
-4.30103e-07
0.00265586
-4.32214e-07
0.00265556
-4.34325e-07
0.00265525
-4.36438e-07
0.00265495
-4.38555e-07
0.00265464
-4.40675e-07
0.00265432
-4.42796e-07
0.00265401
-4.44912e-07
0.00265369
-4.47018e-07
0.00265338
-4.49114e-07
0.00265306
-4.51201e-07
0.00265274
-4.53277e-07
0.00265241
-4.55345e-07
0.00265209
-4.57409e-07
0.00265176
-4.59472e-07
0.00265143
-4.61536e-07
0.0026511
-4.63598e-07
0.00265077
-4.65659e-07
0.00265043
-4.67716e-07
0.0026501
-4.69768e-07
0.00264976
-4.71814e-07
0.00264942