/*--------------------------------*- C++ -*----------------------------------*\
| =========                 |                                                 |
| \\      /  F ield         | OpenFOAM: The Open Source CFD Toolbox           |
|  \\    /   O peration     | Version:  2512                                  |
|   \\  /    A nd           | Website:  www.openfoam.com                      |
|    \\/     M anipulation  |                                                 |
\*---------------------------------------------------------------------------*/
FoamFile
{
    version     2.0;
    format      ascii;
    arch        "LSB;label=32;scalar=64";
    class       surfaceScalarField;
    location    "0.1";
    object      phiB;
}
// * * * * * * * * * * * * * * * * * * * * * * * * * * * * * * * * * * * * * //

dimensions      [1 2 -2 0 0 -1 0];

oriented        oriented;

internalField   nonuniform List<scalar> 
16433
(
-1.94616e-10
-1.94481e-10
0.00192
-1.94545e-10
0.00192
-1.94625e-10
0.00192
-1.94618e-10
0.00192
-1.94554e-10
0.00192
-1.94525e-10
0.00192
-1.94483e-10
0.00192
-1.94424e-10
0.00192
-1.9439e-10
0.00192
-1.94357e-10
0.00192
-1.94306e-10
0.00192
-1.94259e-10
0.00192
-1.9422e-10
0.00192
-1.94175e-10
0.00192
-1.94124e-10
0.00192
-1.94073e-10
0.00192
-1.94022e-10
0.00192
-1.93968e-10
0.00192
-1.93909e-10
0.00192
-1.93848e-10
0.00192
-1.9378e-10
0.00192
-1.93708e-10
0.00192
-1.93632e-10
0.00192
-1.93548e-10
0.00192
-1.93457e-10
0.00192
-1.93358e-10
0.00192
-1.93255e-10
0.00192
-1.93144e-10
0.00192
-1.93041e-10
0.00192
-1.9289e-10
0.00192
-1.92763e-10
0.00192
-1.92658e-10
0.00192
-1.92465e-10
0.00192
-1.92435e-10
0.00192
-1.92216e-10
0.00192
-1.92236e-10
0.00192
-1.92648e-10
0.00192
-1.92918e-10
0.00192
-1.92952e-10
0.00192
-1.92942e-10
0.00192
-1.92939e-10
0.00192
-1.9292e-10
0.00192
-1.92881e-10
0.00192
-1.92831e-10
0.00192
-1.92772e-10
0.00192
-1.9271e-10
0.00192
-1.92643e-10
0.00192
-1.92573e-10
0.00192
-1.92504e-10
0.00192
-1.92434e-10
0.00192
-1.92362e-10
0.00192
-1.9229e-10
0.00192
-1.9222e-10
0.00192
-1.9215e-10
0.00192
-1.92081e-10
0.00192
-1.92014e-10
0.00192
-1.91948e-10
0.00192
-1.91883e-10
0.00192
-1.91817e-10
0.00192
-1.91753e-10
0.00192
-1.91689e-10
0.00192
-1.91625e-10
0.00192
-1.91562e-10
0.00192
-1.915e-10
0.00192
-1.9144e-10
0.00192
-1.91379e-10
0.00192
-1.91319e-10
0.00192
-1.91258e-10
0.00192
-1.91198e-10
0.00192
-1.91138e-10
0.00192
-1.91078e-10
0.00192
-1.91019e-10
0.00192
-1.90959e-10
0.00192
-1.909e-10
0.00192
-1.90841e-10
0.00192
-1.90784e-10
0.00192
-1.90726e-10
0.00192
-1.90669e-10
0.00192
-1.90612e-10
0.00192
-1.90554e-10
0.00192
-1.90496e-10
0.00192
-1.90438e-10
0.00192
-1.9038e-10
0.00192
-1.90323e-10
0.00192
-1.90265e-10
0.00192
-1.90207e-10
0.00192
-1.90149e-10
0.00192
-1.9009e-10
0.00192
-1.90032e-10
0.00192
-1.89974e-10
0.00192
-1.89916e-10
0.00192
-1.89858e-10
0.00192
-1.898e-10
0.00192
-1.89742e-10
0.00192
-1.89684e-10
0.00192
-1.89626e-10
0.00192
-1.89568e-10
0.00192
-1.89509e-10
0.00192
-1.89451e-10
0.00192
-1.89393e-10
0.00192
-1.89335e-10
0.00192
-1.89276e-10
0.00192
-1.89218e-10
0.00192
-1.89159e-10
0.00192
-1.891e-10
0.00192
-1.89041e-10
0.00192
-1.88982e-10
0.00192
-1.88923e-10
0.00192
-1.88864e-10
0.00192
-1.88805e-10
0.00192
-1.88746e-10
0.00192
-1.88687e-10
0.00192
-1.88628e-10
0.00192
-1.88568e-10
0.00192
-1.8851e-10
0.00192
-1.88451e-10
0.00192
-1.88392e-10
0.00192
-1.88334e-10
0.00192
-1.88275e-10
0.00192
-1.88217e-10
0.00192
-1.88158e-10
0.00192
-1.88099e-10
0.00192
-1.8804e-10
0.00192
-1.8798e-10
0.00192
-1.8792e-10
0.00192
-1.8786e-10
0.00192
-1.878e-10
0.00192
-1.8774e-10
0.00192
-1.87679e-10
0.00192
-1.87619e-10
0.00192
-1.87558e-10
0.00192
-1.87497e-10
0.00192
-1.87436e-10
0.00192
-1.87374e-10
0.00192
-1.87313e-10
0.00192
-1.87251e-10
0.00192
-1.87189e-10
0.00192
-1.87127e-10
0.00192
-1.87066e-10
0.00192
-1.87004e-10
0.00192
-1.86942e-10
0.00192
-1.8688e-10
0.00192
-1.86818e-10
0.00192
-1.86756e-10
0.00192
-1.86694e-10
0.00192
-1.86632e-10
0.00192
-1.8657e-10
0.00192
-1.86508e-10
0.00192
-1.86445e-10
0.00192
-1.86382e-10
0.00192
-1.86318e-10
0.00192
-1.86254e-10
0.00192
-1.8619e-10
0.00192
-1.86125e-10
0.00192
-1.86059e-10
0.00192
-1.85992e-10
0.00192
-1.85925e-10
0.00192
-1.85857e-10
0.00192
-1.85787e-10
0.00192
-1.85717e-10
0.00192
-1.85645e-10
0.00192
-1.85572e-10
0.00192
-1.85498e-10
0.00192
-1.85422e-10
0.00192
-1.85344e-10
0.00192
-1.85265e-10
0.00192
-1.85183e-10
0.00192
-1.851e-10
0.00192
-1.85015e-10
0.00192
-1.84929e-10
0.00192
-1.8484e-10
0.00192
-1.84751e-10
0.00192
-1.84662e-10
0.00192
-1.84573e-10
0.00192
-1.84486e-10
0.00192
-1.84404e-10
0.00192
-1.84331e-10
0.00192
-1.84271e-10
0.00192
-1.84235e-10
0.00192
-1.84225e-10
0.00192
-1.84253e-10
0.00192
-1.84321e-10
0.00192
-1.84411e-10
0.00192
0.00192
-5.48495e-10
0.00192
-5.48427e-10
0.00192
-5.4846e-10
0.00192
-5.48349e-10
0.00192
-5.48189e-10
0.00192
-5.4807e-10
0.00192
-5.47917e-10
0.00192
-5.47747e-10
0.00192
-5.47608e-10
0.00192
-5.47465e-10
0.00192
-5.47303e-10
0.00192
-5.47147e-10
0.00192
-5.46998e-10
0.00192
-5.46841e-10
0.00192
-5.4668e-10
0.00192
-5.46518e-10
0.00192
-5.46355e-10
0.00192
-5.4619e-10
0.00192
-5.4602e-10
0.00192
-5.45845e-10
0.00192
-5.45666e-10
0.00192
-5.45481e-10
0.00192
-5.45293e-10
0.00192
-5.45096e-10
0.00192
-5.44893e-10
0.00192
-5.44681e-10
0.00192
-5.44465e-10
0.00192
-5.44238e-10
0.00192
-5.44014e-10
0.00192
-5.43755e-10
0.00192
-5.43495e-10
0.00192
-5.43285e-10
0.00192
-5.42936e-10
0.00192
-5.42804e-10
0.00192
-5.42457e-10
0.00192
-5.42217e-10
0.00192
-5.42483e-10
0.00192
-5.42728e-10
0.00192
-5.42697e-10
0.00192
-5.42578e-10
0.00192
-5.42473e-10
0.00192
-5.42354e-10
0.00192
-5.42215e-10
0.00192
-5.42061e-10
0.00192
-5.41902e-10
0.00192
-5.41735e-10
0.00192
-5.41566e-10
0.00192
-5.41393e-10
0.00192
-5.41219e-10
0.00192
-5.41045e-10
0.00192
-5.40871e-10
0.00192
-5.40694e-10
0.00192
-5.4052e-10
0.00192
-5.40347e-10
0.00192
-5.40172e-10
0.00192
-5.40001e-10
0.00192
-5.3983e-10
0.00192
-5.39658e-10
0.00192
-5.39489e-10
0.00192
-5.39319e-10
0.00192
-5.39149e-10
0.00192
-5.3898e-10
0.00192
-5.3881e-10
0.00192
-5.38641e-10
0.00192
-5.38474e-10
0.00192
-5.38306e-10
0.00192
-5.38138e-10
0.00192
-5.3797e-10
0.00192
-5.37802e-10
0.00192
-5.37633e-10
0.00192
-5.37464e-10
0.00192
-5.37296e-10
0.00192
-5.37127e-10
0.00192
-5.36959e-10
0.00192
-5.36791e-10
0.00192
-5.36623e-10
0.00192
-5.36455e-10
0.00192
-5.36287e-10
0.00192
-5.36119e-10
0.00192
-5.3595e-10
0.00192
-5.35781e-10
0.00192
-5.35611e-10
0.00192
-5.35441e-10
0.00192
-5.35272e-10
0.00192
-5.35102e-10
0.00192
-5.34932e-10
0.00192
-5.34761e-10
0.00192
-5.3459e-10
0.00192
-5.34419e-10
0.00192
-5.34247e-10
0.00192
-5.34076e-10
0.00192
-5.33904e-10
0.00192
-5.33732e-10
0.00192
-5.3356e-10
0.00192
-5.33388e-10
0.00192
-5.33216e-10
0.00192
-5.33043e-10
0.00192
-5.3287e-10
0.00192
-5.32697e-10
0.00192
-5.32524e-10
0.00192
-5.3235e-10
0.00192
-5.32176e-10
0.00192
-5.32002e-10
0.00192
-5.31828e-10
0.00192
-5.31653e-10
0.00192
-5.31478e-10
0.00192
-5.31303e-10
0.00192
-5.31127e-10
0.00192
-5.30952e-10
0.00192
-5.30776e-10
0.00192
-5.306e-10
0.00192
-5.30424e-10
0.00192
-5.30248e-10
0.00192
-5.30072e-10
0.00192
-5.29895e-10
0.00192
-5.29719e-10
0.00192
-5.29543e-10
0.00192
-5.29366e-10
0.00192
-5.2919e-10
0.00192
-5.29013e-10
0.00192
-5.28836e-10
0.00192
-5.28658e-10
0.00192
-5.28481e-10
0.00192
-5.28302e-10
0.00192
-5.28124e-10
0.00192
-5.27945e-10
0.00192
-5.27766e-10
0.00192
-5.27587e-10
0.00192
-5.27408e-10
0.00192
-5.27228e-10
0.00192
-5.27048e-10
0.00192
-5.26868e-10
0.00192
-5.26688e-10
0.00192
-5.26507e-10
0.00192
-5.26326e-10
0.00192
-5.26145e-10
0.00192
-5.25964e-10
0.00192
-5.25783e-10
0.00192
-5.25601e-10
0.00192
-5.2542e-10
0.00192
-5.25238e-10
0.00192
-5.25057e-10
0.00192
-5.24875e-10
0.00192
-5.24694e-10
0.00192
-5.24512e-10
0.00192
-5.2433e-10
0.00192
-5.24148e-10
0.00192
-5.23965e-10
0.00192
-5.23783e-10
0.00192
-5.236e-10
0.00192
-5.23416e-10
0.00192
-5.23232e-10
0.00192
-5.23048e-10
0.00192
-5.22863e-10
0.00192
-5.22677e-10
0.00192
-5.22491e-10
0.00192
-5.22303e-10
0.00192
-5.22115e-10
0.00192
-5.21925e-10
0.00192
-5.21734e-10
0.00192
-5.21542e-10
0.00192
-5.21348e-10
0.00192
-5.21152e-10
0.00192
-5.20954e-10
0.00192
-5.20754e-10
0.00192
-5.20552e-10
0.00192
-5.20347e-10
0.00192
-5.20139e-10
0.00192
-5.19929e-10
0.00192
-5.19715e-10
0.00192
-5.19499e-10
0.00192
-5.1928e-10
0.00192
-5.19059e-10
0.00192
-5.18837e-10
0.00192
-5.18615e-10
0.00192
-5.18394e-10
0.00192
-5.18181e-10
0.00192
-5.17978e-10
0.00192
-5.17798e-10
0.00192
-5.17643e-10
0.00192
-5.17531e-10
0.00192
-5.1746e-10
0.00192
-5.17419e-10
0.00192
0.00192
-9.02613e-10
-9.0228e-10
0.00192
-9.02246e-10
0.00192
-9.02065e-10
0.00192
-9.01814e-10
0.00192
-9.01603e-10
0.00192
-9.0134e-10
0.00192
-9.01062e-10
0.00192
-9.0082e-10
0.00192
-9.00566e-10
0.00192
-9.0029e-10
0.00192
-9.00025e-10
0.00192
-8.99767e-10
0.00192
-8.99499e-10
0.00192
-8.99226e-10
0.00192
-8.98953e-10
0.00192
-8.98678e-10
0.00192
-8.98401e-10
0.00192
-8.9812e-10
0.00192
-8.97832e-10
0.00192
-8.97541e-10
0.00192
-8.97243e-10
0.00192
-8.96943e-10
0.00192
-8.96633e-10
0.00192
-8.96317e-10
0.00192
-8.95991e-10
0.00192
-8.95661e-10
0.00192
-8.95318e-10
0.00192
-8.94974e-10
0.00192
-8.94604e-10
0.00192
-8.94217e-10
0.00192
-8.93887e-10
0.00192
-8.93413e-10
0.00192
-8.93143e-10
0.00192
-8.92705e-10
0.00192
-8.92274e-10
0.00192
-8.92354e-10
0.00192
-8.92526e-10
0.00192
-8.9243e-10
0.00192
-8.9221e-10
0.00192
-8.92e-10
0.00192
-8.91781e-10
0.00192
-8.91542e-10
0.00192
-8.91285e-10
0.00192
-8.91024e-10
0.00192
-8.90752e-10
0.00192
-8.90481e-10
0.00192
-8.90204e-10
0.00192
-8.89928e-10
0.00192
-8.89649e-10
0.00192
-8.89373e-10
0.00192
-8.89091e-10
0.00192
-8.88813e-10
0.00192
-8.88537e-10
0.00192
-8.88257e-10
0.00192
-8.87981e-10
0.00192
-8.87706e-10
0.00192
-8.87428e-10
0.00192
-8.87153e-10
0.00192
-8.86878e-10
0.00192
-8.86602e-10
0.00192
-8.86328e-10
0.00192
-8.86052e-10
0.00192
-8.85776e-10
0.00192
-8.85501e-10
0.00192
-8.85226e-10
0.00192
-8.8495e-10
0.00192
-8.84674e-10
0.00192
-8.84399e-10
0.00192
-8.84121e-10
0.00192
-8.83843e-10
0.00192
-8.83567e-10
0.00192
-8.83289e-10
0.00192
-8.8301e-10
0.00192
-8.82733e-10
0.00192
-8.82455e-10
0.00192
-8.82176e-10
0.00192
-8.81898e-10
0.00192
-8.81619e-10
0.00192
-8.81339e-10
0.00192
-8.81059e-10
0.00192
-8.80778e-10
0.00192
-8.80496e-10
0.00192
-8.80215e-10
0.00192
-8.79933e-10
0.00192
-8.7965e-10
0.00192
-8.79366e-10
0.00192
-8.79083e-10
0.00192
-8.78799e-10
0.00192
-8.78514e-10
0.00192
-8.78229e-10
0.00192
-8.77944e-10
0.00192
-8.77658e-10
0.00192
-8.77372e-10
0.00192
-8.77086e-10
0.00192
-8.76799e-10
0.00192
-8.76512e-10
0.00192
-8.76224e-10
0.00192
-8.75936e-10
0.00192
-8.75647e-10
0.00192
-8.75359e-10
0.00192
-8.75069e-10
0.00192
-8.7478e-10
0.00192
-8.7449e-10
0.00192
-8.74199e-10
0.00192
-8.73908e-10
0.00192
-8.73617e-10
0.00192
-8.73325e-10
0.00192
-8.73032e-10
0.00192
-8.7274e-10
0.00192
-8.72447e-10
0.00192
-8.72154e-10
0.00192
-8.71861e-10
0.00192
-8.71568e-10
0.00192
-8.71274e-10
0.00192
-8.7098e-10
0.00192
-8.70686e-10
0.00192
-8.70392e-10
0.00192
-8.70097e-10
0.00192
-8.69802e-10
0.00192
-8.69507e-10
0.00192
-8.69211e-10
0.00192
-8.68914e-10
0.00192
-8.68618e-10
0.00192
-8.68321e-10
0.00192
-8.68023e-10
0.00192
-8.67726e-10
0.00192
-8.67428e-10
0.00192
-8.67129e-10
0.00192
-8.66831e-10
0.00192
-8.66532e-10
0.00192
-8.66232e-10
0.00192
-8.65933e-10
0.00192
-8.65633e-10
0.00192
-8.65332e-10
0.00192
-8.65032e-10
0.00192
-8.64732e-10
0.00192
-8.64431e-10
0.00192
-8.6413e-10
0.00192
-8.63829e-10
0.00192
-8.63528e-10
0.00192
-8.63227e-10
0.00192
-8.62925e-10
0.00192
-8.62624e-10
0.00192
-8.62322e-10
0.00192
-8.6202e-10
0.00192
-8.61718e-10
0.00192
-8.61416e-10
0.00192
-8.61114e-10
0.00192
-8.60811e-10
0.00192
-8.60508e-10
0.00192
-8.60204e-10
0.00192
-8.59899e-10
0.00192
-8.59594e-10
0.00192
-8.59289e-10
0.00192
-8.58982e-10
0.00192
-8.58674e-10
0.00192
-8.58366e-10
0.00192
-8.58056e-10
0.00192
-8.57744e-10
0.00192
-8.57431e-10
0.00192
-8.57116e-10
0.00192
-8.56799e-10
0.00192
-8.5648e-10
0.00192
-8.56158e-10
0.00192
-8.55833e-10
0.00192
-8.55504e-10
0.00192
-8.55172e-10
0.00192
-8.54836e-10
0.00192
-8.54497e-10
0.00192
-8.54152e-10
0.00192
-8.53804e-10
0.00192
-8.53452e-10
0.00192
-8.53096e-10
0.00192
-8.52738e-10
0.00192
-8.5238e-10
0.00192
-8.52026e-10
0.00192
-8.5168e-10
0.00192
-8.51355e-10
0.00192
-8.51054e-10
0.00192
-8.50799e-10
0.00192
-8.50587e-10
0.00192
-8.50409e-10
0.00192
0.00192
-1.25616e-09
-1.25594e-09
0.00192
-1.25573e-09
0.00192
-1.25544e-09
0.00192
-1.25513e-09
0.00192
-1.25475e-09
0.00192
-1.25437e-09
0.00192
-1.25402e-09
0.00192
-1.25365e-09
0.00192
-1.25327e-09
0.00192
-1.25289e-09
0.00192
-1.25253e-09
0.00192
-1.25215e-09
0.00192
-1.25176e-09
0.00192
-1.25138e-09
0.00192
-1.25099e-09
0.00192
-1.2506e-09
0.00192
-1.25021e-09
0.00192
-1.24981e-09
0.00192
-1.2494e-09
0.00192
-1.24899e-09
0.00192
-1.24858e-09
0.00192
-1.24816e-09
0.00192
-1.24773e-09
0.00192
-1.24729e-09
0.00192
-1.24684e-09
0.00192
-1.24638e-09
0.00192
-1.24592e-09
0.00192
-1.24544e-09
0.00192
-1.24493e-09
0.00192
-1.24447e-09
0.00192
-1.24389e-09
0.00192
-1.24347e-09
0.00192
-1.24295e-09
0.00192
-1.24237e-09
0.00192
-1.24226e-09
0.00192
-1.24232e-09
0.00192
-1.24215e-09
0.00192
-1.24184e-09
0.00192
-1.24152e-09
0.00192
-1.2412e-09
0.00192
-1.24086e-09
0.00192
-1.2405e-09
0.00192
-1.24014e-09
0.00192
-1.23976e-09
0.00192
-1.23939e-09
0.00192
-1.23901e-09
0.00192
-1.23863e-09
0.00192
-1.23824e-09
0.00192
-1.23787e-09
0.00192
-1.23748e-09
0.00192
-1.2371e-09
0.00192
-1.23672e-09
0.00192
-1.23633e-09
0.00192
-1.23595e-09
0.00192
-1.23557e-09
0.00192
-1.23519e-09
0.00192
-1.23481e-09
0.00192
-1.23443e-09
0.00192
-1.23405e-09
0.00192
-1.23367e-09
0.00192
-1.23328e-09
0.00192
-1.2329e-09
0.00192
-1.23252e-09
0.00192
-1.23214e-09
0.00192
-1.23175e-09
0.00192
-1.23137e-09
0.00192
-1.23099e-09
0.00192
-1.2306e-09
0.00192
-1.23021e-09
0.00192
-1.22983e-09
0.00192
-1.22944e-09
0.00192
-1.22905e-09
0.00192
-1.22867e-09
0.00192
-1.22828e-09
0.00192
-1.22789e-09
0.00192
-1.2275e-09
0.00192
-1.22711e-09
0.00192
-1.22672e-09
0.00192
-1.22633e-09
0.00192
-1.22594e-09
0.00192
-1.22554e-09
0.00192
-1.22515e-09
0.00192
-1.22476e-09
0.00192
-1.22436e-09
0.00192
-1.22396e-09
0.00192
-1.22357e-09
0.00192
-1.22317e-09
0.00192
-1.22277e-09
0.00192
-1.22237e-09
0.00192
-1.22197e-09
0.00192
-1.22158e-09
0.00192
-1.22118e-09
0.00192
-1.22077e-09
0.00192
-1.22037e-09
0.00192
-1.21997e-09
0.00192
-1.21957e-09
0.00192
-1.21917e-09
0.00192
-1.21876e-09
0.00192
-1.21836e-09
0.00192
-1.21795e-09
0.00192
-1.21755e-09
0.00192
-1.21714e-09
0.00192
-1.21674e-09
0.00192
-1.21633e-09
0.00192
-1.21592e-09
0.00192
-1.21551e-09
0.00192
-1.2151e-09
0.00192
-1.2147e-09
0.00192
-1.21429e-09
0.00192
-1.21388e-09
0.00192
-1.21347e-09
0.00192
-1.21306e-09
0.00192
-1.21264e-09
0.00192
-1.21223e-09
0.00192
-1.21182e-09
0.00192
-1.21141e-09
0.00192
-1.211e-09
0.00192
-1.21058e-09
0.00192
-1.21017e-09
0.00192
-1.20975e-09
0.00192
-1.20934e-09
0.00192
-1.20892e-09
0.00192
-1.20851e-09
0.00192
-1.20809e-09
0.00192
-1.20768e-09
0.00192
-1.20726e-09
0.00192
-1.20684e-09
0.00192
-1.20642e-09
0.00192
-1.20601e-09
0.00192
-1.20559e-09
0.00192
-1.20517e-09
0.00192
-1.20475e-09
0.00192
-1.20433e-09
0.00192
-1.20391e-09
0.00192
-1.20349e-09
0.00192
-1.20307e-09
0.00192
-1.20265e-09
0.00192
-1.20223e-09
0.00192
-1.20181e-09
0.00192
-1.20139e-09
0.00192
-1.20097e-09
0.00192
-1.20055e-09
0.00192
-1.20012e-09
0.00192
-1.1997e-09
0.00192
-1.19928e-09
0.00192
-1.19886e-09
0.00192
-1.19844e-09
0.00192
-1.19801e-09
0.00192
-1.19759e-09
0.00192
-1.19717e-09
0.00192
-1.19674e-09
0.00192
-1.19632e-09
0.00192
-1.19589e-09
0.00192
-1.19547e-09
0.00192
-1.19504e-09
0.00192
-1.19461e-09
0.00192
-1.19418e-09
0.00192
-1.19375e-09
0.00192
-1.19331e-09
0.00192
-1.19288e-09
0.00192
-1.19244e-09
0.00192
-1.192e-09
0.00192
-1.19155e-09
0.00192
-1.19111e-09
0.00192
-1.19065e-09
0.00192
-1.1902e-09
0.00192
-1.18974e-09
0.00192
-1.18927e-09
0.00192
-1.1888e-09
0.00192
-1.18832e-09
0.00192
-1.18784e-09
0.00192
-1.18735e-09
0.00192
-1.18686e-09
0.00192
-1.18636e-09
0.00192
-1.18587e-09
0.00192
-1.18538e-09
0.00192
-1.18491e-09
0.00192
-1.18446e-09
0.00192
-1.18406e-09
0.00192
-1.1837e-09
0.00192
-1.18339e-09
0.00192
0.00192
-1.60964e-09
-1.6093e-09
0.00192
-1.60902e-09
0.00192
-1.60863e-09
0.00192
-1.60814e-09
0.00192
-1.60766e-09
0.00192
-1.60721e-09
0.00192
-1.60673e-09
0.00192
-1.60623e-09
0.00192
-1.60575e-09
0.00192
-1.60527e-09
0.00192
-1.60478e-09
0.00192
-1.60428e-09
0.00192
-1.60379e-09
0.00192
-1.60329e-09
0.00192
-1.60279e-09
0.00192
-1.60228e-09
0.00192
-1.60177e-09
0.00192
-1.60125e-09
0.00192
-1.60073e-09
0.00192
-1.6002e-09
0.00192
-1.59966e-09
0.00192
-1.59912e-09
0.00192
-1.59857e-09
0.00192
-1.59801e-09
0.00192
-1.59743e-09
0.00192
-1.59685e-09
0.00192
-1.59625e-09
0.00192
-1.59563e-09
0.00192
-1.59504e-09
0.00192
-1.59436e-09
0.00192
-1.59379e-09
0.00192
-1.59318e-09
0.00192
-1.59249e-09
0.00192
-1.59219e-09
0.00192
-1.59211e-09
0.00192
-1.59186e-09
0.00192
-1.59145e-09
0.00192
-1.59103e-09
0.00192
-1.59061e-09
0.00192
-1.59017e-09
0.00192
-1.5897e-09
0.00192
-1.58924e-09
0.00192
-1.58876e-09
0.00192
-1.58828e-09
0.00192
-1.5878e-09
0.00192
-1.58732e-09
0.00192
-1.58683e-09
0.00192
-1.58635e-09
0.00192
-1.58586e-09
0.00192
-1.58537e-09
0.00192
-1.58489e-09
0.00192
-1.5844e-09
0.00192
-1.58391e-09
0.00192
-1.58343e-09
0.00192
-1.58294e-09
0.00192
-1.58246e-09
0.00192
-1.58197e-09
0.00192
-1.58148e-09
0.00192
-1.581e-09
0.00192
-1.58051e-09
0.00192
-1.58002e-09
0.00192
-1.57953e-09
0.00192
-1.57904e-09
0.00192
-1.57855e-09
0.00192
-1.57806e-09
0.00192
-1.57756e-09
0.00192
-1.57707e-09
0.00192
-1.57658e-09
0.00192
-1.57608e-09
0.00192
-1.57559e-09
0.00192
-1.57509e-09
0.00192
-1.57459e-09
0.00192
-1.57409e-09
0.00192
-1.57359e-09
0.00192
-1.57309e-09
0.00192
-1.57259e-09
0.00192
-1.57209e-09
0.00192
-1.57159e-09
0.00192
-1.57108e-09
0.00192
-1.57058e-09
0.00192
-1.57007e-09
0.00192
-1.56957e-09
0.00192
-1.56906e-09
0.00192
-1.56855e-09
0.00192
-1.56804e-09
0.00192
-1.56753e-09
0.00192
-1.56702e-09
0.00192
-1.56651e-09
0.00192
-1.566e-09
0.00192
-1.56548e-09
0.00192
-1.56497e-09
0.00192
-1.56445e-09
0.00192
-1.56394e-09
0.00192
-1.56342e-09
0.00192
-1.56291e-09
0.00192
-1.56239e-09
0.00192
-1.56187e-09
0.00192
-1.56135e-09
0.00192
-1.56083e-09
0.00192
-1.56031e-09
0.00192
-1.55979e-09
0.00192
-1.55926e-09
0.00192
-1.55874e-09
0.00192
-1.55822e-09
0.00192
-1.55769e-09
0.00192
-1.55717e-09
0.00192
-1.55664e-09
0.00192
-1.55612e-09
0.00192
-1.55559e-09
0.00192
-1.55506e-09
0.00192
-1.55453e-09
0.00192
-1.55401e-09
0.00192
-1.55348e-09
0.00192
-1.55295e-09
0.00192
-1.55242e-09
0.00192
-1.55189e-09
0.00192
-1.55135e-09
0.00192
-1.55082e-09
0.00192
-1.55029e-09
0.00192
-1.54976e-09
0.00192
-1.54922e-09
0.00192
-1.54869e-09
0.00192
-1.54815e-09
0.00192
-1.54762e-09
0.00192
-1.54708e-09
0.00192
-1.54655e-09
0.00192
-1.54601e-09
0.00192
-1.54547e-09
0.00192
-1.54494e-09
0.00192
-1.5444e-09
0.00192
-1.54386e-09
0.00192
-1.54332e-09
0.00192
-1.54278e-09
0.00192
-1.54224e-09
0.00192
-1.5417e-09
0.00192
-1.54116e-09
0.00192
-1.54062e-09
0.00192
-1.54008e-09
0.00192
-1.53954e-09
0.00192
-1.539e-09
0.00192
-1.53846e-09
0.00192
-1.53792e-09
0.00192
-1.53738e-09
0.00192
-1.53683e-09
0.00192
-1.53629e-09
0.00192
-1.53575e-09
0.00192
-1.53521e-09
0.00192
-1.53466e-09
0.00192
-1.53412e-09
0.00192
-1.53358e-09
0.00192
-1.53303e-09
0.00192
-1.53249e-09
0.00192
-1.53194e-09
0.00192
-1.53139e-09
0.00192
-1.53084e-09
0.00192
-1.53029e-09
0.00192
-1.52974e-09
0.00192
-1.52919e-09
0.00192
-1.52863e-09
0.00192
-1.52807e-09
0.00192
-1.52751e-09
0.00192
-1.52694e-09
0.00192
-1.52637e-09
0.00192
-1.5258e-09
0.00192
-1.52522e-09
0.00192
-1.52463e-09
0.00192
-1.52404e-09
0.00192
-1.52344e-09
0.00192
-1.52283e-09
0.00192
-1.52222e-09
0.00192
-1.5216e-09
0.00192
-1.52097e-09
0.00192
-1.52033e-09
0.00192
-1.5197e-09
0.00192
-1.51907e-09
0.00192
-1.51845e-09
0.00192
-1.51785e-09
0.00192
-1.5173e-09
0.00192
-1.51681e-09
0.00192
-1.51635e-09
0.00192
0.00192
-1.96285e-09
0.00192
-1.96254e-09
0.00192
-1.96211e-09
0.00192
-1.96151e-09
0.00192
-1.96094e-09
0.00192
-1.96039e-09
0.00192
-1.95979e-09
0.00192
-1.95918e-09
0.00192
-1.95859e-09
0.00192
-1.958e-09
0.00192
-1.9574e-09
0.00192
-1.95679e-09
0.00192
-1.95618e-09
0.00192
-1.95557e-09
0.00192
-1.95496e-09
0.00192
-1.95434e-09
0.00192
-1.95372e-09
0.00192
-1.95309e-09
0.00192
-1.95245e-09
0.00192
-1.95181e-09
0.00192
-1.95116e-09
0.00192
-1.9505e-09
0.00192
-1.94983e-09
0.00192
-1.94915e-09
0.00192
-1.94846e-09
0.00192
-1.94777e-09
0.00192
-1.94705e-09
0.00192
-1.94631e-09
0.00192
-1.9456e-09
0.00192
-1.94482e-09
0.00192
-1.94411e-09
0.00192
-1.9434e-09
0.00192
-1.94262e-09
0.00192
-1.94215e-09
0.00192
-1.94191e-09
0.00192
-1.94156e-09
0.00192
-1.94106e-09
0.00192
-1.94053e-09
0.00192
-1.94e-09
0.00192
-1.93946e-09
0.00192
-1.9389e-09
0.00192
-1.93833e-09
0.00192
-1.93775e-09
0.00192
-1.93716e-09
0.00192
-1.93658e-09
0.00192
-1.93599e-09
0.00192
-1.9354e-09
0.00192
-1.93482e-09
0.00192
-1.93422e-09
0.00192
-1.93363e-09
0.00192
-1.93304e-09
0.00192
-1.93245e-09
0.00192
-1.93186e-09
0.00192
-1.93127e-09
0.00192
-1.93068e-09
0.00192
-1.93009e-09
0.00192
-1.9295e-09
0.00192
-1.9289e-09
0.00192
-1.92831e-09
0.00192
-1.92772e-09
0.00192
-1.92712e-09
0.00192
-1.92653e-09
0.00192
-1.92593e-09
0.00192
-1.92533e-09
0.00192
-1.92473e-09
0.00192
-1.92413e-09
0.00192
-1.92353e-09
0.00192
-1.92293e-09
0.00192
-1.92232e-09
0.00192
-1.92172e-09
0.00192
-1.92111e-09
0.00192
-1.9205e-09
0.00192
-1.91989e-09
0.00192
-1.91928e-09
0.00192
-1.91867e-09
0.00192
-1.91806e-09
0.00192
-1.91745e-09
0.00192
-1.91683e-09
0.00192
-1.91622e-09
0.00192
-1.9156e-09
0.00192
-1.91499e-09
0.00192
-1.91437e-09
0.00192
-1.91375e-09
0.00192
-1.91313e-09
0.00192
-1.9125e-09
0.00192
-1.91188e-09
0.00192
-1.91126e-09
0.00192
-1.91063e-09
0.00192
-1.91001e-09
0.00192
-1.90938e-09
0.00192
-1.90875e-09
0.00192
-1.90812e-09
0.00192
-1.90749e-09
0.00192
-1.90686e-09
0.00192
-1.90623e-09
0.00192
-1.9056e-09
0.00192
-1.90496e-09
0.00192
-1.90433e-09
0.00192
-1.90369e-09
0.00192
-1.90306e-09
0.00192
-1.90242e-09
0.00192
-1.90178e-09
0.00192
-1.90114e-09
0.00192
-1.9005e-09
0.00192
-1.89986e-09
0.00192
-1.89922e-09
0.00192
-1.89858e-09
0.00192
-1.89793e-09
0.00192
-1.89729e-09
0.00192
-1.89665e-09
0.00192
-1.896e-09
0.00192
-1.89535e-09
0.00192
-1.89471e-09
0.00192
-1.89406e-09
0.00192
-1.89341e-09
0.00192
-1.89276e-09
0.00192
-1.89211e-09
0.00192
-1.89146e-09
0.00192
-1.89081e-09
0.00192
-1.89016e-09
0.00192
-1.88951e-09
0.00192
-1.88886e-09
0.00192
-1.8882e-09
0.00192
-1.88755e-09
0.00192
-1.88689e-09
0.00192
-1.88624e-09
0.00192
-1.88558e-09
0.00192
-1.88493e-09
0.00192
-1.88427e-09
0.00192
-1.88361e-09
0.00192
-1.88296e-09
0.00192
-1.8823e-09
0.00192
-1.88164e-09
0.00192
-1.88098e-09
0.00192
-1.88032e-09
0.00192
-1.87966e-09
0.00192
-1.879e-09
0.00192
-1.87834e-09
0.00192
-1.87768e-09
0.00192
-1.87702e-09
0.00192
-1.87636e-09
0.00192
-1.8757e-09
0.00192
-1.87504e-09
0.00192
-1.87438e-09
0.00192
-1.87372e-09
0.00192
-1.87305e-09
0.00192
-1.87239e-09
0.00192
-1.87173e-09
0.00192
-1.87106e-09
0.00192
-1.8704e-09
0.00192
-1.86974e-09
0.00192
-1.86907e-09
0.00192
-1.8684e-09
0.00192
-1.86774e-09
0.00192
-1.86707e-09
0.00192
-1.8664e-09
0.00192
-1.86572e-09
0.00192
-1.86505e-09
0.00192
-1.86437e-09
0.00192
-1.86369e-09
0.00192
-1.86301e-09
0.00192
-1.86232e-09
0.00192
-1.86163e-09
0.00192
-1.86093e-09
0.00192
-1.86022e-09
0.00192
-1.85951e-09
0.00192
-1.8588e-09
0.00192
-1.85807e-09
0.00192
-1.85733e-09
0.00192
-1.85659e-09
0.00192
-1.85584e-09
0.00192
-1.85507e-09
0.00192
-1.8543e-09
0.00192
-1.85353e-09
0.00192
-1.85275e-09
0.00192
-1.85199e-09
0.00192
-1.85124e-09
0.00192
-1.85054e-09
0.00192
-1.8499e-09
0.00192
-1.84931e-09
0.00192
0.00192
-2.31652e-09
-2.31598e-09
0.00192
-2.3155e-09
0.00192
-2.31487e-09
0.00192
-2.31421e-09
0.00192
-2.31354e-09
0.00192
-2.31283e-09
0.00192
-2.31211e-09
0.00192
-2.31142e-09
0.00192
-2.31072e-09
0.00192
-2.31e-09
0.00192
-2.30928e-09
0.00192
-2.30856e-09
0.00192
-2.30784e-09
0.00192
-2.30711e-09
0.00192
-2.30638e-09
0.00192
-2.30565e-09
0.00192
-2.3049e-09
0.00192
-2.30415e-09
0.00192
-2.3034e-09
0.00192
-2.30263e-09
0.00192
-2.30186e-09
0.00192
-2.30108e-09
0.00192
-2.30028e-09
0.00192
-2.29948e-09
0.00192
-2.29866e-09
0.00192
-2.29783e-09
0.00192
-2.29698e-09
0.00192
-2.29614e-09
0.00192
-2.29526e-09
0.00192
-2.29442e-09
0.00192
-2.2936e-09
0.00192
-2.29273e-09
0.00192
-2.29211e-09
0.00192
-2.29171e-09
0.00192
-2.29125e-09
0.00192
-2.29066e-09
0.00192
-2.29003e-09
0.00192
-2.28939e-09
0.00192
-2.28874e-09
0.00192
-2.28808e-09
0.00192
-2.2874e-09
0.00192
-2.28672e-09
0.00192
-2.28603e-09
0.00192
-2.28535e-09
0.00192
-2.28466e-09
0.00192
-2.28396e-09
0.00192
-2.28327e-09
0.00192
-2.28258e-09
0.00192
-2.28188e-09
0.00192
-2.28119e-09
0.00192
-2.28049e-09
0.00192
-2.2798e-09
0.00192
-2.2791e-09
0.00192
-2.2784e-09
0.00192
-2.27771e-09
0.00192
-2.27701e-09
0.00192
-2.27631e-09
0.00192
-2.27562e-09
0.00192
-2.27491e-09
0.00192
-2.27421e-09
0.00192
-2.27351e-09
0.00192
-2.2728e-09
0.00192
-2.2721e-09
0.00192
-2.27139e-09
0.00192
-2.27068e-09
0.00192
-2.26997e-09
0.00192
-2.26926e-09
0.00192
-2.26855e-09
0.00192
-2.26784e-09
0.00192
-2.26712e-09
0.00192
-2.2664e-09
0.00192
-2.26568e-09
0.00192
-2.26496e-09
0.00192
-2.26424e-09
0.00192
-2.26352e-09
0.00192
-2.2628e-09
0.00192
-2.26207e-09
0.00192
-2.26134e-09
0.00192
-2.26062e-09
0.00192
-2.25989e-09
0.00192
-2.25916e-09
0.00192
-2.25842e-09
0.00192
-2.25769e-09
0.00192
-2.25695e-09
0.00192
-2.25622e-09
0.00192
-2.25548e-09
0.00192
-2.25474e-09
0.00192
-2.254e-09
0.00192
-2.25326e-09
0.00192
-2.25252e-09
0.00192
-2.25178e-09
0.00192
-2.25103e-09
0.00192
-2.25029e-09
0.00192
-2.24954e-09
0.00192
-2.24879e-09
0.00192
-2.24804e-09
0.00192
-2.24729e-09
0.00192
-2.24654e-09
0.00192
-2.24579e-09
0.00192
-2.24504e-09
0.00192
-2.24428e-09
0.00192
-2.24353e-09
0.00192
-2.24277e-09
0.00192
-2.24202e-09
0.00192
-2.24126e-09
0.00192
-2.2405e-09
0.00192
-2.23974e-09
0.00192
-2.23898e-09
0.00192
-2.23822e-09
0.00192
-2.23745e-09
0.00192
-2.23669e-09
0.00192
-2.23593e-09
0.00192
-2.23516e-09
0.00192
-2.2344e-09
0.00192
-2.23363e-09
0.00192
-2.23286e-09
0.00192
-2.23209e-09
0.00192
-2.23132e-09
0.00192
-2.23055e-09
0.00192
-2.22978e-09
0.00192
-2.22901e-09
0.00192
-2.22824e-09
0.00192
-2.22747e-09
0.00192
-2.22669e-09
0.00192
-2.22592e-09
0.00192
-2.22514e-09
0.00192
-2.22437e-09
0.00192
-2.22359e-09
0.00192
-2.22282e-09
0.00192
-2.22204e-09
0.00192
-2.22126e-09
0.00192
-2.22048e-09
0.00192
-2.21971e-09
0.00192
-2.21893e-09
0.00192
-2.21815e-09
0.00192
-2.21737e-09
0.00192
-2.21659e-09
0.00192
-2.21581e-09
0.00192
-2.21503e-09
0.00192
-2.21425e-09
0.00192
-2.21347e-09
0.00192
-2.21269e-09
0.00192
-2.21191e-09
0.00192
-2.21113e-09
0.00192
-2.21034e-09
0.00192
-2.20956e-09
0.00192
-2.20878e-09
0.00192
-2.208e-09
0.00192
-2.20721e-09
0.00192
-2.20643e-09
0.00192
-2.20564e-09
0.00192
-2.20486e-09
0.00192
-2.20407e-09
0.00192
-2.20328e-09
0.00192
-2.20249e-09
0.00192
-2.2017e-09
0.00192
-2.2009e-09
0.00192
-2.2001e-09
0.00192
-2.1993e-09
0.00192
-2.1985e-09
0.00192
-2.19769e-09
0.00192
-2.19687e-09
0.00192
-2.19605e-09
0.00192
-2.19522e-09
0.00192
-2.19439e-09
0.00192
-2.19354e-09
0.00192
-2.19269e-09
0.00192
-2.19183e-09
0.00192
-2.19095e-09
0.00192
-2.19007e-09
0.00192
-2.18917e-09
0.00192
-2.18826e-09
0.00192
-2.18735e-09
0.00192
-2.18643e-09
0.00192
-2.18552e-09
0.00192
-2.18462e-09
0.00192
-2.18376e-09
0.00192
-2.18298e-09
0.00192
-2.18225e-09
0.00192
0.00192
-2.66943e-09
-2.6688e-09
0.00192
-2.66818e-09
0.00192
-2.66745e-09
0.00192
-2.66667e-09
0.00192
-2.66584e-09
0.00192
-2.66502e-09
0.00192
-2.66423e-09
0.00192
-2.66342e-09
0.00192
-2.66258e-09
0.00192
-2.66175e-09
0.00192
-2.66092e-09
0.00192
-2.66009e-09
0.00192
-2.65925e-09
0.00192
-2.65841e-09
0.00192
-2.65756e-09
0.00192
-2.6567e-09
0.00192
-2.65584e-09
0.00192
-2.65497e-09
0.00192
-2.65409e-09
0.00192
-2.6532e-09
0.00192
-2.6523e-09
0.00192
-2.65139e-09
0.00192
-2.65047e-09
0.00192
-2.64954e-09
0.00192
-2.6486e-09
0.00192
-2.64763e-09
0.00192
-2.64667e-09
0.00192
-2.64569e-09
0.00192
-2.64472e-09
0.00192
-2.64379e-09
0.00192
-2.64284e-09
0.00192
-2.64207e-09
0.00192
-2.64151e-09
0.00192
-2.64093e-09
0.00192
-2.64024e-09
0.00192
-2.63951e-09
0.00192
-2.63876e-09
0.00192
-2.63801e-09
0.00192
-2.63724e-09
0.00192
-2.63646e-09
0.00192
-2.63568e-09
0.00192
-2.63489e-09
0.00192
-2.6341e-09
0.00192
-2.6333e-09
0.00192
-2.6325e-09
0.00192
-2.63171e-09
0.00192
-2.63091e-09
0.00192
-2.63011e-09
0.00192
-2.62932e-09
0.00192
-2.62851e-09
0.00192
-2.62772e-09
0.00192
-2.62692e-09
0.00192
-2.62611e-09
0.00192
-2.62531e-09
0.00192
-2.62451e-09
0.00192
-2.62371e-09
0.00192
-2.6229e-09
0.00192
-2.6221e-09
0.00192
-2.62129e-09
0.00192
-2.62048e-09
0.00192
-2.61967e-09
0.00192
-2.61885e-09
0.00192
-2.61804e-09
0.00192
-2.61722e-09
0.00192
-2.6164e-09
0.00192
-2.61558e-09
0.00192
-2.61476e-09
0.00192
-2.61394e-09
0.00192
-2.61311e-09
0.00192
-2.61228e-09
0.00192
-2.61146e-09
0.00192
-2.61063e-09
0.00192
-2.60979e-09
0.00192
-2.60896e-09
0.00192
-2.60813e-09
0.00192
-2.60729e-09
0.00192
-2.60645e-09
0.00192
-2.60561e-09
0.00192
-2.60477e-09
0.00192
-2.60393e-09
0.00192
-2.60308e-09
0.00192
-2.60224e-09
0.00192
-2.60139e-09
0.00192
-2.60054e-09
0.00192
-2.59969e-09
0.00192
-2.59884e-09
0.00192
-2.59799e-09
0.00192
-2.59713e-09
0.00192
-2.59628e-09
0.00192
-2.59542e-09
0.00192
-2.59456e-09
0.00192
-2.5937e-09
0.00192
-2.59284e-09
0.00192
-2.59197e-09
0.00192
-2.59111e-09
0.00192
-2.59025e-09
0.00192
-2.58938e-09
0.00192
-2.58851e-09
0.00192
-2.58764e-09
0.00192
-2.58677e-09
0.00192
-2.5859e-09
0.00192
-2.58503e-09
0.00192
-2.58416e-09
0.00192
-2.58328e-09
0.00192
-2.58241e-09
0.00192
-2.58153e-09
0.00192
-2.58065e-09
0.00192
-2.57977e-09
0.00192
-2.57889e-09
0.00192
-2.57801e-09
0.00192
-2.57713e-09
0.00192
-2.57625e-09
0.00192
-2.57537e-09
0.00192
-2.57448e-09
0.00192
-2.57359e-09
0.00192
-2.57271e-09
0.00192
-2.57182e-09
0.00192
-2.57093e-09
0.00192