/*--------------------------------*- C++ -*----------------------------------*\
| =========                 |                                                 |
| \\      /  F ield         | OpenFOAM: The Open Source CFD Toolbox           |
|  \\    /   O peration     | Version:  2512                                  |
|   \\  /    A nd           | Website:  www.openfoam.com                      |
|    \\/     M anipulation  |                                                 |
\*---------------------------------------------------------------------------*/
FoamFile
{
    version     2.0;
    format      ascii;
    arch        "LSB;label=32;scalar=64";
    class       volVectorField;
    location    "0.1";
    object      U;
}
// * * * * * * * * * * * * * * * * * * * * * * * * * * * * * * * * * * * * * //

dimensions      [0 1 -1 0 0 0 0];

internalField   nonuniform List<vector> 
8334
(
(0.0645688 -4.15624e-06 -5.79856e-20)
(0.0645663 -3.53171e-06 1.28411e-18)
(0.0645625 -3.65451e-06 -5.40261e-19)
(0.0645606 -3.51083e-06 2.17191e-18)
(0.0645588 -3.70514e-06 -5.22318e-20)
(0.0645566 -3.91074e-06 1.31043e-18)
(0.0645543 -3.84175e-06 -5.40513e-19)
(0.0645519 -3.85639e-06 2.18318e-18)
(0.0645495 -3.92043e-06 -6.53761e-20)
(0.064547 -3.92919e-06 1.27467e-18)
(0.0645445 -3.97602e-06 -5.35689e-19)
(0.0645419 -4.04271e-06 2.20754e-18)
(0.0645392 -4.08094e-06 -4.28783e-20)
(0.0645365 -4.12027e-06 1.23534e-18)
(0.0645338 -4.17123e-06 -3.8013e-19)
(0.064531 -4.21956e-06 1.98158e-18)
(0.0645282 -4.26521e-06 1.79728e-19)
(0.0645253 -4.31009e-06 1.0935e-18)
(0.0645223 -4.35765e-06 -3.66654e-19)
(0.0645194 -4.40664e-06 1.66915e-18)
(0.0645163 -4.45715e-06 5.50635e-19)
(0.0645132 -4.51444e-06 2.06873e-18)
(0.0645101 -4.56085e-06 3.21107e-19)
(0.0645069 -4.63286e-06 1.76942e-18)
(0.0645037 -4.67494e-06 4.62714e-19)
(0.0645004 -4.75735e-06 1.9021e-18)
(0.0644971 -4.81555e-06 2.1884e-19)
(0.0644937 -4.86587e-06 1.75463e-18)
(0.0644903 -4.98977e-06 4.20949e-19)
(0.0644867 -4.97003e-06 1.87058e-18)
(0.0644834 -5.17037e-06 1.97591e-19)
(0.0644794 -5.24339e-06 1.6943e-18)
(0.0644762 -5.07057e-06 4.23391e-19)
(0.0644723 -5.77145e-06 1.88931e-18)
(0.0644681 -4.84088e-06 2.28746e-19)
(0.0644653 -6.07605e-06 1.68633e-18)
(0.0644601 -5.49074e-06 4.3271e-19)
(0.0644555 -4.11785e-06 1.88161e-18)
(0.0644531 -4.30454e-06 1.82077e-19)
(0.0644499 -4.59237e-06 1.68335e-18)
(0.0644458 -4.51896e-06 3.99303e-19)
(0.0644418 -4.46954e-06 1.89678e-18)
(0.0644379 -4.49952e-06 1.9123e-19)
(0.0644339 -4.53753e-06 1.71163e-18)
(0.0644298 -4.57035e-06 4.16931e-19)
(0.0644257 -4.603e-06 1.86841e-18)
(0.0644216 -4.63547e-06 2.17553e-19)
(0.0644174 -4.66668e-06 1.72852e-18)
(0.0644132 -4.69647e-06 4.57602e-19)
(0.0644089 -4.72484e-06 1.8764e-18)
(0.0644045 -4.75194e-06 2.10077e-19)
(0.0644002 -4.7778e-06 1.73283e-18)
(0.0643957 -4.8025e-06 4.15115e-19)
(0.0643913 -4.82617e-06 1.91958e-18)
(0.0643867 -4.84893e-06 1.79167e-19)
(0.0643822 -4.87085e-06 1.69754e-18)
(0.0643775 -4.89204e-06 3.74528e-19)
(0.0643729 -4.91248e-06 1.89387e-18)
(0.0643682 -4.93236e-06 2.43366e-19)
(0.0643634 -4.95173e-06 1.68066e-18)
(0.0643586 -4.97066e-06 4.60042e-19)
(0.0643538 -4.98919e-06 1.939e-18)
(0.0643489 -5.0074e-06 2.54092e-19)
(0.0643439 -5.02536e-06 1.71997e-18)
(0.0643389 -5.04307e-06 4.34054e-19)
(0.0643339 -5.06058e-06 1.86178e-18)
(0.0643288 -5.07795e-06 1.97734e-19)
(0.0643237 -5.09518e-06 1.70794e-18)
(0.0643185 -5.11227e-06 4.3373e-19)
(0.0643133 -5.12928e-06 1.84725e-18)
(0.064308 -5.14622e-06 1.47564e-19)
(0.0643026 -5.16315e-06 1.69201e-18)
(0.0642973 -5.18007e-06 4.23911e-19)
(0.0642919 -5.19691e-06 1.90894e-18)
(0.0642864 -5.21376e-06 1.66852e-19)
(0.0642809 -5.23061e-06 1.81762e-18)
(0.0642753 -5.24751e-06 1.45957e-19)
(0.0642697 -5.26442e-06 2.30022e-18)
(0.0642641 -5.28138e-06 -4.0898e-19)
(0.0642583 -5.29846e-06 2.46288e-18)
(0.0642526 -5.31562e-06 -1.50713e-18)
(0.0642468 -5.33277e-06 7.95008e-18)
(0.064241 -5.34998e-06 -1.18865e-17)
(0.0642351 -5.36722e-06 1.42566e-17)
(0.0642291 -5.3845e-06 -1.72756e-17)
(0.0642231 -5.40191e-06 1.23477e-17)
(0.0642171 -5.41942e-06 -2.58032e-17)
(0.064211 -5.437e-06 1.3436e-18)
(0.0642049 -5.45467e-06 -1.2631e-17)
(0.0641987 -5.47249e-06 2.58011e-18)
(0.0641925 -5.49046e-06 -1.38603e-17)
(0.0641862 -5.50851e-06 1.33174e-17)
(0.0641799 -5.52671e-06 -1.75035e-17)
(0.0641735 -5.54499e-06 1.19102e-17)
(0.0641671 -5.56333e-06 -2.62593e-17)
(0.0641607 -5.58189e-06 1.40108e-18)
(0.0641541 -5.60065e-06 -1.22769e-17)
(0.0641476 -5.61957e-06 1.87515e-18)
(0.064141 -5.63857e-06 -1.22782e-17)
(0.0641343 -5.65769e-06 8.32329e-18)
(0.0641276 -5.67701e-06 -7.70296e-18)
(0.0641209 -5.69648e-06 -2.47771e-18)
(0.0641141 -5.71616e-06 -1.0601e-17)
(0.0641073 -5.736e-06 -1.1036e-17)
(0.0641004 -5.75601e-06 -1.18772e-17)
(0.0640935 -5.7763e-06 -4.02599e-18)
(0.0640865 -5.79682e-06 -9.02369e-18)
(0.0640794 -5.81765e-06 4.66199e-18)
(0.0640724 -5.8388e-06 -6.70725e-18)
(0.0640653 -5.86018e-06 1.47879e-17)
(0.0640581 -5.88187e-06 5.64607e-18)
(0.0640509 -5.90397e-06 1.16339e-18)
(0.0640436 -5.92652e-06 -4.47257e-18)
(0.0640363 -5.94938e-06 -2.99199e-19)
(0.064029 -5.97186e-06 -7.48713e-18)
(0.0640216 -5.99362e-06 5.12067e-18)
(0.0640141 -6.01502e-06 -6.25919e-18)
(0.0640066 -6.0362e-06 1.40251e-17)
(0.0639991 -6.05759e-06 5.73857e-18)
(0.0639915 -6.07749e-06 1.49468e-18)
(0.0639838 -6.09704e-06 -4.66468e-18)
(0.0639762 -6.11555e-06 1.9468e-18)
(0.0639684 -6.13311e-06 -1.2942e-17)
(0.0639607 -6.15037e-06 1.45355e-17)
(0.0639528 -6.168e-06 -1.76284e-17)
(0.063945 -6.1859e-06 5.0113e-18)
(0.0639371 -6.20396e-06 -9.7943e-18)
(0.0639291 -6.22225e-06 -1.9944e-18)
(0.0639211 -6.24072e-06 -1.36115e-17)
(0.063913 -6.25938e-06 1.17298e-17)
(0.0639049 -6.27788e-06 -1.85597e-17)
(0.0638968 -6.29552e-06 6.34854e-18)
(0.0638886 -6.31252e-06 -2.69544e-17)
(0.0638804 -6.33026e-06 -5.27942e-19)
(0.0638721 -6.34778e-06 -1.3022e-17)
(0.0638638 -6.36516e-06 -3.23017e-18)
(0.0638554 -6.38208e-06 -1.40721e-17)
(0.063847 -6.39868e-06 1.13194e-17)
(0.0638385 -6.41572e-06 -1.7792e-17)
(0.06383 -6.43255e-06 4.13953e-18)
(0.0638214 -6.44921e-06 -2.34417e-17)
(0.0638128 -6.46577e-06 -5.53043e-18)
(0.0638042 -6.48218e-06 -6.60169e-18)
(0.0637955 -6.49849e-06 8.79971e-19)
(0.0637867 -6.51457e-06 -9.9432e-19)
(0.0637779 -6.53068e-06 1.33843e-17)
(0.0637691 -6.54692e-06 -7.6948e-18)
(0.0637602 -6.56314e-06 1.39942e-17)
(0.0637513 -6.57943e-06 5.12602e-18)
(0.0637423 -6.59528e-06 5.26405e-18)
(0.0637333 -6.61091e-06 -3.13991e-18)
(0.0637242 -6.62643e-06 -1.19615e-18)
(0.0637151 -6.64172e-06 -4.0633e-18)
(0.063706 -6.65639e-06 1.1206e-17)
(0.0636968 -6.67085e-06 -8.68722e-18)
(0.0636875 -6.68525e-06 1.35588e-17)
(0.0636782 -6.69963e-06 5.00944e-18)
(0.0636689 -6.71401e-06 4.87681e-18)
(0.0636595 -6.72826e-06 -3.56942e-18)
(0.0636501 -6.74218e-06 -1.19171e-18)
(0.0636406 -6.7557e-06 -4.40865e-18)
(0.0636311 -6.769e-06 1.20754e-17)
(0.0636215 -6.78192e-06 -1.05783e-17)
(0.0636119 -6.79449e-06 1.66114e-17)
(0.0636023 -6.80681e-06 7.13051e-19)
(0.0635926 -6.81888e-06 1.02764e-17)
(0.0635829 -6.83048e-06 -1.02109e-17)
(0.0635731 -6.84185e-06 1.51378e-17)
(0.0635632 -6.85262e-06 -1.69426e-17)
(0.0635534 -6.86247e-06 1.25634e-17)
(0.0635435 -6.87135e-06 -2.73802e-17)
(0.0635335 -6.8792e-06 7.48599e-19)
(0.0635235 -6.88567e-06 -1.16958e-17)
(0.0635134 -6.89072e-06 2.74824e-18)
(0.0635033 -6.89396e-06 -1.39325e-17)
(0.0634932 -6.89573e-06 1.34532e-17)
(0.063483 -6.89331e-06 -1.73732e-17)
(0.0634728 -6.89096e-06 1.24923e-17)
(0.0634625 -6.87745e-06 -2.6903e-17)
(0.0634522 -6.87499e-06 4.38844e-19)
(0.0634418 -6.84381e-06 -1.01749e-17)
(0.0634313 -6.8516e-06 -9.56028e-19)
(0.0634211 -6.80469e-06 -7.42399e-18)
(0.0634101 -6.84079e-06 3.70268e-18)
(0.0633994 -6.79685e-06 -4.13411e-18)
(0.0645664 -3.57841e-06 4.93736e-18)
(0.0645629 -1.83214e-06 -2.80211e-19)
(0.0645608 -2.3787e-06 5.75191e-18)
(0.0645587 -2.50468e-06 3.72452e-20)
(0.0645565 -2.46241e-06 4.96685e-18)
(0.0645543 -2.41714e-06 -3.23724e-19)
(0.0645519 -2.5491e-06 5.77214e-18)
(0.0645495 -2.61626e-06 2.86352e-21)
(0.064547 -2.59041e-06 4.853e-18)
(0.0645445 -2.63274e-06 -3.19687e-19)
(0.0645419 -2.69691e-06 5.83117e-18)
(0.0645392 -2.7239e-06 8.73912e-20)
(0.0645365 -2.75761e-06 4.68095e-18)
(0.0645338 -2.80595e-06 2.56546e-19)
(0.064531 -2.85115e-06 4.78417e-18)
(0.0645282 -2.8953e-06 1.50052e-18)
(0.0645253 -2.93944e-06 3.48767e-18)
(0.0645223 -2.98524e-06 3.70536e-19)
(0.0645194 -3.03265e-06 5.10269e-18)
(0.0645163 -3.08099e-06 3.46077e-18)
(0.0645132 -3.13487e-06 5.89889e-18)
(0.0645101 -3.1812e-06 1.44349e-18)
(0.0645069 -3.24655e-06 4.7894e-18)
(0.0645037 -3.29256e-06 2.94871e-18)
(0.0645004 -3.36882e-06 5.4005e-18)
(0.0644971 -3.43364e-06 1.19263e-18)
(0.0644937 -3.493e-06 4.76599e-18)
(0.0644903 -3.60792e-06 2.83624e-18)
(0.0644867 -3.64791e-06 5.3708e-18)
(0.0644834 -3.76087e-06 1.12146e-18)
(0.0644794 -3.98865e-06 4.66255e-18)
(0.0644761 -3.67723e-06 2.91137e-18)
(0.0644723 -4.54548e-06 5.29123e-18)
(0.0644681 -3.63115e-06 1.17546e-18)
(0.0644652 -4.50606e-06 4.57588e-18)
(0.0644604 -4.5041e-06 2.92689e-18)
(0.0644558 -3.20121e-06 5.30952e-18)
(0.064453 -3.11325e-06 1.01914e-18)
(0.0644498 -3.43222e-06 4.6399e-18)
(0.0644458 -3.4154e-06 2.84236e-18)
(0.0644417 -3.35058e-06 5.29102e-18)
(0.0644378 -3.37142e-06 1.01406e-18)
(0.0644339 -3.4141e-06 4.66368e-18)
(0.0644298 -3.45206e-06 2.88183e-18)
(0.0644257 -3.4892e-06 5.29125e-18)
(0.0644216 -3.52647e-06 1.16812e-18)
(0.0644174 -3.56266e-06 4.67186e-18)
(0.0644131 -3.59739e-06 2.98043e-18)
(0.0644089 -3.6307e-06 5.30676e-18)
(0.0644045 -3.66264e-06 1.08387e-18)
(0.0644001 -3.69326e-06 4.7469e-18)
(0.0643957 -3.72265e-06 2.83491e-18)
(0.0643912 -3.75092e-06 5.37187e-18)
(0.0643867 -3.77822e-06 1.0309e-18)
(0.0643822 -3.8046e-06 4.6561e-18)
(0.0643775 -3.83021e-06 2.75365e-18)
(0.0643729 -3.8552e-06 5.33625e-18)
(0.0643682 -3.87958e-06 1.17007e-18)
(0.0643634 -3.90347e-06 4.59069e-18)
(0.0643586 -3.92693e-06 3.03216e-18)
(0.0643538 -3.95001e-06 5.43776e-18)
(0.0643489 -3.97276e-06 1.20713e-18)
(0.0643439 -3.99522e-06 4.72989e-18)
(0.0643389 -4.01746e-06 2.91842e-18)
(0.0643339 -4.0395e-06 5.28678e-18)
(0.0643288 -4.06137e-06 1.06374e-18)
(0.0643237 -4.08311e-06 4.68422e-18)
(0.0643185 -4.10477e-06 2.97172e-18)
(0.0643132 -4.12635e-06 5.20536e-18)
(0.064308 -4.14785e-06 9.26331e-19)
(0.0643026 -4.16928e-06 4.60841e-18)
(0.0642973 -4.19068e-06 2.93854e-18)
(0.0642919 -4.21207e-06 5.27514e-18)
(0.0642864 -4.23344e-06 1.05776e-18)
(0.0642809 -4.25482e-06 4.69299e-18)
(0.0642753 -4.27621e-06 2.78265e-18)
(0.0642697 -4.29761e-06 5.29188e-18)
(0.064264 -4.319e-06 1.0984e-18)
(0.0642583 -4.34037e-06 4.10973e-18)
(0.0642526 -4.36175e-06 3.80787e-18)
(0.0642468 -4.38319e-06 5.55757e-18)
(0.0642409 -4.40467e-06 -1.93898e-18)
(0.0642351 -4.4262e-06 5.19935e-18)
(0.0642291 -4.44776e-06 -1.65548e-18)
(0.0642231 -4.46933e-06 8.23854e-18)
(0.0642171 -4.4909e-06 -2.5888e-18)
(0.064211 -4.51252e-06 -2.08046e-18)
(0.0642049 -4.53417e-06 -2.92664e-19)
(0.0641987 -4.5558e-06 4.33745e-18)
(0.0641925 -4.57744e-06 -1.77584e-18)
(0.0641862 -4.59912e-06 5.29743e-18)
(0.0641799 -4.62079e-06 -1.37057e-18)
(0.0641735 -4.64253e-06 8.11347e-18)
(0.0641671 -4.66432e-06 -2.78347e-18)
(0.0641606 -4.68606e-06 -1.86951e-18)
(0.0641541 -4.70774e-06 3.78251e-20)
(0.0641476 -4.72946e-06 3.99523e-18)
(0.064141 -4.75125e-06 -1.19055e-18)
(0.0641343 -4.7731e-06 2.87428e-18)
(0.0641276 -4.79495e-06 2.86131e-18)
(0.0641209 -4.81683e-06 2.11181e-18)
(0.0641141 -4.83869e-06 2.38135e-18)
(0.0641073 -4.86057e-06 -3.13851e-18)
(0.0641004 -4.88248e-06 -1.55295e-18)
(0.0640934 -4.90436e-06 6.74255e-19)
(0.0640865 -4.92625e-06 -6.05717e-20)
(0.0640794 -4.94809e-06 3.13331e-18)
(0.0640724 -4.9699e-06 7.84279e-19)
(0.0640652 -4.99179e-06 5.08543e-18)
(0.0640581 -5.0137e-06 8.48192e-18)
(0.0640509 -5.03556e-06 3.06789e-18)
(0.0640436 -5.05739e-06 2.80166e-18)
(0.0640363 -5.07912e-06 2.85132e-18)
(0.0640289 -5.10098e-06 8.62508e-19)
(0.0640215 -5.12306e-06 3.4275e-18)
(0.0640141 -5.14523e-06 1.00942e-18)
(0.0640066 -5.16755e-06 5.04466e-18)
(0.0639991 -5.19015e-06 8.66344e-18)
(0.0639915 -5.21198e-06 3.30346e-18)
(0.0639838 -5.2339e-06 2.465e-18)
(0.0639762 -5.25597e-06 4.47466e-18)
(0.0639684 -5.27768e-06 -1.99387e-18)
(0.0639607 -5.29909e-06 6.73626e-18)
(0.0639528 -5.32075e-06 1.68459e-19)
(0.063945 -5.34258e-06 2.55447e-18)
(0.063937 -5.36445e-06 2.23358e-18)
(0.0639291 -5.3863e-06 1.18105e-18)
(0.0639211 -5.40817e-06 -2.4775e-18)
(0.063913 -5.43005e-06 6.98129e-18)
(0.0639049 -5.45187e-06 -1.06775e-18)
(0.0638968 -5.47347e-06 4.53847e-18)
(0.0638886 -5.49489e-06 -3.81401e-18)
(0.0638804 -5.51688e-06 -3.71552e-19)
(0.0638721 -5.53897e-06 4.26173e-19)
(0.0638637 -5.56098e-06 5.04256e-19)
(0.0638554 -5.58286e-06 -2.65745e-18)
(0.0638469 -5.60465e-06 6.61266e-18)
(0.0638385 -5.62681e-06 -3.90033e-19)
(0.06383 -5.64894e-06 2.98984e-18)
(0.0638214 -5.67096e-06 -1.89217e-18)
(0.0638128 -5.69291e-06 -2.27576e-18)
(0.0638041 -5.71482e-06 6.72799e-19)
(0.0637954 -5.7367e-06 9.65619e-19)
(0.0637867 -5.75864e-06 2.75914e-18)
(0.0637779 -5.7805e-06 9.0117e-18)
(0.0637691 -5.80227e-06 1.70919e-18)
(0.0637602 -5.82406e-06 2.96744e-18)
(0.0637513 -5.84583e-06 7.76463e-18)
(0.0637423 -5.86724e-06 6.13904e-18)
(0.0637333 -5.88854e-06 3.95551e-18)
(0.0637242 -5.90977e-06 2.97959e-19)
(0.0637151 -5.93089e-06 1.0828e-18)
(0.063706 -5.95167e-06 7.78139e-18)
(0.0636968 -5.97237e-06 1.11499e-18)
(0.0636875 -5.99305e-06 2.64434e-18)
(0.0636782 -6.01358e-06 7.74611e-18)
(0.0636689 -6.03395e-06 6.0584e-18)
(0.0636595 -6.05413e-06 3.80004e-18)
(0.0636501 -6.07413e-06 3.17716e-19)
(0.0636406 -6.09394e-06 9.87488e-19)
(0.0636311 -6.11348e-06 8.12287e-18)
(0.0636215 -6.13275e-06 4.47346e-19)
(0.0636119 -6.15169e-06 3.8059e-18)
(0.0636023 -6.1703e-06 6.17223e-18)
(0.0635926 -6.18873e-06 8.39347e-18)
(0.0635829 -6.20692e-06 6.57122e-20)
(0.0635731 -6.22483e-06 6.32046e-18)
(0.0635632 -6.24214e-06 -1.04703e-18)
(0.0635534 -6.2587e-06 8.41145e-18)
(0.0635435 -6.27448e-06 -3.39228e-18)
(0.0635335 -6.28936e-06 -2.27603e-18)
(0.0635235 -6.30303e-06 3.93745e-19)
(0.0635134 -6.3153e-06 4.46555e-18)
(0.0635033 -6.32556e-06 -1.91162e-18)
(0.0634932 -6.33433e-06 5.29907e-18)
(0.063483 -6.33877e-06 -1.17177e-18)
(0.0634728 -6.34361e-06 8.43387e-18)
(0.0634625 -6.33716e-06 -3.2675e-18)
(0.0634522 -6.33975e-06 -2.3635e-18)
(0.0634418 -6.31968e-06 1.01707e-18)
(0.0634313 -6.32179e-06 3.23503e-18)
(0.0634211 -6.31802e-06 -1.6252e-19)
(0.0634101 -6.32399e-06 3.21646e-18)
(0.0633994 -6.46662e-06 1.66126e-18)
(0.0645669 -3.91379e-06 1.85132e-17)
(0.0645629 -2.14691e-06 1.11568e-19)
(0.0645602 -1.80344e-06 1.35705e-17)
(0.0645587 -2.96712e-06 -2.09858e-18)
(0.0645566 -3.00429e-06 1.85433e-17)
(0.0645542 -2.65105e-06 1.72766e-20)
(0.0645518 -2.71467e-06 1.35865e-17)
(0.0645495 -2.78133e-06 -2.16408e-18)
(0.0645471 -2.7609e-06 1.82165e-17)
(0.0645445 -2.83131e-06 -4.04432e-20)
(0.0645419 -2.90688e-06 1.36684e-17)
(0.0645392 -2.93169e-06 -1.93778e-18)
(0.0645365 -2.97187e-06 1.75492e-17)
(0.0645338 -3.02767e-06 1.82283e-18)
(0.064531 -3.07568e-06 9.75847e-18)
(0.0645282 -3.12145e-06 4.39449e-18)
(0.0645253 -3.16758e-06 1.03459e-17)
(0.0645223 -3.21546e-06 5.14968e-18)
(0.0645193 -3.26641e-06 1.53729e-17)
(0.0645163 -3.31898e-06 1.1171e-17)
(0.0645132 -3.37632e-06 1.38653e-17)
(0.0645101 -3.42896e-06 4.29029e-18)
(0.0645069 -3.49591e-06 1.23949e-17)
(0.0645037 -3.55112e-06 8.59835e-18)
(0.0645004 -3.62464e-06 1.21373e-17)
(0.0644971 -3.69425e-06 3.57523e-18)
(0.0644937 -3.75557e-06 1.21188e-17)
(0.0644903 -3.84991e-06 8.26209e-18)
(0.0644867 -3.9214e-06 1.2265e-17)
(0.0644833 -3.95761e-06 3.41285e-18)
(0.0644795 -4.25554e-06 1.21172e-17)
(0.064476 -3.85187e-06 8.68322e-18)
(0.0644723 -4.67065e-06 1.15751e-17)
(0.0644681 -3.85867e-06 3.36446e-18)
(0.0644651 -4.4141e-06 1.17951e-17)
(0.0644606 -4.6677e-06 8.52974e-18)
(0.064456 -3.58221e-06 1.17336e-17)
(0.0644529 -3.35436e-06 3.03608e-18)
(0.0644497 -3.64642e-06 1.22177e-17)
(0.0644458 -3.66917e-06 8.56388e-18)
(0.0644417 -3.60366e-06 1.15811e-17)
(0.0644378 -3.61614e-06 2.98538e-18)
(0.0644338 -3.65951e-06 1.19966e-17)
(0.0644298 -3.7002e-06 8.53482e-18)
(0.0644257 -3.73985e-06 1.18821e-17)
(0.0644216 -3.78007e-06 3.43055e-18)
(0.0644174 -3.81955e-06 1.20199e-17)
(0.0644131 -3.85768e-06 8.68826e-18)
(0.0644088 -3.89443e-06 1.20991e-17)
(0.0644045 -3.92982e-06 3.17105e-18)
(0.0644001 -3.96397e-06 1.25903e-17)
(0.0643957 -3.99693e-06 8.46328e-18)
(0.0643912 -4.02881e-06 1.16432e-17)
(0.0643867 -4.05969e-06 3.08871e-18)
(0.0643821 -4.08967e-06 1.20753e-17)
(0.0643775 -4.1188e-06 8.32188e-18)
(0.0643729 -4.14716e-06 1.18674e-17)
(0.0643682 -4.17483e-06 3.43161e-18)
(0.0643634 -4.20187e-06 1.16439e-17)
(0.0643586 -4.22837e-06 8.8446e-18)
(0.0643537 -4.25438e-06 1.21725e-17)
(0.0643488 -4.27995e-06 3.40463e-18)
(0.0643439 -4.30513e-06 1.23025e-17)
(0.0643389 -4.32994e-06 8.59559e-18)
(0.0643339 -4.35442e-06 1.19384e-17)
(0.0643288 -4.37862e-06 3.22007e-18)
(0.0643236 -4.40255e-06 1.23955e-17)
(0.0643185 -4.42621e-06 8.85066e-18)
(0.0643132 -4.44967e-06 1.16348e-17)
(0.064308 -4.47294e-06 2.8998e-18)
(0.0643026 -4.49605e-06 1.18001e-17)
(0.0642973 -4.51898e-06 8.66751e-18)
(0.0642918 -4.54175e-06 1.14002e-17)
(0.0642864 -4.56439e-06 3.15858e-18)
(0.0642809 -4.58691e-06 1.20733e-17)
(0.0642753 -4.6093e-06 7.94347e-18)
(0.0642697 -4.63157e-06 1.30126e-17)
(0.064264 -4.65376e-06 5.47727e-19)
(0.0642583 -4.67588e-06 1.48249e-17)
(0.0642526 -4.69793e-06 8.00084e-18)
(0.0642468 -4.71987e-06 5.39737e-18)
(0.0642409 -4.74174e-06 6.24246e-18)
(0.064235 -4.76353e-06 2.29623e-18)
(0.0642291 -4.78526e-06 9.48167e-18)
(0.0642231 -4.80695e-06 1.01746e-17)
(0.0642171 -4.82862e-06 1.00793e-17)
(0.064211 -4.85023e-06 1.59367e-18)
(0.0642049 -4.87181e-06 1.02769e-17)
(0.0641987 -4.89337e-06 9.32304e-18)
(0.0641925 -4.91492e-06 9.71266e-18)
(0.0641862 -4.93643e-06 4.15645e-18)
(0.0641799 -4.9579e-06 1.06479e-17)
(0.0641735 -4.97934e-06 1.06725e-17)
(0.0641671 -5.00075e-06 9.25729e-18)
(0.0641606 -5.02217e-06 1.78056e-18)
(0.0641541 -5.04363e-06 1.07624e-17)
(0.0641476 -5.06507e-06 9.31504e-18)
(0.064141 -5.08645e-06 9.10853e-18)
(0.0641343 -5.10778e-06 3.01231e-18)
(0.0641276 -5.1291e-06 1.14771e-17)
(0.0641209 -5.15043e-06 8.46801e-18)
(0.0641141 -5.17176e-06 1.15857e-17)
(0.0641072 -5.1931e-06 2.00485e-18)
(0.0641004 -5.21442e-06 1.00281e-17)
(0.0640934 -5.23575e-06 8.00314e-18)
(0.0640865 -5.25711e-06 9.87103e-18)
(0.0640794 -5.27847e-06 3.65829e-18)
(0.0640724 -5.29984e-06 1.13109e-17)
(0.0640652 -5.32118e-06 8.62434e-18)
(0.0640581 -5.34248e-06 1.26251e-17)
(0.0640509 -5.36379e-06 4.18101e-18)
(0.0640436 -5.38513e-06 1.17577e-17)
(0.0640363 -5.40647e-06 8.64677e-18)
(0.0640289 -5.42785e-06 1.01628e-17)
(0.0640215 -5.44931e-06 3.87871e-18)
(0.0640141 -5.47088e-06 1.14261e-17)
(0.0640066 -5.49257e-06 8.62113e-18)
(0.063999 -5.51437e-06 1.27555e-17)
(0.0639915 -5.53566e-06 4.11555e-18)
(0.0639838 -5.55693e-06 1.19868e-17)
(0.0639761 -5.57823e-06 9.56546e-18)
(0.0639684 -5.59924e-06 8.96157e-18)
(0.0639606 -5.62002e-06 4.52207e-18)
(0.0639528 -5.64087e-06 1.11306e-17)
(0.063945 -5.66178e-06 8.49885e-18)
(0.063937 -5.68273e-06 1.09421e-17)
(0.0639291 -5.70368e-06 3.22301e-18)
(0.0639211 -5.72465e-06 9.89423e-18)
(0.063913 -5.74557e-06 9.7085e-18)
(0.0639049 -5.76638e-06 9.96852e-18)
(0.0638968 -5.78704e-06 4.65097e-18)
(0.0638886 -5.80754e-06 1.01059e-17)
(0.0638803 -5.82831e-06 7.37367e-18)
(0.0638721 -5.84911e-06 9.80816e-18)
(0.0638637 -5.86984e-06 3.00719e-18)
(0.0638554 -5.89047e-06 9.80633e-18)
(0.0638469 -5.91112e-06 9.37804e-18)
(0.0638385 -5.93197e-06 1.03557e-17)
(0.06383 -5.95279e-06 3.7767e-18)
(0.0638214 -5.97351e-06 1.0971e-17)
(0.0638128 -5.99413e-06 6.86321e-18)
(0.0638041 -6.01465e-06 9.68029e-18)
(0.0637954 -6.03506e-06 2.85824e-18)
(0.0637867 -6.05541e-06 1.17331e-17)
(0.0637779 -6.07569e-06 1.09096e-17)
(0.0637691 -6.09591e-06 1.0494e-17)
(0.0637602 -6.11609e-06 3.02946e-18)
(0.0637513 -6.1362e-06 1.3369e-17)
(0.0637423 -6.15604e-06 1.00082e-17)
(0.0637333 -6.17571e-06 1.11202e-17)
(0.0637242 -6.19521e-06 2.75845e-18)
(0.0637151 -6.21449e-06 1.09228e-17)
(0.0637059 -6.23343e-06 1.03932e-17)
(0.0636967 -6.2522e-06 1.02768e-17)
(0.0636875 -6.27087e-06 2.6706e-18)
(0.0636782 -6.28943e-06 1.3655e-17)
(0.0636689 -6.30787e-06 1.01358e-17)
(0.0636595 -6.32611e-06 1.11198e-17)
(0.0636501 -6.34413e-06 2.69145e-18)
(0.0636406 -6.36193e-06 1.10546e-17)
(0.0636311 -6.3794e-06 1.03344e-17)
(0.0636215 -6.39657e-06 1.01625e-17)
(0.0636119 -6.41333e-06 3.18879e-18)
(0.0636023 -6.42974e-06 1.32994e-17)
(0.0635926 -6.44582e-06 1.10687e-17)
(0.0635828 -6.46155e-06 9.89862e-18)
(0.0635731 -6.47691e-06 4.52662e-18)
(0.0635632 -6.49159e-06 1.09711e-17)
(0.0635534 -6.50539e-06 1.04376e-17)
(0.0635434 -6.51822e-06 9.35648e-18)
(0.0635335 -6.53017e-06 1.32094e-18)
(0.0635235 -6.5408e-06 1.1177e-17)
(0.0635134 -6.55002e-06 9.53045e-18)
(0.0635033 -6.55701e-06 9.1047e-18)
(0.0634932 -6.56265e-06 3.96902e-18)
(0.063483 -6.56296e-06 1.08928e-17)
(0.0634728 -6.56493e-06 1.06971e-17)
(0.0634625 -6.55149e-06 9.36155e-18)
(0.0634522 -6.55381e-06 1.33963e-18)
(0.0634418 -6.5201e-06 1.1815e-17)
(0.0634313 -6.52558e-06 8.91735e-18)
(0.0634211 -6.49995e-06 9.67913e-18)
(0.06341 -6.49787e-06 4.85541e-18)
(0.0633993 -6.5872e-06 6.84507e-18)
(0.0645636 -3.64648e-06 -1.16979e-17)
(0.0645604 -1.31972e-06 2.21701e-17)
(0.0645581 -1.45058e-06 -1.0142e-19)
(0.0645565 -2.15574e-06 1.71444e-17)
(0.0645544 -2.19291e-06 -1.16212e-17)
(0.0645519 -2.33867e-06 2.20853e-17)
(0.0645495 -2.32442e-06 -1.01746e-19)
(0.064547 -2.23578e-06 1.69467e-17)
(0.0645444 -2.29823e-06 -1.17618e-17)
(0.0645418 -2.36236e-06 2.20063e-17)
(0.0645392 -2.36803e-06 1.36097e-19)
(0.0645365 -2.40381e-06 1.5309e-17)
(0.0645338 -2.457e-06 -7.66721e-18)
(0.064531 -2.49961e-06 1.25726e-17)
(0.0645282 -2.54178e-06 1.8106e-17)
(0.0645253 -2.58441e-06 -1.15547e-17)
(0.0645223 -2.62812e-06 2.50271e-17)
(0.0645193 -2.6753e-06 -7.40766e-18)
(0.0645163 -2.72378e-06 2.41707e-17)
(0.0645132 -2.77572e-06 -2.27684e-17)
(0.0645101 -2.82452e-06 1.25355e-17)
(0.0645069 -2.88395e-06 -1.90569e-17)
(0.0645037 -2.93642e-06 1.64639e-17)
(0.0645004 -3.00279e-06 -2.70808e-17)
(0.0644971 -3.06846e-06 1.06103e-17)
(0.0644937 -3.13168e-06 -1.93628e-17)
(0.0644903 -3.21193e-06 1.6032e-17)
(0.0644867 -3.30443e-06 -2.72801e-17)
(0.0644833 -3.30758e-06 1.08963e-17)
(0.0644795 -3.62069e-06 -1.93457e-17)
(0.064476 -3.25156e-06 1.58888e-17)
(0.0644723 -3.96326e-06 -2.72407e-17)
(0.0644682 -3.37164e-06 1.09296e-17)
(0.0644649 -3.68415e-06 -1.9809e-17)
(0.0644608 -4.05799e-06 1.60448e-17)
(0.0644562 -3.19114e-06 -2.70879e-17)
(0.0644529 -2.83741e-06 1.04386e-17)
(0.0644496 -3.06661e-06 -1.94062e-17)
(0.0644457 -3.12514e-06 1.58808e-17)
(0.0644417 -3.06418e-06 -2.71736e-17)
(0.0644378 -3.06248e-06 1.03726e-17)
(0.0644338 -3.09863e-06 -2.00286e-17)
(0.0644298 -3.13567e-06 1.60811e-17)
(0.0644257 -3.17168e-06 -2.73742e-17)
(0.0644215 -3.20847e-06 1.05572e-17)
(0.0644173 -3.24487e-06 -1.95167e-17)
(0.0644131 -3.28007e-06 1.67839e-17)
(0.0644088 -3.31394e-06 -2.72276e-17)
(0.0644045 -3.34647e-06 1.03072e-17)
(0.0644001 -3.3777e-06 -1.92323e-17)
(0.0643957 -3.40768e-06 1.61631e-17)
(0.0643912 -3.4365e-06 -2.7039e-17)
(0.0643867 -3.46429e-06 9.72754e-18)
(0.0643821 -3.4911e-06 -1.92743e-17)
(0.0643775 -3.51706e-06 1.62339e-17)
(0.0643729 -3.54226e-06 -2.70308e-17)
(0.0643681 -3.56678e-06 1.07918e-17)
(0.0643634 -3.59068e-06 -1.96197e-17)
(0.0643586 -3.61404e-06 1.67656e-17)
(0.0643537 -3.6369e-06 -2.67657e-17)
(0.0643488 -3.65931e-06 1.06023e-17)
(0.0643439 -3.68132e-06 -1.93651e-17)
(0.0643389 -3.70298e-06 1.63967e-17)
(0.0643339 -3.72432e-06 -2.71887e-17)
(0.0643288 -3.74538e-06 1.06571e-17)
(0.0643236 -3.76618e-06 -1.90933e-17)
(0.0643185 -3.78677e-06 1.66544e-17)
(0.0643132 -3.80716e-06 -2.76959e-17)
(0.0643079 -3.82735e-06 1e-17)
(0.0643026 -3.84737e-06 -1.95955e-17)
(0.0642973 -3.86727e-06 1.62312e-17)
(0.0642918 -3.88703e-06 -2.7163e-17)
(0.0642864 -3.90667e-06 1.02603e-17)
(0.0642809 -3.92623e-06 -1.81472e-17)
(0.0642753 -3.9457e-06 1.41147e-17)
(0.0642697 -3.9651e-06 -2.13372e-17)
(0.064264 -3.98442e-06 -2.33764e-18)
(0.0642583 -4.00367e-06 3.18478e-18)
(0.0642526 -4.02289e-06 -1.6711e-17)
(0.0642468 -4.04206e-06 1.45242e-17)
(0.0642409 -4.06119e-06 -3.03969e-17)
(0.064235 -4.08029e-06 9.13736e-18)
(0.0642291 -4.09936e-06 -2.04658e-17)
(0.0642231 -4.11839e-06 1.6808e-17)
(0.0642171 -4.13738e-06 -2.79147e-17)
(0.064211 -4.15635e-06 9.84096e-18)
(0.0642049 -4.1753e-06 -1.97787e-17)
(0.0641987 -4.1942e-06 1.69642e-17)
(0.0641925 -4.21309e-06 -2.81057e-17)
(0.0641862 -4.23197e-06 1.09936e-17)
(0.0641799 -4.25082e-06 -1.96946e-17)
(0.0641735 -4.26966e-06 1.71084e-17)
(0.0641671 -4.2885e-06 -2.85547e-17)
(0.0641606 -4.3073e-06 1.04789e-17)
(0.0641541 -4.32605e-06 -1.94184e-17)
(0.0641476 -4.34479e-06 1.66968e-17)
(0.064141 -4.36355e-06 -2.85966e-17)
(0.0641343 -4.3823e-06 1.0146e-17)
(0.0641276 -4.40104e-06 -1.96899e-17)
(0.0641209 -4.41976e-06 1.63502e-17)
(0.0641141 -4.43844e-06 -2.71216e-17)
(0.0641072 -4.4571e-06 9.92202e-18)
(0.0641004 -4.47574e-06 -1.97921e-17)
(0.0640934 -4.49436e-06 1.64135e-17)
(0.0640864 -4.51295e-06 -2.84753e-17)
(0.0640794 -4.53151e-06 1.03076e-17)
(0.0640723 -4.55004e-06 -1.90205e-17)
(0.0640652 -4.56859e-06 1.63384e-17)
(0.0640581 -4.58713e-06 -2.76083e-17)
(0.0640508 -4.60562e-06 1.06823e-17)
(0.0640436 -4.62409e-06 -1.86643e-17)
(0.0640363 -4.64252e-06 1.64992e-17)
(0.0640289 -4.66098e-06 -2.79276e-17)
(0.0640215 -4.67953e-06 1.02304e-17)
(0.0640141 -4.69814e-06 -1.90227e-17)
(0.0640066 -4.71679e-06 1.60953e-17)
(0.063999 -4.73545e-06 -2.70622e-17)
(0.0639915 -4.75378e-06 1.09483e-17)
(0.0639838 -4.77204e-06 -1.89322e-17)
(0.0639761 -4.79027e-06 1.6897e-17)
(0.0639684 -4.80829e-06 -2.86997e-17)
(0.0639606 -4.82614e-06 1.00882e-17)
(0.0639528 -4.84404e-06 -1.89812e-17)
(0.0639449 -4.86198e-06 1.64962e-17)
(0.063937 -4.87995e-06 -2.7886e-17)
(0.0639291 -4.8979e-06 1.0095e-17)
(0.0639211 -4.91583e-06 -1.93566e-17)
(0.063913 -4.93372e-06 1.66596e-17)
(0.0639049 -4.95155e-06 -2.77536e-17)
(0.0638968 -4.96924e-06 1.08155e-17)
(0.0638886 -4.98686e-06 -1.93853e-17)
(0.0638803 -5.00468e-06 1.63522e-17)
(0.0638721 -5.02255e-06 -2.837e-17)
(0.0638637 -5.04038e-06 9.856e-18)
(0.0638553 -5.05815e-06 -1.95579e-17)
(0.0638469 -5.0759e-06 1.6702e-17)
(0.0638385 -5.09379e-06 -2.80724e-17)
(0.0638299 -5.11168e-06 1.00255e-17)
(0.0638214 -5.12949e-06 -1.90301e-17)
(0.0638128 -5.14723e-06 1.60574e-17)
(0.0638041 -5.1649e-06 -2.81641e-17)
(0.0637954 -5.1825e-06 1.00784e-17)
(0.0637867 -5.20008e-06 -1.9201e-17)
(0.0637779 -5.21758e-06 1.71404e-17)
(0.0637691 -5.235e-06 -2.78092e-17)
(0.0637602 -5.25238e-06 9.7638e-18)
(0.0637513 -5.2697e-06 -1.86757e-17)
(0.0637423 -5.28679e-06 1.6781e-17)
(0.0637333 -5.30375e-06 -2.81545e-17)
(0.0637242 -5.32059e-06 1.01807e-17)
(0.0637151 -5.33729e-06 -1.90552e-17)
(0.0637059 -5.35374e-06 1.71713e-17)
(0.0636967 -5.37006e-06 -2.84718e-17)
(0.0636875 -5.38629e-06 9.59051e-18)
(0.0636782 -5.40239e-06 -1.84676e-17)
(0.0636689 -5.41837e-06 1.70468e-17)
(0.0636595 -5.43414e-06 -2.79028e-17)
(0.0636501 -5.4497e-06 9.82593e-18)
(0.0636406 -5.46506e-06 -1.9512e-17)
(0.0636311 -5.48014e-06 1.69934e-17)
(0.0636215 -5.49499e-06 -2.84585e-17)
(0.0636119 -5.50954e-06 1.00814e-17)
(0.0636023 -5.52384e-06 -1.86586e-17)
(0.0635926 -5.53787e-06 1.73767e-17)
(0.0635828 -5.55168e-06 -2.84401e-17)
(0.0635731 -5.56518e-06 1.05237e-17)
(0.0635632 -5.57816e-06 -1.93535e-17)
(0.0635534 -5.59045e-06 1.69445e-17)
(0.0635434 -5.60211e-06 -2.89536e-17)
(0.0635335 -5.61282e-06 9.22507e-18)
(0.0635235 -5.62216e-06 -1.88753e-17)
(0.0635134 -5.63004e-06 1.68287e-17)
(0.0635033 -5.63573e-06 -2.85596e-17)
(0.0634932 -5.64026e-06 1.03395e-17)
(0.063483 -5.63881e-06 -1.85044e-17)
(0.0634728 -5.64053e-06 1.75328e-17)
(0.0634625 -5.62283e-06 -2.81468e-17)
(0.0634522 -5.62738e-06 9.25883e-18)
(0.0634418 -5.58282e-06 -1.70122e-17)
(0.0634313 -5.59471e-06 1.26225e-17)
(0.0634211 -5.5531e-06 -1.99017e-17)
(0.06341 -5.5524e-06 -2.1506e-18)
(0.0633993 -5.59786e-06 -3.42294e-18)
(0.0645609 -2.96327e-06 2.1773e-17)
(0.0645582 -1.68155e-06 1.32373e-17)
(0.0645562 -1.89019e-06 2.09121e-17)
(0.0645541 -1.92865e-06 -3.49977e-18)
(0.0645517 -2.03965e-06 2.15457e-17)
(0.0645495 -2.02829e-06 1.30752e-17)
(0.0645471 -2.00173e-06 2.10241e-17)
(0.0645444 -2.11721e-06 -3.78438e-18)
(0.0645419 -2.18024e-06 2.12502e-17)
(0.0645393 -2.17934e-06 1.37676e-17)
(0.0645365 -2.2257e-06 1.89267e-17)
(0.0645338 -2.2834e-06 1.94757e-18)
(0.064531 -2.32385e-06 8.69643e-18)
(0.0645282 -2.36497e-06 3.65722e-17)
(0.0645253 -2.40579e-06 -1.29597e-17)
(0.0645223 -2.44756e-06 3.32717e-17)
(0.0645193 -2.49407e-06 -1.41517e-17)
(0.0645163 -2.54215e-06 3.10246e-17)
(0.0645132 -2.59296e-06 -3.3639e-17)
(0.0645101 -2.64234e-06 1.36228e-17)
(0.0645069 -2.69992e-06 -3.12176e-17)
(0.0645037 -2.7543e-06 2.00192e-17)
(0.0645004 -2.81834e-06 -4.01245e-17)
(0.064497 -2.88345e-06 1.07782e-17)
(0.0644936 -2.94882e-06 -3.18973e-17)
(0.0644902 -3.01845e-06 1.96059e-17)
(0.0644867 -3.12114e-06 -4.05027e-17)
(0.0644833 -3.10927e-06 1.10663e-17)
(0.0644795 -3.40466e-06 -3.20647e-17)
(0.0644759 -3.09329e-06 1.91624e-17)
(0.0644723 -3.6523e-06 -4.07493e-17)
(0.0644683 -3.25099e-06 1.10532e-17)
(0.0644648 -3.38113e-06 -3.24028e-17)
(0.0644608 -3.74163e-06 1.95938e-17)
(0.0644564 -3.11305e-06 -4.04832e-17)
(0.0644529 -2.74313e-06 1.10855e-17)
(0.0644495 -2.90042e-06 -3.20015e-17)
(0.0644457 -2.9723e-06 1.91045e-17)
(0.0644417 -2.92617e-06 -4.05952e-17)
(0.0644378 -2.92051e-06 1.03673e-17)
(0.0644338 -2.95345e-06 -3.2008e-17)
(0.0644297 -2.99043e-06 1.98176e-17)
(0.0644257 -3.02666e-06 -4.04364e-17)
(0.0644215 -3.06367e-06 1.05698e-17)
(0.0644173 -3.10049e-06 -3.20022e-17)
(0.0644131 -3.13623e-06 2.03363e-17)
(0.0644088 -3.17066e-06 -4.04032e-17)
(0.0644045 -3.20378e-06 1.021e-17)
(0.0644001 -3.23564e-06 -3.17763e-17)
(0.0643957 -3.26631e-06 1.95307e-17)
(0.0643912 -3.29586e-06 -4.02146e-17)