/*--------------------------------*- C++ -*----------------------------------*\
| =========                 |                                                 |
| \\      /  F ield         | OpenFOAM: The Open Source CFD Toolbox           |
|  \\    /   O peration     | Version:  2512                                  |
|   \\  /    A nd           | Website:  www.openfoam.com                      |
|    \\/     M anipulation  |                                                 |
\*---------------------------------------------------------------------------*/
FoamFile
{
    version     2.0;
    format      ascii;
    arch        "LSB;label=32;scalar=64";
    class       volScalarField;
    location    "0.1";
    object      Uy;
}
// * * * * * * * * * * * * * * * * * * * * * * * * * * * * * * * * * * * * * //

dimensions      [0 1 -1 0 0 0 0];

internalField   nonuniform List<scalar> 
8334
(
-4.15624e-06
-3.53171e-06
-3.65451e-06
-3.51083e-06
-3.70514e-06
-3.91074e-06
-3.84175e-06
-3.85639e-06
-3.92043e-06
-3.92919e-06
-3.97602e-06
-4.04271e-06
-4.08094e-06
-4.12027e-06
-4.17123e-06
-4.21956e-06
-4.26521e-06
-4.31009e-06
-4.35765e-06
-4.40664e-06
-4.45715e-06
-4.51444e-06
-4.56085e-06
-4.63286e-06
-4.67494e-06
-4.75735e-06
-4.81555e-06
-4.86587e-06
-4.98977e-06
-4.97003e-06
-5.17037e-06
-5.24339e-06
-5.07057e-06
-5.77145e-06
-4.84088e-06
-6.07605e-06
-5.49074e-06
-4.11785e-06
-4.30454e-06
-4.59237e-06
-4.51896e-06
-4.46954e-06
-4.49952e-06
-4.53753e-06
-4.57035e-06
-4.603e-06
-4.63547e-06
-4.66668e-06
-4.69647e-06
-4.72484e-06
-4.75194e-06
-4.7778e-06
-4.8025e-06
-4.82617e-06
-4.84893e-06
-4.87085e-06
-4.89204e-06
-4.91248e-06
-4.93236e-06
-4.95173e-06
-4.97066e-06
-4.98919e-06
-5.0074e-06
-5.02536e-06
-5.04307e-06
-5.06058e-06
-5.07795e-06
-5.09518e-06
-5.11227e-06
-5.12928e-06
-5.14622e-06
-5.16315e-06
-5.18007e-06
-5.19691e-06
-5.21376e-06
-5.23061e-06
-5.24751e-06
-5.26442e-06
-5.28138e-06
-5.29846e-06
-5.31562e-06
-5.33277e-06
-5.34998e-06
-5.36722e-06
-5.3845e-06
-5.40191e-06
-5.41942e-06
-5.437e-06
-5.45467e-06
-5.47249e-06
-5.49046e-06
-5.50851e-06
-5.52671e-06
-5.54499e-06
-5.56333e-06
-5.58189e-06
-5.60065e-06
-5.61957e-06
-5.63857e-06
-5.65769e-06
-5.67701e-06
-5.69648e-06
-5.71616e-06
-5.736e-06
-5.75601e-06
-5.7763e-06
-5.79682e-06
-5.81765e-06
-5.8388e-06
-5.86018e-06
-5.88187e-06
-5.90397e-06
-5.92652e-06
-5.94938e-06
-5.97186e-06
-5.99362e-06
-6.01502e-06
-6.0362e-06
-6.05759e-06
-6.07749e-06
-6.09704e-06
-6.11555e-06
-6.13311e-06
-6.15037e-06
-6.168e-06
-6.1859e-06
-6.20396e-06
-6.22225e-06
-6.24072e-06
-6.25938e-06
-6.27788e-06
-6.29552e-06
-6.31252e-06
-6.33026e-06
-6.34778e-06
-6.36516e-06
-6.38208e-06
-6.39868e-06
-6.41572e-06
-6.43255e-06
-6.44921e-06
-6.46577e-06
-6.48218e-06
-6.49849e-06
-6.51457e-06
-6.53068e-06
-6.54692e-06
-6.56314e-06
-6.57943e-06
-6.59528e-06
-6.61091e-06
-6.62643e-06
-6.64172e-06
-6.65639e-06
-6.67085e-06
-6.68525e-06
-6.69963e-06
-6.71401e-06
-6.72826e-06
-6.74218e-06
-6.7557e-06
-6.769e-06
-6.78192e-06
-6.79449e-06
-6.80681e-06
-6.81888e-06
-6.83048e-06
-6.84185e-06
-6.85262e-06
-6.86247e-06
-6.87135e-06
-6.8792e-06
-6.88567e-06
-6.89072e-06
-6.89396e-06
-6.89573e-06
-6.89331e-06
-6.89096e-06
-6.87745e-06
-6.87499e-06
-6.84381e-06
-6.8516e-06
-6.80469e-06
-6.84079e-06
-6.79685e-06
-3.57841e-06
-1.83214e-06
-2.3787e-06
-2.50468e-06
-2.46241e-06
-2.41714e-06
-2.5491e-06
-2.61626e-06
-2.59041e-06
-2.63274e-06
-2.69691e-06
-2.7239e-06
-2.75761e-06
-2.80595e-06
-2.85115e-06
-2.8953e-06
-2.93944e-06
-2.98524e-06
-3.03265e-06
-3.08099e-06
-3.13487e-06
-3.1812e-06
-3.24655e-06
-3.29256e-06
-3.36882e-06
-3.43364e-06
-3.493e-06
-3.60792e-06
-3.64791e-06
-3.76087e-06
-3.98865e-06
-3.67723e-06
-4.54548e-06
-3.63115e-06
-4.50606e-06
-4.5041e-06
-3.20121e-06
-3.11325e-06
-3.43222e-06
-3.4154e-06
-3.35058e-06
-3.37142e-06
-3.4141e-06
-3.45206e-06
-3.4892e-06
-3.52647e-06
-3.56266e-06
-3.59739e-06
-3.6307e-06
-3.66264e-06
-3.69326e-06
-3.72265e-06
-3.75092e-06
-3.77822e-06
-3.8046e-06
-3.83021e-06
-3.8552e-06
-3.87958e-06
-3.90347e-06
-3.92693e-06
-3.95001e-06
-3.97276e-06
-3.99522e-06
-4.01746e-06
-4.0395e-06
-4.06137e-06
-4.08311e-06
-4.10477e-06
-4.12635e-06
-4.14785e-06
-4.16928e-06
-4.19068e-06
-4.21207e-06
-4.23344e-06
-4.25482e-06
-4.27621e-06
-4.29761e-06
-4.319e-06
-4.34037e-06
-4.36175e-06
-4.38319e-06
-4.40467e-06
-4.4262e-06
-4.44776e-06
-4.46933e-06
-4.4909e-06
-4.51252e-06
-4.53417e-06
-4.5558e-06
-4.57744e-06
-4.59912e-06
-4.62079e-06
-4.64253e-06
-4.66432e-06
-4.68606e-06
-4.70774e-06
-4.72946e-06
-4.75125e-06
-4.7731e-06
-4.79495e-06
-4.81683e-06
-4.83869e-06
-4.86057e-06
-4.88248e-06
-4.90436e-06
-4.92625e-06
-4.94809e-06
-4.9699e-06
-4.99179e-06
-5.0137e-06
-5.03556e-06
-5.05739e-06
-5.07912e-06
-5.10098e-06
-5.12306e-06
-5.14523e-06
-5.16755e-06
-5.19015e-06
-5.21198e-06
-5.2339e-06
-5.25597e-06
-5.27768e-06
-5.29909e-06
-5.32075e-06
-5.34258e-06
-5.36445e-06
-5.3863e-06
-5.40817e-06
-5.43005e-06
-5.45187e-06
-5.47347e-06
-5.49489e-06
-5.51688e-06
-5.53897e-06
-5.56098e-06
-5.58286e-06
-5.60465e-06
-5.62681e-06
-5.64894e-06
-5.67096e-06
-5.69291e-06
-5.71482e-06
-5.7367e-06
-5.75864e-06
-5.7805e-06
-5.80227e-06
-5.82406e-06
-5.84583e-06
-5.86724e-06
-5.88854e-06
-5.90977e-06
-5.93089e-06
-5.95167e-06
-5.97237e-06
-5.99305e-06
-6.01358e-06
-6.03395e-06
-6.05413e-06
-6.07413e-06
-6.09394e-06
-6.11348e-06
-6.13275e-06
-6.15169e-06
-6.1703e-06
-6.18873e-06
-6.20692e-06
-6.22483e-06
-6.24214e-06
-6.2587e-06
-6.27448e-06
-6.28936e-06
-6.30303e-06
-6.3153e-06
-6.32556e-06
-6.33433e-06
-6.33877e-06
-6.34361e-06
-6.33716e-06
-6.33975e-06
-6.31968e-06
-6.32179e-06
-6.31802e-06
-6.32399e-06
-6.46662e-06
-3.91379e-06
-2.14691e-06
-1.80344e-06
-2.96712e-06
-3.00429e-06
-2.65105e-06
-2.71467e-06
-2.78133e-06
-2.7609e-06
-2.83131e-06
-2.90688e-06
-2.93169e-06
-2.97187e-06
-3.02767e-06
-3.07568e-06
-3.12145e-06
-3.16758e-06
-3.21546e-06
-3.26641e-06
-3.31898e-06
-3.37632e-06
-3.42896e-06
-3.49591e-06
-3.55112e-06
-3.62464e-06
-3.69425e-06
-3.75557e-06
-3.84991e-06
-3.9214e-06
-3.95761e-06
-4.25554e-06
-3.85187e-06
-4.67065e-06
-3.85867e-06
-4.4141e-06
-4.6677e-06
-3.58221e-06
-3.35436e-06
-3.64642e-06
-3.66917e-06
-3.60366e-06
-3.61614e-06
-3.65951e-06
-3.7002e-06
-3.73985e-06
-3.78007e-06
-3.81955e-06
-3.85768e-06
-3.89443e-06
-3.92982e-06
-3.96397e-06
-3.99693e-06
-4.02881e-06
-4.05969e-06
-4.08967e-06
-4.1188e-06
-4.14716e-06
-4.17483e-06
-4.20187e-06
-4.22837e-06
-4.25438e-06
-4.27995e-06
-4.30513e-06
-4.32994e-06
-4.35442e-06
-4.37862e-06
-4.40255e-06
-4.42621e-06
-4.44967e-06
-4.47294e-06
-4.49605e-06
-4.51898e-06
-4.54175e-06
-4.56439e-06
-4.58691e-06
-4.6093e-06
-4.63157e-06
-4.65376e-06
-4.67588e-06
-4.69793e-06
-4.71987e-06
-4.74174e-06
-4.76353e-06
-4.78526e-06
-4.80695e-06
-4.82862e-06
-4.85023e-06
-4.87181e-06
-4.89337e-06
-4.91492e-06
-4.93643e-06
-4.9579e-06
-4.97934e-06
-5.00075e-06
-5.02217e-06
-5.04363e-06
-5.06507e-06
-5.08645e-06
-5.10778e-06
-5.1291e-06
-5.15043e-06
-5.17176e-06
-5.1931e-06
-5.21442e-06
-5.23575e-06
-5.25711e-06
-5.27847e-06
-5.29984e-06
-5.32118e-06
-5.34248e-06
-5.36379e-06
-5.38513e-06
-5.40647e-06
-5.42785e-06
-5.44931e-06
-5.47088e-06
-5.49257e-06
-5.51437e-06
-5.53566e-06
-5.55693e-06
-5.57823e-06
-5.59924e-06
-5.62002e-06
-5.64087e-06
-5.66178e-06
-5.68273e-06
-5.70368e-06
-5.72465e-06
-5.74557e-06
-5.76638e-06
-5.78704e-06
-5.80754e-06
-5.82831e-06
-5.84911e-06
-5.86984e-06
-5.89047e-06
-5.91112e-06
-5.93197e-06
-5.95279e-06
-5.97351e-06
-5.99413e-06
-6.01465e-06
-6.03506e-06
-6.05541e-06
-6.07569e-06
-6.09591e-06
-6.11609e-06
-6.1362e-06
-6.15604e-06
-6.17571e-06
-6.19521e-06
-6.21449e-06
-6.23343e-06
-6.2522e-06
-6.27087e-06
-6.28943e-06
-6.30787e-06
-6.32611e-06
-6.34413e-06
-6.36193e-06
-6.3794e-06
-6.39657e-06
-6.41333e-06
-6.42974e-06
-6.44582e-06
-6.46155e-06
-6.47691e-06
-6.49159e-06
-6.50539e-06
-6.51822e-06
-6.53017e-06
-6.5408e-06
-6.55002e-06
-6.55701e-06
-6.56265e-06
-6.56296e-06
-6.56493e-06
-6.55149e-06
-6.55381e-06
-6.5201e-06
-6.52558e-06
-6.49995e-06
-6.49787e-06
-6.5872e-06
-3.64648e-06
-1.31972e-06
-1.45058e-06
-2.15574e-06
-2.19291e-06
-2.33867e-06
-2.32442e-06
-2.23578e-06
-2.29823e-06
-2.36236e-06
-2.36803e-06
-2.40381e-06
-2.457e-06
-2.49961e-06
-2.54178e-06
-2.58441e-06
-2.62812e-06
-2.6753e-06
-2.72378e-06
-2.77572e-06
-2.82452e-06
-2.88395e-06
-2.93642e-06
-3.00279e-06
-3.06846e-06
-3.13168e-06
-3.21193e-06
-3.30443e-06
-3.30758e-06
-3.62069e-06
-3.25156e-06
-3.96326e-06
-3.37164e-06
-3.68415e-06
-4.05799e-06
-3.19114e-06
-2.83741e-06
-3.06661e-06
-3.12514e-06
-3.06418e-06
-3.06248e-06
-3.09863e-06
-3.13567e-06
-3.17168e-06
-3.20847e-06
-3.24487e-06
-3.28007e-06
-3.31394e-06
-3.34647e-06
-3.3777e-06
-3.40768e-06
-3.4365e-06
-3.46429e-06
-3.4911e-06
-3.51706e-06
-3.54226e-06
-3.56678e-06
-3.59068e-06
-3.61404e-06
-3.6369e-06
-3.65931e-06
-3.68132e-06
-3.70298e-06
-3.72432e-06
-3.74538e-06
-3.76618e-06
-3.78677e-06
-3.80716e-06
-3.82735e-06
-3.84737e-06
-3.86727e-06
-3.88703e-06
-3.90667e-06
-3.92623e-06
-3.9457e-06
-3.9651e-06
-3.98442e-06
-4.00367e-06
-4.02289e-06
-4.04206e-06
-4.06119e-06
-4.08029e-06
-4.09936e-06
-4.11839e-06
-4.13738e-06
-4.15635e-06
-4.1753e-06
-4.1942e-06
-4.21309e-06
-4.23197e-06
-4.25082e-06
-4.26966e-06
-4.2885e-06
-4.3073e-06
-4.32605e-06
-4.34479e-06
-4.36355e-06
-4.3823e-06
-4.40104e-06
-4.41976e-06
-4.43844e-06
-4.4571e-06
-4.47574e-06
-4.49436e-06
-4.51295e-06
-4.53151e-06
-4.55004e-06
-4.56859e-06
-4.58713e-06
-4.60562e-06
-4.62409e-06
-4.64252e-06
-4.66098e-06
-4.67953e-06
-4.69814e-06
-4.71679e-06
-4.73545e-06
-4.75378e-06
-4.77204e-06
-4.79027e-06
-4.80829e-06
-4.82614e-06
-4.84404e-06
-4.86198e-06
-4.87995e-06
-4.8979e-06
-4.91583e-06
-4.93372e-06
-4.95155e-06
-4.96924e-06
-4.98686e-06
-5.00468e-06
-5.02255e-06
-5.04038e-06
-5.05815e-06
-5.0759e-06
-5.09379e-06
-5.11168e-06
-5.12949e-06
-5.14723e-06
-5.1649e-06
-5.1825e-06
-5.20008e-06
-5.21758e-06
-5.235e-06
-5.25238e-06
-5.2697e-06
-5.28679e-06
-5.30375e-06
-5.32059e-06
-5.33729e-06
-5.35374e-06
-5.37006e-06
-5.38629e-06
-5.40239e-06
-5.41837e-06
-5.43414e-06
-5.4497e-06
-5.46506e-06
-5.48014e-06
-5.49499e-06
-5.50954e-06
-5.52384e-06
-5.53787e-06
-5.55168e-06
-5.56518e-06
-5.57816e-06
-5.59045e-06
-5.60211e-06
-5.61282e-06
-5.62216e-06
-5.63004e-06
-5.63573e-06
-5.64026e-06
-5.63881e-06
-5.64053e-06
-5.62283e-06
-5.62738e-06
-5.58282e-06
-5.59471e-06
-5.5531e-06
-5.5524e-06
-5.59786e-06
-2.96327e-06
-1.68155e-06
-1.89019e-06
-1.92865e-06
-2.03965e-06
-2.02829e-06
-2.00173e-06
-2.11721e-06
-2.18024e-06
-2.17934e-06
-2.2257e-06
-2.2834e-06
-2.32385e-06
-2.36497e-06
-2.40579e-06
-2.44756e-06
-2.49407e-06
-2.54215e-06
-2.59296e-06
-2.64234e-06
-2.69992e-06
-2.7543e-06
-2.81834e-06
-2.88345e-06
-2.94882e-06
-3.01845e-06
-3.12114e-06
-3.10927e-06
-3.40466e-06
-3.09329e-06
-3.6523e-06
-3.25099e-06
-3.38113e-06
-3.74163e-06
-3.11305e-06
-2.74313e-06
-2.90042e-06
-2.9723e-06
-2.92617e-06
-2.92051e-06
-2.95345e-06
-2.99043e-06
-3.02666e-06
-3.06367e-06
-3.10049e-06
-3.13623e-06
-3.17066e-06
-3.20378e-06
-3.23564e-06
-3.26631e-06
-3.29586e-06
-3.32442e-06
-3.35206e-06
-3.37887e-06
-3.40494e-06
-3.43035e-06
-3.45516e-06
-3.47946e-06
-3.5033e-06
-3.52672e-06
-3.54977e-06
-3.5725e-06
-3.59493e-06
-3.61709e-06
-3.63902e-06
-3.66074e-06
-3.68227e-06
-3.70364e-06
-3.72486e-06
-3.74594e-06
-3.7669e-06
-3.78774e-06
-3.80849e-06
-3.82915e-06
-3.84973e-06
-3.87024e-06
-3.89068e-06
-3.91107e-06
-3.93139e-06
-3.95166e-06
-3.97189e-06
-3.99207e-06
-4.01222e-06
-4.03235e-06
-4.05244e-06
-4.07251e-06
-4.09256e-06
-4.1126e-06
-4.13261e-06
-4.15261e-06
-4.17259e-06
-4.19256e-06
-4.21253e-06
-4.2325e-06
-4.25246e-06
-4.2724e-06
-4.29233e-06
-4.31225e-06
-4.3322e-06
-4.35214e-06
-4.3721e-06
-4.39205e-06
-4.41202e-06
-4.432e-06
-4.45199e-06
-4.47198e-06
-4.49197e-06
-4.51196e-06
-4.53195e-06
-4.55197e-06
-4.572e-06
-4.59207e-06
-4.6122e-06
-4.63242e-06
-4.65269e-06
-4.67297e-06
-4.69305e-06
-4.71305e-06
-4.73301e-06
-4.75281e-06
-4.7725e-06
-4.7922e-06
-4.81193e-06
-4.8317e-06
-4.85147e-06
-4.87125e-06
-4.89101e-06
-4.91072e-06
-4.93035e-06
-4.94994e-06
-4.96965e-06
-4.9894e-06
-5.00914e-06
-5.02885e-06
-5.04859e-06
-5.06843e-06
-5.08827e-06
-5.10806e-06
-5.12779e-06
-5.14747e-06
-5.16711e-06
-5.18671e-06
-5.20626e-06
-5.22573e-06
-5.24517e-06
-5.26454e-06
-5.28374e-06
-5.30281e-06
-5.32174e-06
-5.34051e-06
-5.35903e-06
-5.37742e-06
-5.39573e-06
-5.41391e-06
-5.43196e-06
-5.44984e-06
-5.46755e-06
-5.48508e-06
-5.50227e-06
-5.5193e-06
-5.53591e-06
-5.55229e-06
-5.56826e-06
-5.58386e-06
-5.5992e-06
-5.61382e-06
-5.62744e-06
-5.64016e-06
-5.65245e-06
-5.66347e-06
-5.67321e-06
-5.68045e-06
-5.68708e-06
-5.68595e-06
-5.69082e-06
-5.6687e-06
-5.68268e-06
-5.61829e-06
-5.65153e-06
-5.57253e-06
-5.58039e-06
-5.6458e-06
-2.46677e-06
-8.87196e-07
-1.86716e-06
-2.1554e-06
-1.80778e-06
-1.67466e-06
-1.82036e-06
-1.87028e-06
-1.84202e-06
-1.88601e-06
-1.93896e-06
-1.97448e-06
-2.01604e-06
-2.05633e-06
-2.09758e-06
-2.14484e-06
-2.19326e-06
-2.24342e-06
-2.29305e-06
-2.34902e-06
-2.404e-06
-2.46641e-06
-2.53027e-06
-2.59723e-06
-2.66064e-06
-2.76591e-06
-2.75442e-06
-3.01535e-06
-2.77704e-06
-3.20228e-06
-2.95459e-06
-2.9836e-06
-3.3069e-06
-2.86534e-06
-2.49856e-06
-2.58591e-06
-2.66078e-06
-2.6295e-06
-2.62064e-06
-2.64836e-06
-2.68324e-06
-2.71816e-06
-2.75404e-06
-2.79003e-06
-2.82517e-06
-2.85912e-06
-2.89181e-06
-2.92326e-06
-2.95351e-06
-2.98265e-06
-3.01076e-06
-3.03794e-06
-3.06427e-06
-3.08984e-06
-3.11472e-06
-3.13899e-06
-3.16271e-06
-3.18594e-06
-3.20872e-06
-3.2311e-06
-3.25312e-06
-3.27482e-06
-3.29623e-06
-3.31738e-06
-3.3383e-06
-3.35901e-06
-3.37952e-06
-3.39987e-06
-3.42006e-06
-3.44012e-06
-3.46005e-06
-3.47986e-06
-3.49958e-06
-3.5192e-06
-3.53873e-06
-3.55819e-06
-3.57759e-06
-3.59693e-06
-3.61622e-06
-3.63545e-06
-3.65464e-06
-3.67379e-06
-3.6929e-06
-3.71198e-06
-3.73104e-06
-3.75006e-06
-3.76906e-06
-3.78803e-06
-3.80698e-06
-3.8259e-06
-3.84482e-06
-3.86371e-06
-3.88258e-06
-3.90144e-06
-3.92029e-06
-3.93913e-06
-3.95794e-06
-3.97674e-06
-3.99552e-06
-4.01429e-06
-4.03303e-06
-4.05176e-06
-4.07048e-06
-4.08918e-06
-4.10786e-06
-4.12653e-06
-4.14518e-06
-4.16382e-06
-4.18244e-06
-4.20105e-06
-4.21968e-06
-4.23835e-06
-4.25705e-06
-4.27577e-06
-4.29444e-06
-4.31296e-06
-4.33138e-06
-4.34972e-06
-4.36793e-06
-4.38602e-06
-4.40409e-06
-4.42217e-06
-4.44025e-06
-4.45831e-06
-4.47634e-06
-4.49433e-06
-4.51225e-06
-4.53009e-06
-4.54789e-06
-4.56574e-06
-4.58362e-06
-4.60147e-06
-4.61928e-06
-4.63709e-06
-4.65492e-06
-4.67274e-06
-4.6905e-06
-4.70819e-06
-4.72579e-06
-4.74334e-06
-4.76084e-06
-4.77824e-06
-4.79549e-06
-4.81271e-06
-4.82982e-06
-4.84676e-06
-4.86354e-06
-4.88018e-06
-4.89666e-06
-4.91287e-06
-4.92896e-06
-4.94492e-06
-4.96077e-06
-4.97663e-06
-4.99206e-06
-5.00724e-06
-5.02236e-06
-5.03693e-06
-5.05157e-06
-5.06554e-06
-5.07953e-06
-5.093e-06
-5.10619e-06
-5.11929e-06
-5.13175e-06
-5.14316e-06
-5.15408e-06
-5.16433e-06
-5.1729e-06
-5.17972e-06
-5.18415e-06
-5.18836e-06
-5.18376e-06
-5.18881e-06
-5.15644e-06
-5.17967e-06
-5.0864e-06
-5.14855e-06
-5.0161e-06
-5.03966e-06
-5.08561e-06
-2.55588e-06
-7.27565e-07
-7.3703e-07
-1.51834e-06
-1.57626e-06
-1.44831e-06
-1.4944e-06
-1.51673e-06
-1.50703e-06
-1.58478e-06
-1.64545e-06
-1.67947e-06
-1.72149e-06
-1.75828e-06
-1.79642e-06
-1.84237e-06
-1.88898e-06
-1.93666e-06
-1.9847e-06
-2.03791e-06
-2.0918e-06
-2.15178e-06
-2.21332e-06
-2.27965e-06
-2.33865e-06
-2.44036e-06
-2.43639e-06
-2.65789e-06
-2.4901e-06
-2.80435e-06
-2.66967e-06
-2.64963e-06
-2.91024e-06
-2.60589e-06
-2.27834e-06
-2.3161e-06
-2.38547e-06
-2.36759e-06
-2.35913e-06
-2.38317e-06
-2.41645e-06
-2.45054e-06
-2.48561e-06
-2.52092e-06
-2.5555e-06
-2.58895e-06
-2.62118e-06
-2.65218e-06
-2.682e-06
-2.71072e-06
-2.73842e-06
-2.7652e-06
-2.79114e-06
-2.81632e-06
-2.84083e-06
-2.86474e-06
-2.8881e-06
-2.91098e-06
-2.93342e-06
-2.95547e-06
-2.97718e-06
-2.99856e-06
-3.01967e-06
-3.04052e-06
-3.06114e-06
-3.08157e-06
-3.1018e-06
-3.12187e-06
-3.1418e-06
-3.16158e-06
-3.18124e-06
-3.2008e-06
-3.22026e-06
-3.23964e-06
-3.25893e-06
-3.27816e-06
-3.29732e-06
-3.31643e-06
-3.33548e-06
-3.35449e-06
-3.37345e-06
-3.39238e-06
-3.41127e-06
-3.43013e-06
-3.44896e-06
-3.46777e-06
-3.48656e-06
-3.50533e-06
-3.52407e-06
-3.54281e-06
-3.56152e-06
-3.58023e-06
-3.59891e-06
-3.61759e-06
-3.63625e-06
-3.65491e-06
-3.67355e-06
-3.69218e-06
-3.71081e-06
-3.72943e-06
-3.74804e-06
-3.76664e-06
-3.78524e-06
-3.80384e-06
-3.82243e-06
-3.84101e-06
-3.85959e-06
-3.87815e-06
-3.89672e-06
-3.9153e-06
-3.9339e-06
-3.95253e-06
-3.9712e-06
-3.98989e-06
-4.00855e-06
-4.0271e-06
-4.04557e-06
-4.06396e-06
-4.08226e-06
-4.10048e-06
-4.11867e-06
-4.13687e-06
-4.15508e-06
-4.17328e-06
-4.19148e-06
-4.20964e-06
-4.22777e-06
-4.24585e-06
-4.26391e-06
-4.28203e-06
-4.30016e-06
-4.31829e-06
-4.33641e-06
-4.35454e-06
-4.3727e-06
-4.39087e-06
-4.409e-06
-4.42709e-06
-4.44512e-06
-4.46312e-06
-4.48112e-06
-4.49906e-06
-4.51683e-06
-4.5346e-06
-4.5523e-06
-4.56986e-06
-4.5873e-06
-4.6046e-06
-4.62188e-06
-4.6388e-06
-4.65561e-06
-4.6724e-06
-4.6888e-06
-4.70498e-06
-4.72137e-06
-4.73773e-06
-4.75349e-06
-4.76957e-06
-4.78494e-06
-4.80092e-06
-4.81572e-06
-4.83066e-06
-4.84573e-06
-4.8597e-06
-4.87379e-06
-4.88794e-06
-4.90074e-06
-4.91198e-06
-4.92243e-06
-4.9323e-06
-4.9391e-06
-4.94521e-06
-4.94015e-06
-4.9497e-06
-4.91238e-06
-4.95085e-06
-4.82442e-06
-4.92773e-06
-4.72619e-06
-4.78292e-06
-4.82952e-06
-2.56995e-06
-7.97863e-07
-1.14568e-06
-1.14982e-06
-1.16259e-06
-1.39135e-06
-1.33938e-06
-1.25787e-06
-1.31604e-06
-1.35729e-06
-1.38175e-06
-1.42312e-06
-1.4556e-06
-1.4917e-06
-1.53782e-06
-1.5835e-06
-1.62969e-06
-1.67685e-06
-1.72827e-06
-1.78153e-06
-1.83997e-06
-1.8999e-06
-1.9654e-06
-2.0223e-06
-2.11851e-06
-2.12542e-06
-2.3105e-06
-2.20271e-06
-2.43332e-06
-2.37368e-06
-2.33392e-06
-2.53239e-06
-2.33106e-06
-2.05153e-06
-2.05275e-06
-2.11214e-06
-2.10539e-06
-2.09925e-06
-2.12048e-06
-2.15206e-06
-2.18523e-06
-2.21944e-06
-2.25401e-06
-2.288e-06
-2.32096e-06
-2.35275e-06
-2.38335e-06
-2.41278e-06
-2.44113e-06
-2.46847e-06
-2.4949e-06
-2.52049e-06
-2.54533e-06
-2.5695e-06
-2.59306e-06
-2.61609e-06
-2.63863e-06
-2.66073e-06
-2.68244e-06
-2.7038e-06
-2.72485e-06
-2.74561e-06
-2.76612e-06
-2.78639e-06
-2.80646e-06
-2.82635e-06
-2.84607e-06
-2.86563e-06
-2.88506e-06
-2.90437e-06
-2.92356e-06
-2.94266e-06
-2.96167e-06
-2.9806e-06
-2.99946e-06
-3.01825e-06
-3.03698e-06
-3.05566e-06
-3.07429e-06
-3.09287e-06
-3.11142e-06
-3.12993e-06
-3.14841e-06
-3.16686e-06
-3.18528e-06
-3.20369e-06
-3.22207e-06
-3.24043e-06
-3.25876e-06
-3.27709e-06
-3.2954e-06
-3.31369e-06
-3.33197e-06
-3.35024e-06
-3.36849e-06
-3.38673e-06
-3.40497e-06
-3.4232e-06
-3.44142e-06
-3.45963e-06
-3.47783e-06
-3.49602e-06
-3.51421e-06
-3.53239e-06
-3.55056e-06
-3.56873e-06
-3.58689e-06
-3.60504e-06
-3.62321e-06
-3.64139e-06
-3.65959e-06
-3.67782e-06
-3.69606e-06
-3.71426e-06
-3.73237e-06
-3.7504e-06
-3.76836e-06
-3.78624e-06
-3.80404e-06
-3.82181e-06
-3.83957e-06
-3.85734e-06
-3.87509e-06
-3.89282e-06
-3.91052e-06
-3.92819e-06
-3.94581e-06
-3.96341e-06
-3.98104e-06
-3.99867e-06
-4.01629e-06
-4.03391e-06
-4.05152e-06
-4.06914e-06
-4.08675e-06
-4.1043e-06
-4.12182e-06
-4.13922e-06
-4.15652e-06
-4.17366e-06
-4.19082e-06
-4.20822e-06
-4.22543e-06
-4.24247e-06
-4.25941e-06
-4.27616e-06
-4.29277e-06
-4.30902e-06
-4.32541e-06
-4.34155e-06
-4.3573e-06
-4.37294e-06
-4.38809e-06
-4.4035e-06
-4.41866e-06
-4.43344e-06
-4.44845e-06
-4.46258e-06
-4.47691e-06
-4.49063e-06
-4.50447e-06
-4.51757e-06
-4.52964e-06
-4.54136e-06
-4.55328e-06
-4.56403e-06
-4.57281e-06
-4.58122e-06
-4.58966e-06
-4.59449e-06
-4.60025e-06
-4.59345e-06
-4.60503e-06
-4.5555e-06
-4.61213e-06
-4.44064e-06
-4.60195e-06
-4.29899e-06
-4.41416e-06
-4.42938e-06
-1.66273e-06
-8.15373e-08
-1.12352e-06
-9.35485e-07
-8.53471e-07
-8.92838e-07
-9.11605e-07
-9.96036e-07
-1.02504e-06
-1.05755e-06
-1.1113e-06
-1.14406e-06
-1.18132e-06
-1.22936e-06
-1.27434e-06
-1.31922e-06
-1.36537e-06
-1.4151e-06
-1.46757e-06
-1.52466e-06
-1.5831e-06
-1.64728e-06
-1.70319e-06
-1.79298e-06
-1.81097e-06
-1.9646e-06
-1.90412e-06
-2.07359e-06
-2.06125e-06
-2.02143e-06
-2.16876e-06
-2.03965e-06
-1.80919e-06
-1.7864e-06
-1.83486e-06
-1.83707e-06
-1.8345e-06
-1.85399e-06
-1.88411e-06
-1.91649e-06
-1.94995e-06
-1.98383e-06
-2.01724e-06
-2.0497e-06
-2.08103e-06
-2.11121e-06
-2.14024e-06
-2.1682e-06
-2.19516e-06
-2.22122e-06
-2.24645e-06
-2.27093e-06
-2.29474e-06
-2.31795e-06
-2.34062e-06
-2.36281e-06
-2.38456e-06
-2.40591e-06
-2.42692e-06
-2.44761e-06
-2.46801e-06
-2.48816e-06
-2.50807e-06
-2.52778e-06
-2.54729e-06
-2.56664e-06
-2.58584e-06
-2.60489e-06
-2.62382e-06
-2.64264e-06
-2.66136e-06
-2.67999e-06
-2.69854e-06
-2.71701e-06
-2.73541e-06
-2.75376e-06
-2.77204e-06
-2.79028e-06
-2.80847e-06
-2.82662e-06
-2.84474e-06
-2.86282e-06
-2.88088e-06
-2.8989e-06
-2.9169e-06
-2.93488e-06
-2.95284e-06
-2.97077e-06
-2.98869e-06
-3.00659e-06
-3.02448e-06
-3.04236e-06
-3.06022e-06
-3.07807e-06
-3.0959e-06
-3.11373e-06
-3.13155e-06
-3.14936e-06
-3.16715e-06
-3.18494e-06
-3.20272e-06
-3.2205e-06
-3.23826e-06
-3.25602e-06
-3.27377e-06
-3.29151e-06
-3.30925e-06
-3.327e-06
-3.34476e-06
-3.36253e-06
-3.38032e-06
-3.39811e-06
-3.41587e-06
-3.43354e-06
-3.45115e-06
-3.46869e-06
-3.48615e-06
-3.50354e-06
-3.52091e-06
-3.53825e-06
-3.55559e-06
-3.57292e-06
-3.59022e-06
-3.60749e-06
-3.62473e-06
-3.64192e-06
-3.65911e-06
-3.67629e-06
-3.69351e-06
-3.71071e-06
-3.72789e-06
-3.74508e-06
-3.76225e-06
-3.77941e-06
-3.79653e-06
-3.81356e-06
-3.83055e-06
-3.84743e-06
-3.86413e-06
-3.88086e-06
-3.89783e-06
-3.91461e-06
-3.93122e-06
-3.94774e-06
-3.9641e-06
-3.98032e-06
-3.99614e-06
-4.01223e-06
-4.02808e-06
-4.04354e-06
-4.05919e-06
-4.0747e-06
-4.08983e-06
-4.1046e-06
-4.1196e-06
-4.13405e-06
-4.14847e-06
-4.162e-06
-4.17618e-06
-4.18989e-06
-4.20274e-06
-4.21566e-06
-4.2278e-06
-4.23951e-06
-4.25128e-06
-4.26164e-06
-4.27058e-06
-4.27825e-06
-4.28307e-06
-4.29015e-06
-4.2838e-06
-4.29967e-06
-4.2391e-06
-4.31695e-06
-4.0966e-06
-4.33081e-06
-3.89742e-06
-4.0994e-06
-4.06017e-06
-1.89533e-06
-1.59155e-08
1.16543e-08
-9.9518e-07
-1.02976e-06
-6.48167e-07
-5.95308e-07
-7.75104e-07
-7.89583e-07
-7.95173e-07
-8.30576e-07
-8.43781e-07
-8.74807e-07
-9.21942e-07
-9.64612e-07
-1.00781e-06
-1.05263e-06
-1.10058e-06
-1.1521e-06
-1.20785e-06
-1.26482e-06
-1.32728e-06
-1.38268e-06
-1.46598e-06
-1.49381e-06
-1.62174e-06
-1.59694e-06
-1.72412e-06
-1.74133e-06
-1.71126e-06
-1.81896e-06
-1.73877e-06
-1.55503e-06
-1.51991e-06
-1.55782e-06
-1.56643e-06
-1.56788e-06
-1.58652e-06
-1.61546e-06
-1.64712e-06
-1.67989e-06
-1.7131e-06
-1.74591e-06
-1.77783e-06
-1.80867e-06
-1.83838e-06
-1.86697e-06
-1.89451e-06
-1.92106e-06
-1.94672e-06
-1.97156e-06
-1.99566e-06
-2.01909e-06
-2.04193e-06
-2.06423e-06
-2.08605e-06
-2.10744e-06
-2.12843e-06
-2.14908e-06
-2.1694e-06
-2.18944e-06
-2.20922e-06
-2.22877e-06
-2.24811e-06
-2.26726e-06
-2.28625e-06
-2.30507e-06
-2.32376e-06
-2.34232e-06
-2.36076e-06
-2.37911e-06
-2.39736e-06
-2.41552e-06
-2.43362e-06
-2.45164e-06
-2.4696e-06
-2.48751e-06
-2.50537e-06
-2.52318e-06
-2.54094e-06
-2.55867e-06
-2.57637e-06
-2.59404e-06
-2.61168e-06
-2.62929e-06
-2.64688e-06
-2.66445e-06
-2.682e-06
-2.69953e-06
-2.71704e-06
-2.73454e-06
-2.75202e-06
-2.7695e-06
-2.78696e-06
-2.8044e-06
-2.82184e-06
-2.83927e-06
-2.85669e-06
-2.87409e-06
-2.89149e-06
-2.90888e-06
-2.92627e-06
-2.94364e-06
-2.96101e-06
-2.97837e-06
-2.99572e-06
-3.01308e-06
-3.03043e-06
-3.0478e-06
-3.06517e-06
-3.08256e-06
-3.09994e-06
-3.11728e-06
-3.13457e-06
-3.15178e-06
-3.16893e-06
-3.18602e-06
-3.20304e-06
-3.22003e-06
-3.23701e-06
-3.25397e-06
-3.27091e-06
-3.28783e-06
-3.30473e-06
-3.32159e-06
-3.33842e-06
-3.35524e-06
-3.37205e-06
-3.38888e-06
-3.40571e-06
-3.42252e-06
-3.43932e-06
-3.45612e-06
-3.4729e-06
-3.48965e-06
-3.50631e-06
-3.52301e-06
-3.53959e-06
-3.55616e-06
-3.57268e-06
-3.58902e-06
-3.60531e-06
-3.62154e-06
-3.63763e-06
-3.6536e-06
-3.66942e-06
-3.68521e-06
-3.7007e-06
-3.71607e-06
-3.7314e-06
-3.74652e-06
-3.76155e-06
-3.77633e-06
-3.79098e-06
-3.80543e-06
-3.81955e-06
-3.83358e-06
-3.84734e-06
-3.86081e-06
-3.87385e-06
-3.88671e-06
-3.89929e-06
-3.91143e-06
-3.92282e-06
-3.93341e-06
-3.94369e-06
-3.9527e-06
-3.96068e-06
-3.96586e-06
-3.97296e-06
-3.96429e-06
-3.98386e-06
-3.91561e-06
-4.01532e-06
-3.74139e-06
-4.06106e-06
-3.46201e-06
-3.81427e-06
-3.65833e-06
-1.78056e-06
2.21868e-07
2.18207e-07
-4.71345e-07
-4.63058e-07
-3.74391e-07
-3.69201e-07
-3.63302e-07
-4.48097e-07
-5.21043e-07
-5.3196e-07
-5.6533e-07
-6.14286e-07
-6.54696e-07
-6.96458e-07
-7.39805e-07
-7.85884e-07
-8.36461e-07
-8.9093e-07
-9.46442e-07
-1.00701e-06
-1.06207e-06
-1.13944e-06
-1.17537e-06
-1.28337e-06
-1.28482e-06
-1.38405e-06
-1.41875e-06
-1.40148e-06
-1.48039e-06
-1.43346e-06
-1.2918e-06
-1.25287e-06
-1.28199e-06
-1.29512e-06
-1.30075e-06
-1.31935e-06
-1.34739e-06
-1.37843e-06
-1.41058e-06
-1.44313e-06
-1.47532e-06
-1.50667e-06
-1.53698e-06
-1.56619e-06
-1.59432e-06
-1.6214e-06
-1.64752e-06
-1.67276e-06
-1.69719e-06
-1.72089e-06
-1.74394e-06
-1.76639e-06
-1.78831e-06
-1.80976e-06
-1.83077e-06
-1.8514e-06
-1.87168e-06
-1.89163e-06
-1.91131e-06
-1.93072e-06
-1.9499e-06
-1.96888e-06
-1.98766e-06
-2.00627e-06
-2.02473e-06
-2.04305e-06
-2.06123e-06
-2.07931e-06
-2.09728e-06
-2.11515e-06
-2.13295e-06
-2.15066e-06
-2.16831e-06
-2.1859e-06
-2.20342e-06
-2.2209e-06
-2.23833e-06
-2.25572e-06
-2.27307e-06
-2.29038e-06
-2.30767e-06
-2.32492e-06
-2.34215e-06
-2.35936e-06
-2.37654e-06
-2.39371e-06
-2.41086e-06
-2.42799e-06
-2.4451e-06
-2.4622e-06
-2.47929e-06
-2.49636e-06
-2.51342e-06
-2.53048e-06
-2.54752e-06
-2.56455e-06
-2.58157e-06
-2.59859e-06
-2.61559e-06
-2.63259e-06
-2.64958e-06
-2.66656e-06
-2.68354e-06
-2.70051e-06
-2.71748e-06
-2.73445e-06
-2.75143e-06
-2.76841e-06
-2.7854e-06
-2.80238e-06
-2.81933e-06
-2.83622e-06
-2.85305e-06
-2.86982e-06
-2.88653e-06
-2.90319e-06
-2.91981e-06
-2.93642e-06
-2.953e-06
-2.96957e-06
-2.98612e-06
-3.00264e-06
-3.01914e-06
-3.03561e-06
-3.05206e-06
-3.06852e-06
-3.08496e-06
-3.1014e-06
-3.11783e-06
-3.13426e-06
-3.15067e-06
-3.16706e-06
-3.18342e-06
-3.19975e-06
-3.21603e-06
-3.23224e-06
-3.24842e-06
-3.26453e-06
-3.28049e-06
-3.29641e-06
-3.31225e-06
-3.32796e-06
-3.34356e-06
-3.35903e-06
-3.37441e-06
-3.38955e-06
-3.40459e-06
-3.41953e-06
-3.43429e-06
-3.44893e-06
-3.46338e-06
-3.47766e-06
-3.49174e-06
-3.50556e-06
-3.51923e-06
-3.53266e-06
-3.54575e-06
-3.55854e-06
-3.5711e-06
-3.58336e-06
-3.59517e-06
-3.60634e-06
-3.61679e-06
-3.62685e-06
-3.63581e-06
-3.64384e-06
-3.64919e-06
-3.65639e-06
-3.64808e-06
-3.67009e-06
-3.59582e-06
-3.71576e-06
-3.38845e-06
-3.80723e-06
-3.01472e-06
-3.50942e-06
-3.16669e-06
-1.29959e-06
3.19223e-07
-1.11762e-07
-6.05145e-09
-1.06341e-07
-3.21358e-07
-2.0097e-07
-1.57621e-07
-1.97947e-07
-2.03879e-07
-2.48056e-07
-3.03112e-07
-3.42832e-07
-3.84461e-07
-4.26474e-07
-4.7073e-07
-5.20512e-07
-5.73763e-07
-6.27832e-07
-6.86476e-07
-7.412e-07
-8.1345e-07
-8.55713e-07
-9.4885e-07
-9.69047e-07
-1.05038e-06
-1.09479e-06
-1.09062e-06
-1.15034e-06
-1.12633e-06
-1.02094e-06
-9.84047e-07
-1.00677e-06
-1.02321e-06
-1.03293e-06
-1.05212e-06
-1.07961e-06
-1.11013e-06
-1.14172e-06
-1.17365e-06
-1.20522e-06
-1.23599e-06
-1.26575e-06
-1.29444e-06
-1.32206e-06
-1.34867e-06
-1.37434e-06
-1.39913e-06
-1.42314e-06
-1.44643e-06
-1.46907e-06
-1.49113e-06
-1.51267e-06
-1.53373e-06
-1.55436e-06
-1.57461e-06
-1.59451e-06
-1.6141e-06
-1.6334e-06
-1.65244e-06
-1.67125e-06
-1.68986e-06
-1.70827e-06
-1.72651e-06
-1.74459e-06
-1.76253e-06
-1.78035e-06
-1.79805e-06
-1.81564e-06
-1.83314e-06
-1.85056e-06
-1.86789e-06
-1.88516e-06
-1.90237e-06
-1.91952e-06
-1.93661e-06
-1.95366e-06
-1.97066e-06
-1.98763e-06
-2.00456e-06
-2.02147e-06
-2.03834e-06
-2.05518e-06
-2.07201e-06
-2.0888e-06
-2.10558e-06
-2.12235e-06
-2.13909e-06
-2.15582e-06
-2.17253e-06
-2.18923e-06
-2.20592e-06
-2.2226e-06
-2.23926e-06
-2.25592e-06
-2.27257e-06
-2.2892e-06
-2.30583e-06
-2.32245e-06
-2.33906e-06
-2.35566e-06
-2.37226e-06
-2.38885e-06
-2.40543e-06
-2.42201e-06
-2.4386e-06
-2.45518e-06
-2.47178e-06
-2.48837e-06
-2.50494e-06
-2.52149e-06
-2.53799e-06
-2.55443e-06
-2.57082e-06
-2.58715e-06
-2.60344e-06
-2.61969e-06
-2.63592e-06
-2.65213e-06
-2.66832e-06
-2.68449e-06
-2.70063e-06
-2.71676e-06
-2.73285e-06
-2.74893e-06
-2.76501e-06
-2.78107e-06
-2.79713e-06
-2.81318e-06
-2.82922e-06
-2.84525e-06
-2.86125e-06
-2.87722e-06
-2.89316e-06
-2.90902e-06
-2.92486e-06
-2.94066e-06
-2.95636e-06
-2.97196e-06
-2.98749e-06
-3.00295e-06
-3.01828e-06
-3.0335e-06
-3.0486e-06
-3.06359e-06
-3.07838e-06
-3.09306e-06
-3.10762e-06
-3.12202e-06
-3.1363e-06
-3.15039e-06
-3.1643e-06
-3.17802e-06
-3.19152e-06
-3.20483e-06
-3.2179e-06
-3.23069e-06
-3.24319e-06
-3.25544e-06
-3.26737e-06
-3.2789e-06
-3.28981e-06
-3.3002e-06
-3.31006e-06
-3.31902e-06
-3.32699e-06
-3.33281e-06
-3.33981e-06
-3.33334e-06
-3.35488e-06
-3.2821e-06
-3.41044e-06
-3.05228e-06
-3.54824e-06
-2.54651e-06
-3.34363e-06
-2.5563e-06
-6.335e-07
8.95587e-07
8.21817e-08
1.33471e-07
2.46113e-07
2.60598e-07
8.89624e-08
3.71352e-08
7.5007e-08
4.07963e-08
-6.18082e-09
-3.71491e-08
-7.52738e-08
-1.13706e-07
-1.55305e-07
-2.04263e-07
-2.56237e-07
-3.08815e-07
-3.65546e-07
-4.1982e-07
-4.87813e-07
-5.34797e-07
-6.17133e-07
-6.50372e-07
-7.20723e-07
-7.70468e-07
-7.78475e-07
-8.26586e-07
-8.18791e-07
-7.43941e-07
-7.12922e-07
-7.31774e-07
-7.508e-07
-7.64374e-07
-7.84644e-07
-8.11906e-07
-8.4204e-07
-8.73141e-07
-9.04469e-07
-9.35428e-07
-9.65599e-07
-9.94786e-07
-1.02293e-06
-1.05003e-06
-1.07614e-06
-1.10133e-06
-1.12567e-06
-1.14923e-06
-1.17209e-06
-1.19432e-06
-1.21597e-06
-1.2371e-06
-1.25777e-06
-1.27802e-06
-1.29788e-06
-1.3174e-06
-1.33661e-06
-1.35553e-06
-1.3742e-06
-1.39263e-06
-1.41086e-06
-1.4289e-06
-1.44676e-06
-1.46447e-06
-1.48204e-06
-1.49947e-06
-1.51679e-06
-1.53401e-06
-1.55113e-06
-1.56817e-06
-1.58512e-06
-1.60201e-06
-1.61884e-06
-1.6356e-06
-1.65231e-06
-1.66898e-06
-1.6856e-06
-1.70219e-06
-1.71873e-06
-1.73525e-06
-1.75174e-06
-1.7682e-06
-1.78463e-06
-1.80105e-06
-1.81744e-06
-1.83381e-06
-1.85017e-06
-1.86651e-06