/*--------------------------------*- C++ -*----------------------------------*\
| =========                 |                                                 |
| \\      /  F ield         | OpenFOAM: The Open Source CFD Toolbox           |
|  \\    /   O peration     | Version:  2512                                  |
|   \\  /    A nd           | Website:  www.openfoam.com                      |
|    \\/     M anipulation  |                                                 |
\*---------------------------------------------------------------------------*/
FoamFile
{
    version     2.0;
    format      ascii;
    arch        "LSB;label=32;scalar=64";
    class       volScalarField;
    location    "0.1";
    object      Uz;
}
// * * * * * * * * * * * * * * * * * * * * * * * * * * * * * * * * * * * * * //

dimensions      [0 1 -1 0 0 0 0];

internalField   nonuniform List<scalar> 
8334
(
-5.79856e-20
1.28411e-18
-5.40261e-19
2.17191e-18
-5.22318e-20
1.31043e-18
-5.40513e-19
2.18318e-18
-6.53761e-20
1.27467e-18
-5.35689e-19
2.20754e-18
-4.28783e-20
1.23534e-18
-3.8013e-19
1.98158e-18
1.79728e-19
1.0935e-18
-3.66654e-19
1.66915e-18
5.50635e-19
2.06873e-18
3.21107e-19
1.76942e-18
4.62714e-19
1.9021e-18
2.1884e-19
1.75463e-18
4.20949e-19
1.87058e-18
1.97591e-19
1.6943e-18
4.23391e-19
1.88931e-18
2.28746e-19
1.68633e-18
4.3271e-19
1.88161e-18
1.82077e-19
1.68335e-18
3.99303e-19
1.89678e-18
1.9123e-19
1.71163e-18
4.16931e-19
1.86841e-18
2.17553e-19
1.72852e-18
4.57602e-19
1.8764e-18
2.10077e-19
1.73283e-18
4.15115e-19
1.91958e-18
1.79167e-19
1.69754e-18
3.74528e-19
1.89387e-18
2.43366e-19
1.68066e-18
4.60042e-19
1.939e-18
2.54092e-19
1.71997e-18
4.34054e-19
1.86178e-18
1.97734e-19
1.70794e-18
4.3373e-19
1.84725e-18
1.47564e-19
1.69201e-18
4.23911e-19
1.90894e-18
1.66852e-19
1.81762e-18
1.45957e-19
2.30022e-18
-4.0898e-19
2.46288e-18
-1.50713e-18
7.95008e-18
-1.18865e-17
1.42566e-17
-1.72756e-17
1.23477e-17
-2.58032e-17
1.3436e-18
-1.2631e-17
2.58011e-18
-1.38603e-17
1.33174e-17
-1.75035e-17
1.19102e-17
-2.62593e-17
1.40108e-18
-1.22769e-17
1.87515e-18
-1.22782e-17
8.32329e-18
-7.70296e-18
-2.47771e-18
-1.0601e-17
-1.1036e-17
-1.18772e-17
-4.02599e-18
-9.02369e-18
4.66199e-18
-6.70725e-18
1.47879e-17
5.64607e-18
1.16339e-18
-4.47257e-18
-2.99199e-19
-7.48713e-18
5.12067e-18
-6.25919e-18
1.40251e-17
5.73857e-18
1.49468e-18
-4.66468e-18
1.9468e-18
-1.2942e-17
1.45355e-17
-1.76284e-17
5.0113e-18
-9.7943e-18
-1.9944e-18
-1.36115e-17
1.17298e-17
-1.85597e-17
6.34854e-18
-2.69544e-17
-5.27942e-19
-1.3022e-17
-3.23017e-18
-1.40721e-17
1.13194e-17
-1.7792e-17
4.13953e-18
-2.34417e-17
-5.53043e-18
-6.60169e-18
8.79971e-19
-9.9432e-19
1.33843e-17
-7.6948e-18
1.39942e-17
5.12602e-18
5.26405e-18
-3.13991e-18
-1.19615e-18
-4.0633e-18
1.1206e-17
-8.68722e-18
1.35588e-17
5.00944e-18
4.87681e-18
-3.56942e-18
-1.19171e-18
-4.40865e-18
1.20754e-17
-1.05783e-17
1.66114e-17
7.13051e-19
1.02764e-17
-1.02109e-17
1.51378e-17
-1.69426e-17
1.25634e-17
-2.73802e-17
7.48599e-19
-1.16958e-17
2.74824e-18
-1.39325e-17
1.34532e-17
-1.73732e-17
1.24923e-17
-2.6903e-17
4.38844e-19
-1.01749e-17
-9.56028e-19
-7.42399e-18
3.70268e-18
-4.13411e-18
4.93736e-18
-2.80211e-19
5.75191e-18
3.72452e-20
4.96685e-18
-3.23724e-19
5.77214e-18
2.86352e-21
4.853e-18
-3.19687e-19
5.83117e-18
8.73912e-20
4.68095e-18
2.56546e-19
4.78417e-18
1.50052e-18
3.48767e-18
3.70536e-19
5.10269e-18
3.46077e-18
5.89889e-18
1.44349e-18
4.7894e-18
2.94871e-18
5.4005e-18
1.19263e-18
4.76599e-18
2.83624e-18
5.3708e-18
1.12146e-18
4.66255e-18
2.91137e-18
5.29123e-18
1.17546e-18
4.57588e-18
2.92689e-18
5.30952e-18
1.01914e-18
4.6399e-18
2.84236e-18
5.29102e-18
1.01406e-18
4.66368e-18
2.88183e-18
5.29125e-18
1.16812e-18
4.67186e-18
2.98043e-18
5.30676e-18
1.08387e-18
4.7469e-18
2.83491e-18
5.37187e-18
1.0309e-18
4.6561e-18
2.75365e-18
5.33625e-18
1.17007e-18
4.59069e-18
3.03216e-18
5.43776e-18
1.20713e-18
4.72989e-18
2.91842e-18
5.28678e-18
1.06374e-18
4.68422e-18
2.97172e-18
5.20536e-18
9.26331e-19
4.60841e-18
2.93854e-18
5.27514e-18
1.05776e-18
4.69299e-18
2.78265e-18
5.29188e-18
1.0984e-18
4.10973e-18
3.80787e-18
5.55757e-18
-1.93898e-18
5.19935e-18
-1.65548e-18
8.23854e-18
-2.5888e-18
-2.08046e-18
-2.92664e-19
4.33745e-18
-1.77584e-18
5.29743e-18
-1.37057e-18
8.11347e-18
-2.78347e-18
-1.86951e-18
3.78251e-20
3.99523e-18
-1.19055e-18
2.87428e-18
2.86131e-18
2.11181e-18
2.38135e-18
-3.13851e-18
-1.55295e-18
6.74255e-19
-6.05717e-20
3.13331e-18
7.84279e-19
5.08543e-18
8.48192e-18
3.06789e-18
2.80166e-18
2.85132e-18
8.62508e-19
3.4275e-18
1.00942e-18
5.04466e-18
8.66344e-18
3.30346e-18
2.465e-18
4.47466e-18
-1.99387e-18
6.73626e-18
1.68459e-19
2.55447e-18
2.23358e-18
1.18105e-18
-2.4775e-18
6.98129e-18
-1.06775e-18
4.53847e-18
-3.81401e-18
-3.71552e-19
4.26173e-19
5.04256e-19
-2.65745e-18
6.61266e-18
-3.90033e-19
2.98984e-18
-1.89217e-18
-2.27576e-18
6.72799e-19
9.65619e-19
2.75914e-18
9.0117e-18
1.70919e-18
2.96744e-18
7.76463e-18
6.13904e-18
3.95551e-18
2.97959e-19
1.0828e-18
7.78139e-18
1.11499e-18
2.64434e-18
7.74611e-18
6.0584e-18
3.80004e-18
3.17716e-19
9.87488e-19
8.12287e-18
4.47346e-19
3.8059e-18
6.17223e-18
8.39347e-18
6.57122e-20
6.32046e-18
-1.04703e-18
8.41145e-18
-3.39228e-18
-2.27603e-18
3.93745e-19
4.46555e-18
-1.91162e-18
5.29907e-18
-1.17177e-18
8.43387e-18
-3.2675e-18
-2.3635e-18
1.01707e-18
3.23503e-18
-1.6252e-19
3.21646e-18
1.66126e-18
1.85132e-17
1.11568e-19
1.35705e-17
-2.09858e-18
1.85433e-17
1.72766e-20
1.35865e-17
-2.16408e-18
1.82165e-17
-4.04432e-20
1.36684e-17
-1.93778e-18
1.75492e-17
1.82283e-18
9.75847e-18
4.39449e-18
1.03459e-17
5.14968e-18
1.53729e-17
1.1171e-17
1.38653e-17
4.29029e-18
1.23949e-17
8.59835e-18
1.21373e-17
3.57523e-18
1.21188e-17
8.26209e-18
1.2265e-17
3.41285e-18
1.21172e-17
8.68322e-18
1.15751e-17
3.36446e-18
1.17951e-17
8.52974e-18
1.17336e-17
3.03608e-18
1.22177e-17
8.56388e-18
1.15811e-17
2.98538e-18
1.19966e-17
8.53482e-18
1.18821e-17
3.43055e-18
1.20199e-17
8.68826e-18
1.20991e-17
3.17105e-18
1.25903e-17
8.46328e-18
1.16432e-17
3.08871e-18
1.20753e-17
8.32188e-18
1.18674e-17
3.43161e-18
1.16439e-17
8.8446e-18
1.21725e-17
3.40463e-18
1.23025e-17
8.59559e-18
1.19384e-17
3.22007e-18
1.23955e-17
8.85066e-18
1.16348e-17
2.8998e-18
1.18001e-17
8.66751e-18
1.14002e-17
3.15858e-18
1.20733e-17
7.94347e-18
1.30126e-17
5.47727e-19
1.48249e-17
8.00084e-18
5.39737e-18
6.24246e-18
2.29623e-18
9.48167e-18
1.01746e-17
1.00793e-17
1.59367e-18
1.02769e-17
9.32304e-18
9.71266e-18
4.15645e-18
1.06479e-17
1.06725e-17
9.25729e-18
1.78056e-18
1.07624e-17
9.31504e-18
9.10853e-18
3.01231e-18
1.14771e-17
8.46801e-18
1.15857e-17
2.00485e-18
1.00281e-17
8.00314e-18
9.87103e-18
3.65829e-18
1.13109e-17
8.62434e-18
1.26251e-17
4.18101e-18
1.17577e-17
8.64677e-18
1.01628e-17
3.87871e-18
1.14261e-17
8.62113e-18
1.27555e-17
4.11555e-18
1.19868e-17
9.56546e-18
8.96157e-18
4.52207e-18
1.11306e-17
8.49885e-18
1.09421e-17
3.22301e-18
9.89423e-18
9.7085e-18
9.96852e-18
4.65097e-18
1.01059e-17
7.37367e-18
9.80816e-18
3.00719e-18
9.80633e-18
9.37804e-18
1.03557e-17
3.7767e-18
1.0971e-17
6.86321e-18
9.68029e-18
2.85824e-18
1.17331e-17
1.09096e-17
1.0494e-17
3.02946e-18
1.3369e-17
1.00082e-17
1.11202e-17
2.75845e-18
1.09228e-17
1.03932e-17
1.02768e-17
2.6706e-18
1.3655e-17
1.01358e-17
1.11198e-17
2.69145e-18
1.10546e-17
1.03344e-17
1.01625e-17
3.18879e-18
1.32994e-17
1.10687e-17
9.89862e-18
4.52662e-18
1.09711e-17
1.04376e-17
9.35648e-18
1.32094e-18
1.1177e-17
9.53045e-18
9.1047e-18
3.96902e-18
1.08928e-17
1.06971e-17
9.36155e-18
1.33963e-18
1.1815e-17
8.91735e-18
9.67913e-18
4.85541e-18
6.84507e-18
-1.16979e-17
2.21701e-17
-1.0142e-19
1.71444e-17
-1.16212e-17
2.20853e-17
-1.01746e-19
1.69467e-17
-1.17618e-17
2.20063e-17
1.36097e-19
1.5309e-17
-7.66721e-18
1.25726e-17
1.8106e-17
-1.15547e-17
2.50271e-17
-7.40766e-18
2.41707e-17
-2.27684e-17
1.25355e-17
-1.90569e-17
1.64639e-17
-2.70808e-17
1.06103e-17
-1.93628e-17
1.6032e-17
-2.72801e-17
1.08963e-17
-1.93457e-17
1.58888e-17
-2.72407e-17
1.09296e-17
-1.9809e-17
1.60448e-17
-2.70879e-17
1.04386e-17
-1.94062e-17
1.58808e-17
-2.71736e-17
1.03726e-17
-2.00286e-17
1.60811e-17
-2.73742e-17
1.05572e-17
-1.95167e-17
1.67839e-17
-2.72276e-17
1.03072e-17
-1.92323e-17
1.61631e-17
-2.7039e-17
9.72754e-18
-1.92743e-17
1.62339e-17
-2.70308e-17
1.07918e-17
-1.96197e-17
1.67656e-17
-2.67657e-17
1.06023e-17
-1.93651e-17
1.63967e-17
-2.71887e-17
1.06571e-17
-1.90933e-17
1.66544e-17
-2.76959e-17
1e-17
-1.95955e-17
1.62312e-17
-2.7163e-17
1.02603e-17
-1.81472e-17
1.41147e-17
-2.13372e-17
-2.33764e-18
3.18478e-18
-1.6711e-17
1.45242e-17
-3.03969e-17
9.13736e-18
-2.04658e-17
1.6808e-17
-2.79147e-17
9.84096e-18
-1.97787e-17
1.69642e-17
-2.81057e-17
1.09936e-17
-1.96946e-17
1.71084e-17
-2.85547e-17
1.04789e-17
-1.94184e-17
1.66968e-17
-2.85966e-17
1.0146e-17
-1.96899e-17
1.63502e-17
-2.71216e-17
9.92202e-18
-1.97921e-17
1.64135e-17
-2.84753e-17
1.03076e-17
-1.90205e-17
1.63384e-17
-2.76083e-17
1.06823e-17
-1.86643e-17
1.64992e-17
-2.79276e-17
1.02304e-17
-1.90227e-17
1.60953e-17
-2.70622e-17
1.09483e-17
-1.89322e-17
1.6897e-17
-2.86997e-17
1.00882e-17
-1.89812e-17
1.64962e-17
-2.7886e-17
1.0095e-17
-1.93566e-17
1.66596e-17
-2.77536e-17
1.08155e-17
-1.93853e-17
1.63522e-17
-2.837e-17
9.856e-18
-1.95579e-17
1.6702e-17
-2.80724e-17
1.00255e-17
-1.90301e-17
1.60574e-17
-2.81641e-17
1.00784e-17
-1.9201e-17
1.71404e-17
-2.78092e-17
9.7638e-18
-1.86757e-17
1.6781e-17
-2.81545e-17
1.01807e-17
-1.90552e-17
1.71713e-17
-2.84718e-17
9.59051e-18
-1.84676e-17
1.70468e-17
-2.79028e-17
9.82593e-18
-1.9512e-17
1.69934e-17
-2.84585e-17
1.00814e-17
-1.86586e-17
1.73767e-17
-2.84401e-17
1.05237e-17
-1.93535e-17
1.69445e-17
-2.89536e-17
9.22507e-18
-1.88753e-17
1.68287e-17
-2.85596e-17
1.03395e-17
-1.85044e-17
1.75328e-17
-2.81468e-17
9.25883e-18
-1.70122e-17
1.26225e-17
-1.99017e-17
-2.1506e-18
-3.42294e-18
2.1773e-17
1.32373e-17
2.09121e-17
-3.49977e-18
2.15457e-17
1.30752e-17
2.10241e-17
-3.78438e-18
2.12502e-17
1.37676e-17
1.89267e-17
1.94757e-18
8.69643e-18
3.65722e-17
-1.29597e-17
3.32717e-17
-1.41517e-17
3.10246e-17
-3.3639e-17
1.36228e-17
-3.12176e-17
2.00192e-17
-4.01245e-17
1.07782e-17
-3.18973e-17
1.96059e-17
-4.05027e-17
1.10663e-17
-3.20647e-17
1.91624e-17
-4.07493e-17
1.10532e-17
-3.24028e-17
1.95938e-17
-4.04832e-17
1.10855e-17
-3.20015e-17
1.91045e-17
-4.05952e-17
1.03673e-17
-3.2008e-17
1.98176e-17
-4.04364e-17
1.05698e-17
-3.20022e-17
2.03363e-17
-4.04032e-17
1.021e-17
-3.17763e-17
1.95307e-17
-4.02146e-17
1.01981e-17
-3.18368e-17
1.97307e-17
-4.00967e-17
1.02947e-17
-3.198e-17
2.0276e-17
-4.05155e-17
1.06654e-17
-3.15466e-17
2.00228e-17
-4.05944e-17
1.07503e-17
-3.11697e-17
2.01045e-17
-4.09707e-17
1.01144e-17
-3.16946e-17
1.9848e-17
-4.08271e-17
1.02541e-17
-3.0307e-17
1.62696e-17
-3.13949e-17
-1.0251e-17
6.54236e-18
-3.70759e-17
1.33865e-17
-4.47336e-17
8.64996e-18
-3.19019e-17
2.00304e-17
-4.08019e-17
1.02555e-17
-3.18461e-17
2.01939e-17
-4.06982e-17
1.09095e-17
-3.20573e-17
2.00897e-17
-4.12627e-17
1.01771e-17
-3.14444e-17
2.01383e-17
-4.09912e-17
1.01542e-17
-3.17973e-17
2.00237e-17
-4.10579e-17
1.0034e-17
-3.16511e-17
2.0162e-17
-4.1437e-17
9.87937e-18
-3.10136e-17
2.00799e-17
-4.12686e-17
1.0208e-17
-3.0832e-17
2.01863e-17
-4.11589e-17
1.02681e-17
-3.10787e-17
1.98828e-17
-4.11631e-17
1.07871e-17
-3.08671e-17
2.01288e-17
-4.16386e-17
1.02911e-17
-3.12939e-17
1.98574e-17
-4.11236e-17
9.88309e-18
-3.13613e-17
2.00994e-17
-4.09807e-17
1.01065e-17
-3.09052e-17
2.03135e-17
-4.16252e-17
1.02156e-17
-3.09775e-17
2.01469e-17
-4.1259e-17
9.85016e-18
-3.09161e-17
2.0238e-17
-4.13223e-17
9.97585e-18
-3.10917e-17
2.05418e-17
-4.18088e-17
9.58096e-18
-3.10597e-17
2.01596e-17
-4.16391e-17
9.99038e-18
-3.06066e-17
2.07701e-17
-4.18523e-17
9.45045e-18
-3.04276e-17
2.05918e-17
-4.1559e-17
1.00274e-17
-3.10096e-17
2.03531e-17
-4.19129e-17
9.98771e-18
-3.0394e-17
2.05155e-17
-4.21602e-17
1.03071e-17
-3.07823e-17
2.00524e-17
-4.179e-17
9.56071e-18
-3.09299e-17
2.05773e-17
-4.20716e-17
9.8685e-18
-3.01813e-17
2.07617e-17
-4.15441e-17
8.3326e-18
-2.7164e-17
1.34759e-17
-2.84896e-17
-7.98169e-18
-1.2355e-17
-2.02917e-18
2.05278e-17
-1.90909e-17
1.86924e-17
-1.91253e-18
2.06421e-17
-1.91259e-17
1.85863e-17
-8.38972e-19
1.83973e-17
-1.22186e-17
2.9642e-18
2.74125e-17
-2.17497e-17
3.05689e-17
-1.97177e-17
3.17134e-17
-3.77057e-17
1.32336e-17
-3.53074e-17
2.06228e-17
-4.32617e-17
1.06288e-17
-3.55981e-17
2.02801e-17
-4.4076e-17
1.10604e-17
-3.61201e-17
1.98547e-17
-4.43342e-17
1.05674e-17
-3.62888e-17
2.05339e-17
-4.4225e-17
1.00982e-17
-3.57246e-17
2.00792e-17
-4.44142e-17
1.00638e-17
-3.58362e-17
2.06141e-17
-4.4173e-17
9.96285e-18
-3.62343e-17
2.08646e-17
-4.38019e-17
1.0279e-17
-3.58728e-17
2.04264e-17
-4.40224e-17
9.96193e-18
-3.58257e-17
2.05284e-17
-4.40491e-17
9.52829e-18
-3.59588e-17
2.08235e-17
-4.42066e-17
1.04179e-17
-3.57122e-17
2.08254e-17
-4.45464e-17
1.03667e-17
-3.50647e-17
2.10183e-17
-4.45929e-17
9.65305e-18
-3.53541e-17
2.06734e-17
-4.43634e-17
9.89252e-18
-3.42391e-17
1.716e-17
-3.52952e-17
-1.04402e-17
1.88953e-18
-3.4291e-17
1.90959e-17
-4.47348e-17
1.06852e-17
-3.46128e-17
2.13381e-17
-4.4441e-17
1.03415e-17
-3.55457e-17
2.0907e-17
-4.457e-17
1.00486e-17
-3.57274e-17
2.06931e-17
-4.47375e-17
9.85631e-18
-3.53887e-17
2.07811e-17
-4.50089e-17
9.39287e-18
-3.53215e-17
2.11832e-17
-4.48627e-17
9.87396e-18
-3.52675e-17
2.10587e-17
-4.47954e-17
9.57628e-18
-3.5528e-17
2.0743e-17
-4.49293e-17
1.00203e-17
-3.54966e-17
2.07145e-17
-4.53787e-17
9.79505e-18
-3.52301e-17
2.07659e-17
-4.52225e-17
1.02574e-17
-3.50817e-17
2.09124e-17
-4.55237e-17
9.63989e-18
-3.49728e-17
2.09144e-17
-4.5071e-17
9.42323e-18
-3.50151e-17
2.08765e-17
-4.5076e-17
1.00482e-17
-3.47136e-17
2.12284e-17
-4.51619e-17
1.01763e-17
-3.45811e-17
2.09797e-17
-4.54458e-17
9.47477e-18
-3.4812e-17
2.09408e-17
-4.50307e-17
9.43894e-18
-3.45845e-17
2.13152e-17
-4.57858e-17
9.64189e-18
-3.5074e-17
2.10727e-17
-4.54087e-17
9.3249e-18
-3.50026e-17
2.1418e-17
-4.60808e-17
9.28822e-18
-3.41435e-17
2.12751e-17
-4.56647e-17
9.64999e-18
-3.47841e-17
2.10865e-17
-4.57016e-17
9.57228e-18
-3.44518e-17
2.11456e-17
-4.56062e-17
9.554e-18
-3.46953e-17
2.10302e-17
-4.57462e-17
9.23165e-18
-3.44893e-17
2.14207e-17
-4.58622e-17
9.37679e-18
-3.36477e-17
2.15452e-17
-4.56742e-17
8.1417e-18
-3.05309e-17
1.3102e-17
-3.0898e-17
-9.791e-18
-1.6094e-17
-7.33826e-18
1.84663e-17
-2.35106e-17
1.60441e-17
-7.25602e-18
1.85188e-17
-2.33921e-17
1.61902e-17
-6.50136e-18
1.61719e-17
-1.62226e-17
-3.68838e-19
2.35063e-17
-2.56134e-17
2.80437e-17
-2.27023e-17
2.96268e-17
-3.96525e-17
1.25803e-17
-3.58147e-17
1.97822e-17
-4.51464e-17
9.93601e-18
-3.66091e-17
1.94351e-17
-4.55545e-17
1.03676e-17
-3.75724e-17
1.91452e-17
-4.59949e-17
9.67268e-18
-3.70808e-17
1.95158e-17
-4.51669e-17
9.7791e-18
-3.7557e-17
1.88673e-17
-4.54016e-17
9.74578e-18
-3.73453e-17
1.9099e-17
-4.52567e-17
9.74928e-18
-3.77293e-17
1.96106e-17
-4.55626e-17
9.62855e-18
-3.71586e-17
1.94253e-17
-4.54457e-17
9.53608e-18
-3.73948e-17
1.92362e-17
-4.56421e-17
9.25609e-18
-3.65976e-17
1.96445e-17
-4.55449e-17
9.5677e-18
-3.71171e-17
1.94136e-17
-4.54804e-17
9.77706e-18
-3.67627e-17
1.96741e-17
-4.59711e-17
9.90059e-18
-3.69836e-17
1.94682e-17
-4.54075e-17
9.60757e-18
-3.57956e-17
1.66384e-17
-3.73753e-17
-8.99829e-18
-3.3057e-19
-3.546e-17
2.01727e-17
-4.30365e-17
1.30222e-17
-3.4086e-17
2.08472e-17
-4.51256e-17
9.78942e-18
-3.67036e-17
1.95343e-17
-4.57845e-17
9.32683e-18
-3.65202e-17
1.96889e-17
-4.57083e-17
9.19186e-18
-3.6784e-17
1.94709e-17
-4.60019e-17
9.20269e-18
-3.68268e-17
1.99433e-17
-4.56162e-17
9.50996e-18
-3.60585e-17
1.99895e-17
-4.56671e-17
9.01068e-18
-3.6675e-17
1.95592e-17
-4.61145e-17
9.92285e-18
-3.65492e-17
1.93662e-17
-4.58899e-17
9.32012e-18
-3.62032e-17
1.96838e-17
-4.62531e-17
9.46027e-18
-3.62888e-17
1.99698e-17
-4.63247e-17
8.81719e-18
-3.64498e-17
1.98247e-17
-4.58193e-17
9.30193e-18
-3.64657e-17
1.98302e-17
-4.62367e-17
9.15231e-18
-3.63849e-17
1.99458e-17
-4.63927e-17
8.88455e-18
-3.59923e-17
1.97171e-17
-4.58338e-17
9.14191e-18
-3.59797e-17
1.95997e-17
-4.6371e-17
8.97919e-18
-3.58216e-17
2.00912e-17
-4.64258e-17
9.64226e-18
-3.61302e-17
1.99221e-17
-4.61565e-17
9.2593e-18
-3.61764e-17
2.01166e-17
-4.7079e-17
8.88084e-18
-3.58945e-17
2.02393e-17
-4.70362e-17
8.66462e-18
-3.56965e-17
2.00412e-17
-4.68125e-17
8.95368e-18
-3.59872e-17
1.99803e-17
-4.66594e-17
9.04579e-18
-3.56705e-17
1.97267e-17
-4.66828e-17
9.43487e-18
-3.54588e-17
2.03222e-17
-4.69089e-17
9.08718e-18
-3.58342e-17
2.00809e-17
-4.67189e-17
7.69545e-18
-3.20244e-17
1.13659e-17
-3.16982e-17
-1.05509e-17
-1.81083e-17
1.42465e-17
-2.04008e-17
9.93127e-18
-6.1658e-18
1.41819e-17
-2.01507e-17
1.01028e-17
-5.37517e-18
1.18899e-17
-1.40232e-17
-4.85913e-18
2.13699e-17
-2.51271e-17
2.61792e-17
-2.4479e-17
2.50357e-17
-4.00706e-17
1.05542e-17
-3.75064e-17
1.58617e-17
-4.55399e-17
8.18931e-18
-3.80931e-17
1.56121e-17
-4.547e-17
7.94098e-18
-3.92496e-17
1.54403e-17
-4.56e-17
8.13608e-18
-3.85145e-17
1.54173e-17
-4.52366e-17
7.94628e-18
-3.84934e-17
1.53829e-17
-4.54315e-17
7.97144e-18
-3.89405e-17
1.51636e-17
-4.54517e-17
8.36269e-18
-3.84557e-17
1.59166e-17
-4.58581e-17
7.9944e-18
-3.81904e-17
1.56949e-17
-4.5458e-17
7.17394e-18
-3.88317e-17
1.55346e-17
-4.59949e-17
7.74802e-18
-3.80377e-17
1.55018e-17
-4.5129e-17
7.83897e-18
-3.85082e-17
1.54318e-17
-4.52527e-17
7.4032e-18
-3.78578e-17
1.55663e-17
-4.53519e-17
7.85574e-18
-3.88722e-17
1.55677e-17
-4.49827e-17
7.12026e-18
-3.73881e-17
1.36297e-17
-3.87269e-17
-8.32818e-18
-5.10984e-18
-3.64242e-17
1.90538e-17
-3.98159e-17
1.39873e-17
-3.4085e-17
1.74976e-17
-4.51852e-17
7.91446e-18
-3.7779e-17
1.57943e-17
-4.5884e-17
7.73111e-18
-3.8154e-17
1.59269e-17
-4.59645e-17
7.42348e-18
-3.82772e-17
1.56274e-17
-4.62636e-17
7.12482e-18
-3.75576e-17
1.59765e-17
-4.51288e-17
7.6956e-18
-3.75765e-17
1.5859e-17
-4.58003e-17
7.59034e-18
-3.79959e-17
1.60033e-17
-4.60631e-17
7.71826e-18
-3.79797e-17
1.59933e-17
-4.59913e-17
7.30002e-18
-3.77933e-17
1.56263e-17
-4.55958e-17
7.53361e-18
-3.78244e-17
1.61603e-17
-4.59426e-17
7.16353e-18
-3.77688e-17
1.61825e-17
-4.55295e-17
7.49841e-18
-3.77605e-17
1.61445e-17
-4.58427e-17
7.59225e-18
-3.75815e-17
1.61966e-17
-4.6296e-17
7.05386e-18
-3.73775e-17
1.62252e-17
-4.60413e-17
7.44989e-18
-3.76781e-17
1.58406e-17
-4.63193e-17
7.1463e-18
-3.74761e-17
1.59213e-17
-4.61422e-17
7.56533e-18
-3.75203e-17
1.61803e-17
-4.63473e-17
7.46797e-18
-3.74665e-17
1.60477e-17
-4.66861e-17
7.4337e-18
-3.76967e-17
1.62287e-17
-4.65818e-17
7.37257e-18
-3.74027e-17
1.59199e-17
-4.61329e-17
7.9326e-18
-3.71647e-17
1.63538e-17
-4.67257e-17
7.19262e-18
-3.69977e-17
1.60308e-17
-4.65144e-17
7.70002e-18
-3.7305e-17
1.6136e-17
-4.67081e-17
7.08714e-18
-3.71669e-17
1.6111e-17
-4.61394e-17
5.93161e-18
-3.37377e-17
7.46989e-18
-3.19825e-17
-1.0797e-17
-2.1195e-17
-1.00567e-17
-5.86985e-18
6.93445e-18
4.25797e-18
-1.01645e-17
-6.13179e-18
7.47891e-18
2.88477e-18
-5.43192e-18
-1.72607e-17
2.72701e-17
-2.34205e-17
1.76607e-17
-2.79076e-17
1.94609e-17
-3.78544e-17
1.89776e-18
-4.18723e-17
9.59955e-18
-4.29907e-17
-3.78171e-19
-4.23714e-17
9.84978e-18
-4.32039e-17
-5.92398e-19
-4.28979e-17
9.54789e-18
-4.27059e-17
-8.12189e-19
-4.24626e-17
9.73778e-18
-4.27236e-17
-6.06349e-19
-4.24552e-17
9.60484e-18
-4.24926e-17
-3.89197e-19
-4.2892e-17
9.73111e-18
-4.29266e-17
-5.70033e-19
-4.28176e-17
1.01853e-17
-4.33621e-17
-4.50761e-19
-4.29439e-17
9.80998e-18
-4.33074e-17
-1.56542e-18
-4.23237e-17
9.86406e-18
-4.32624e-17
-7.76482e-19
-4.1887e-17
9.82741e-18
-4.27432e-17
-6.43302e-19
-4.24109e-17
9.937e-18
-4.29594e-17
-8.95353e-19
-4.18329e-17
9.65641e-18
-4.26241e-17
-4.55931e-19
-4.21555e-17
1.00857e-17
-4.26418e-17
-1.37365e-18
-4.13531e-17
8.23228e-18
-3.68508e-17
-1.46703e-17
-1.44781e-17
-3.06599e-17
1.95811e-17
-3.42087e-17
6.66061e-18
-3.76285e-17
1.2177e-17
-4.27097e-17
-1.00771e-18
-4.1821e-17
1.00089e-17
-4.32252e-17
-9.37961e-19
-4.1765e-17
1.0295e-17
-4.31704e-17
-8.46558e-19
-4.23586e-17
1.00214e-17
-4.34405e-17
-1.2048e-18
-4.20651e-17
1.01828e-17
-4.32408e-17
-9.48729e-19
-4.23115e-17
9.78631e-18
-4.32111e-17
-1.0928e-18
-4.18251e-17
1.05894e-17
-4.30715e-17
-1.10033e-18
-4.18458e-17
1.03639e-17
-4.31314e-17
-9.06718e-19
-4.18952e-17
9.90861e-18
-4.32555e-17
-1.29342e-18
-4.17708e-17
1.04905e-17
-4.34166e-17
-9.80582e-19
-4.1673e-17
1.06981e-17
-4.35432e-17
-1.27994e-18
-4.18661e-17
1.01708e-17
-4.32526e-17
-1.17518e-18
-4.15102e-17
1.03334e-17
-4.35484e-17
-1.06716e-18
-4.15747e-17
1.04518e-17
-4.33345e-17
-1.2018e-18
-4.11917e-17
1.03625e-17
-4.34159e-17
-1.09238e-18
-4.15058e-17
1.02982e-17
-4.35971e-17
-1.32334e-18
-4.11933e-17
1.04987e-17
-4.34777e-17
-1.02151e-18
-4.10682e-17
1.03929e-17
-4.32514e-17
-1.31648e-18
-4.15853e-17
1.04526e-17
-4.33559e-17
-1.09328e-18
-4.16143e-17
1.05075e-17
-4.33218e-17
-9.95168e-19
-4.15148e-17
1.05158e-17
-4.39452e-17
-1.45032e-18
-4.16551e-17
1.02004e-17
-4.37825e-17
-8.33469e-19
-4.17458e-17
1.03999e-17
-4.38332e-17
-1.44415e-18
-4.17427e-17
1.03246e-17
-4.33569e-17
-2.85098e-18
-3.73941e-17
1.95338e-18
-2.97697e-17
-1.83314e-17
-2.76494e-17
1.86922e-18
1.23419e-17
1.54727e-17
1.59217e-17
1.7333e-18
1.2058e-17
1.6046e-17
1.42362e-17
6.55929e-18
1.39813e-18
3.60089e-17
-1.3936e-17
3.42489e-17
-1.94764e-17
2.67662e-17
-3.91407e-17
1.10012e-17
-3.75151e-17
1.47736e-17
-4.55397e-17
8.22991e-18
-3.87265e-17
1.49568e-17
-4.56819e-17
7.72385e-18
-3.87575e-17
1.47541e-17
-4.53993e-17
7.65058e-18
-3.87177e-17
1.50058e-17
-4.59405e-17
7.60915e-18
-3.88386e-17
1.47113e-17
-4.50354e-17
8.14945e-18
-3.87416e-17
1.51199e-17
-4.57676e-17
8.46038e-18
-3.87204e-17
1.50137e-17
-4.56806e-17
8.35588e-18
-3.86335e-17
1.531e-17
-4.59913e-17
6.97781e-18
-3.81489e-17
1.51939e-17
-4.603e-17
8.00515e-18
-3.81098e-17
1.51326e-17
-4.5942e-17
7.93208e-18
-3.81601e-17
1.54001e-17
-4.59683e-17
7.63475e-18
-3.80067e-17
1.48466e-17
-4.5688e-17
7.88841e-18
-3.79703e-17
1.54261e-17
-4.49666e-17
7.46765e-18
-3.72948e-17
1.20339e-17
-3.72636e-17
-1.09266e-17
-2.9322e-18
-3.65034e-17
1.62832e-17
-4.2899e-17
1.10323e-17
-3.60566e-17
1.65111e-17
-4.56662e-17
7.52074e-18
-3.79901e-17
1.50405e-17
-4.58018e-17
7.52934e-18
-3.78795e-17
1.56026e-17
-4.62636e-17
7.42411e-18
-3.80126e-17
1.55184e-17
-4.61275e-17
7.598e-18
-3.80415e-17
1.4954e-17
-4.57579e-17
7.22819e-18
-3.85738e-17
1.51199e-17
-4.62513e-17
7.9348e-18
-3.74899e-17
1.58632e-17
-4.60892e-17
7.04196e-18
-3.8234e-17
1.56185e-17
-4.60902e-17
7.68226e-18
-3.75679e-17
1.54337e-17
-4.62969e-17
7.42568e-18
-3.76875e-17
1.5752e-17
-4.66418e-17
7.31075e-18
-3.7599e-17
1.57945e-17
-4.67803e-17
7.30978e-18
-3.74778e-17
1.54666e-17
-4.61254e-17
7.20058e-18
-3.77914e-17
1.5513e-17
-4.60909e-17
7.37742e-18
-3.71235e-17
1.58507e-17
-4.62614e-17
7.39725e-18
-3.75371e-17
1.5665e-17
-4.65766e-17
7.52173e-18
-3.79239e-17
1.53889e-17
-4.66953e-17
7.43046e-18
-3.74419e-17
1.55345e-17
-4.68286e-17
7.75382e-18
-3.70572e-17
1.58675e-17
-4.63798e-17
7.0204e-18
-3.74528e-17
1.57132e-17
-4.63703e-17
7.40273e-18
-3.74043e-17
1.59529e-17
-4.63165e-17
7.36478e-18
-3.74548e-17
1.56815e-17
-4.68872e-17
6.99813e-18
-3.77021e-17
1.5467e-17
-4.70959e-17
7.64353e-18
-3.71972e-17
1.56666e-17
-4.65869e-17
6.86973e-18
-3.73445e-17
1.55168e-17
-4.63856e-17
5.41663e-18
-3.3858e-17
6.90355e-18
-3.20759e-17
-1.0543e-17
-2.1182e-17
1.57969e-17
6.26753e-18
1.85059e-17
-8.45694e-18
1.59153e-17
6.94631e-18
1.68907e-17
-3.4625e-18
4.53832e-18
2.96853e-17
-1.71473e-17
3.57371e-17
-1.77765e-17
2.99532e-17
-3.93165e-17
1.20789e-17
-3.66826e-17
1.7368e-17
-4.5772e-17
9.85116e-18
-3.73929e-17
1.74808e-17
-4.57508e-17
8.99383e-18
-3.81188e-17
1.70434e-17
-4.57707e-17
9.25371e-18
-3.73778e-17
1.77127e-17
-4.6168e-17
9.07479e-18
-3.73622e-17
1.75395e-17
-4.58477e-17
9.26942e-18
-3.74133e-17
1.76107e-17
-4.60324e-17
9.44236e-18
-3.76117e-17
1.73676e-17
-4.58429e-17
9.70441e-18
-3.71782e-17
1.77978e-17
-4.57974e-17
8.6237e-18
-3.75984e-17
1.77616e-17
-4.64102e-17
9.31708e-18
-3.71155e-17
1.7638e-17
-4.61651e-17
9.14047e-18
-3.74405e-17
1.77154e-17
-4.62187e-17
9.30237e-18
-3.69303e-17
1.73836e-17
-4.61805e-17
9.35558e-18
-3.71491e-17
1.78534e-17
-4.57843e-17
8.81196e-18
-3.55733e-17
1.2984e-17
-3.41312e-17
-1.62904e-17
6.43848e-18
-4.38546e-17
9.58993e-18
-5.11299e-17
7.39425e-18
-3.74445e-17
1.81567e-17
-4.66387e-17
8.80214e-18
-3.6833e-17
1.75576e-17
-4.64164e-17
9.27535e-18
-3.68969e-17
1.77603e-17
-4.68364e-17
9.1743e-18
-3.71001e-17
1.7974e-17
-4.64883e-17
9.16965e-18
-3.65124e-17
1.772e-17
-4.6576e-17
8.67971e-18
-3.71927e-17
1.75725e-17
-4.66522e-17
8.76418e-18
-3.68939e-17
1.79974e-17
-4.66807e-17
8.81179e-18
-3.69532e-17
1.79361e-17
-4.62909e-17
8.90478e-18
-3.66238e-17
1.79748e-17
-4.70199e-17
8.80364e-18
-3.67119e-17
1.78874e-17
-4.67291e-17
8.55221e-18
-3.69179e-17
1.79774e-17
-4.72408e-17
9.06339e-18
-3.64828e-17
1.80295e-17
-4.68083e-17
8.88716e-18
-3.67271e-17
1.78666e-17
-4.6451e-17
8.72729e-18
-3.66177e-17
1.82901e-17
-4.68799e-17
8.92286e-18
-3.6331e-17
1.80869e-17
-4.66212e-17
9.00734e-18
-3.6794e-17
1.76326e-17
-4.71852e-17
8.86069e-18
-3.63705e-17
1.79432e-17
-4.67609e-17
9.14519e-18
-3.64279e-17
1.83047e-17
-4.67571e-17
8.85668e-18
-3.64628e-17
1.81119e-17
-4.73923e-17
8.71656e-18
-3.63034e-17
1.85745e-17
-4.72164e-17
8.66935e-18
-3.64447e-17
1.80454e-17
-4.73446e-17
8.84749e-18
-3.69531e-17
1.77494e-17
-4.75917e-17
8.92717e-18
-3.59181e-17
1.83142e-17
-4.7479e-17
8.44755e-18
-3.60495e-17
1.82521e-17
-4.69184e-17
7.09209e-18
-3.27003e-17
9.43814e-18
-3.26538e-17
-9.9127e-18
-1.89817e-17
1.8221e-17
1.61993e-17
4.67161e-18
1.24192e-17
1.88605e-17
1.51925e-17
8.21962e-18
2.72713e-18
3.76376e-17
-1.17482e-17
3.6247e-17
-1.76883e-17
2.75409e-17
-3.89442e-17
1.1195e-17
-3.77869e-17
1.49901e-17
-4.5487e-17
8.09677e-18
-3.85283e-17
1.47581e-17
-4.50686e-17
7.89686e-18
-3.88157e-17
1.48862e-17
-4.57142e-17
8.34748e-18
-3.8364e-17
1.53781e-17
-4.55091e-17
7.71729e-18
-3.81543e-17
1.50913e-17
-4.56639e-17
7.47423e-18
-3.8321e-17
1.51356e-17
-4.55497e-17
7.52067e-18
-3.82958e-17
1.5146e-17
-4.56552e-17
8.05321e-18
-3.8454e-17
1.53885e-17
-4.50522e-17
7.45623e-18
-3.85653e-17
1.53335e-17
-4.61143e-17
8.11754e-18
-3.84763e-17
1.4911e-17
-4.60764e-17
7.22205e-18
-3.84531e-17
1.51347e-17
-4.55323e-17
7.83491e-18
-3.80668e-17
1.51373e-17
-4.5548e-17
7.66318e-18
-3.83359e-17
1.52482e-17
-4.51386e-17
7.36385e-18
-3.65408e-17
1.01636e-17
-3.31857e-17
-1.83793e-17
5.4685e-18
-4.386e-17
6.88298e-18
-5.19021e-17
4.51133e-18
-3.89845e-17
1.52433e-17
-4.58465e-17
7.63555e-18
-3.80675e-17
1.50234e-17
-4.58775e-17
7.94738e-18
-3.75828e-17
1.54645e-17
-4.64397e-17
8.13251e-18
-3.79264e-17
1.53721e-17
-4.62913e-17
7.96993e-18
-3.763e-17
1.55108e-17
-4.62864e-17
7.37467e-18
-3.8246e-17
1.50848e-17
-4.63433e-17
7.66439e-18
-3.80055e-17
1.54259e-17
-4.62127e-17
7.57489e-18
-3.81715e-17
1.55057e-17
-4.64133e-17
7.5489e-18
-3.74798e-17
1.5286e-17
-4.59863e-17
7.21962e-18
-3.79763e-17
1.53038e-17
-4.61494e-17
7.2144e-18
-3.80808e-17
1.52071e-17
-4.64303e-17
7.21392e-18
-3.77421e-17
1.5576e-17
-4.63894e-17
7.08051e-18
-3.74586e-17
1.53468e-17
-4.60163e-17
7.5659e-18
-3.77738e-17
1.57338e-17
-4.64266e-17
7.66098e-18
-3.7519e-17
1.5493e-17
-4.62786e-17
7.00937e-18
-3.77542e-17
1.53975e-17
-4.68299e-17
7.53943e-18
-3.72085e-17
1.5529e-17
-4.63012e-17
7.15461e-18
-3.73557e-17
1.59268e-17
-4.62422e-17
7.30039e-18
-3.78163e-17
1.57352e-17
-4.71473e-17
6.76786e-18
-3.73856e-17
1.59348e-17
-4.67815e-17
7.44874e-18
-3.74334e-17
1.54914e-17
-4.68078e-17
7.45793e-18
-3.78206e-17
1.5528e-17
-4.72159e-17
7.21871e-18
-3.71027e-17
1.56016e-17
-4.7029e-17
7.36372e-18
-3.68531e-17
1.57948e-17
-4.62108e-17
5.76891e-18
-3.36841e-17
7.03372e-18
-3.22515e-17
-1.06759e-17
-2.11329e-17
6.52785e-18
6.28963e-19
-4.26939e-18
1.81074e-17
4.99996e-18
3.42708e-18
-1.2326e-17
3.33311e-17
-1.65455e-17
2.41707e-17
-2.30127e-17
2.14848e-17
-3.66366e-17
2.11381e-18
-4.13459e-17
9.79063e-18
-4.23015e-17
-3.97709e-19
-4.22658e-17
9.69025e-18
-4.22665e-17
-5.59733e-19
-4.24645e-17
9.57597e-18
-4.25032e-17
-5.04041e-19
-4.24849e-17
9.96981e-18
-4.25453e-17
-6.16315e-19
-4.19476e-17
9.73202e-18
-4.26756e-17
-1.00327e-18
-4.2143e-17
9.80322e-18
-4.2767e-17
-9.13904e-19
-4.18533e-17
9.83822e-18
-4.23344e-17
-6.19259e-19
-4.15313e-17
1.03088e-17
-4.27746e-17
-9.62173e-19
-4.21156e-17
1.01952e-17
-4.29935e-17
-4.73004e-19
-4.24039e-17
9.63159e-18
-4.3213e-17
-1.39379e-18
-4.1888e-17
1.00417e-17
-4.27275e-17
-5.81396e-19
-4.19803e-17
9.77245e-18
-4.26426e-17
-8.4216e-19
-4.19854e-17
1.01077e-17
-4.25761e-17
-1.2242e-18
-4.05786e-17
4.93843e-18
-3.10247e-17
-2.48268e-17
-4.06979e-18
-3.77959e-17
7.28007e-18
-4.634e-17
-2.93668e-18
-4.23056e-17
1.01384e-17
-4.29884e-17
-9.81697e-19
-4.17419e-17
1.00333e-17
-4.27601e-17
-7.3283e-19
-4.17666e-17
1.02887e-17
-4.35786e-17
-9.17272e-19
-4.21438e-17
9.93729e-18
-4.31151e-17
-8.79781e-19
-4.13424e-17
1.02402e-17
-4.33928e-17
-1.2445e-18
-4.21813e-17
9.83878e-18
-4.28079e-17
-9.43019e-19
-4.1688e-17
1.0239e-17
-4.31525e-17
-1.20708e-18
-4.18962e-17
1.02677e-17
-4.34184e-17
-1.15569e-18
-4.14873e-17
1.02478e-17
-4.33463e-17
-1.32333e-18
-4.15695e-17
1.02217e-17
-4.33082e-17
-9.98989e-19
-4.14763e-17
1.0029e-17
-4.34554e-17
-1.17054e-18
-4.17089e-17
1.01254e-17
-4.32084e-17
-1.07095e-18
-4.14897e-17
1.00915e-17
-4.33368e-17
-1.18313e-18
-4.17985e-17
1.032e-17
-4.33962e-17
-1.13173e-18
-4.11886e-17
1.0165e-17
-4.30055e-17
-1.08515e-18
-4.11555e-17
1.03033e-17
-4.36462e-17
-1.0332e-18
-4.14114e-17
1.0095e-17
-4.36189e-17
-1.19117e-18
-4.12865e-17
1.04645e-17
-4.32002e-17
-1.04707e-18
-4.15093e-17
1.0474e-17
-4.38679e-17
-1.40191e-18
-4.10618e-17
1.05774e-17
-4.32054e-17
-1.00366e-18
-4.07824e-17
1.01604e-17
-4.37191e-17
-9.14988e-19
-4.11357e-17
1.07977e-17
-4.42999e-17
-1.70693e-18
-4.13664e-17
1.02492e-17
-4.39461e-17
-1.43438e-18
-4.10803e-17
1.04744e-17
-4.37485e-17
-3.0225e-18
-3.72607e-17
2.11008e-18
-2.91119e-17
-1.82178e-17
-2.73728e-17
1.77629e-17
1.16515e-17
1.41281e-17
2.62077e-17
1.67824e-17
1.44277e-17
6.42148e-18
4.20537e-17
-6.74855e-18