/*--------------------------------*- C++ -*----------------------------------*\
| =========                 |                                                 |
| \\      /  F ield         | OpenFOAM: The Open Source CFD Toolbox           |
|  \\    /   O peration     | Version:  2512                                  |
|   \\  /    A nd           | Website:  www.openfoam.com                      |
|    \\/     M anipulation  |                                                 |
\*---------------------------------------------------------------------------*/
FoamFile
{
    version     2.0;
    format      ascii;
    arch        "LSB;label=32;scalar=64";
    class       volVectorField;
    location    "0.1";
    object      B;
}
// * * * * * * * * * * * * * * * * * * * * * * * * * * * * * * * * * * * * * //

dimensions      [1 0 -2 0 0 -1 0];

internalField   nonuniform List<vector> 
8333
(
(5.23468e-06 20 3.05405e-19)
(-5.31048e-06 20 3.42192e-19)
(-5.3109e-06 20 3.30761e-19)
(-5.30873e-06 20 3.66815e-19)
(-5.30896e-06 20 3.31502e-19)
(-5.30903e-06 20 3.52201e-19)
(-5.30811e-06 20 3.27214e-19)
(-5.30705e-06 20 3.2094e-19)
(-5.30598e-06 20 3.34717e-19)
(-5.30478e-06 20 3.16269e-19)
(-5.30347e-06 20 3.44917e-19)
(-5.30211e-06 20 2.99626e-19)
(-5.30069e-06 20 3.06794e-19)
(-5.29925e-06 20 2.63186e-19)
(-5.29778e-06 20 2.67593e-19)
(-5.29629e-06 20 2.25052e-19)
(-5.29479e-06 20 2.34103e-19)
(-5.29329e-06 20 2.43722e-19)
(-5.29178e-06 20 2.39572e-19)
(-5.29027e-06 20 2.05038e-19)
(-5.28877e-06 20 2.57486e-19)
(-5.28727e-06 20 2.72588e-19)
(-5.28577e-06 20 2.68143e-19)
(-5.28427e-06 20 2.69429e-19)
(-5.28278e-06 20 2.59439e-19)
(-5.28129e-06 20 2.46153e-19)
(-5.2798e-06 20 2.49114e-19)
(-5.27832e-06 20 2.29446e-19)
(-5.27683e-06 20 2.64983e-19)
(-5.27535e-06 20 2.49068e-19)
(-5.27387e-06 20 2.73558e-19)
(-5.27239e-06 20 2.24654e-19)
(-5.27091e-06 20 2.43824e-19)
(-5.26943e-06 20 2.40347e-19)
(-5.26796e-06 20 2.47071e-19)
(-5.26648e-06 20 2.34659e-19)
(-5.26501e-06 20 2.57937e-19)
(-5.26354e-06 20 2.64624e-19)
(-5.26207e-06 20 2.5382e-19)
(-5.26061e-06 20 2.53718e-19)
(-5.25914e-06 20 2.48678e-19)
(-5.25768e-06 20 2.39849e-19)
(-5.25622e-06 20 2.41592e-19)
(-5.25476e-06 20 2.2573e-19)
(-5.25331e-06 20 2.54478e-19)
(-5.25185e-06 20 2.55659e-19)
(-5.2504e-06 20 2.61828e-19)
(-5.24895e-06 20 2.43967e-19)
(-5.24749e-06 20 2.67893e-19)
(-5.24605e-06 20 2.63773e-19)
(-5.2446e-06 20 2.64789e-19)
(-5.24315e-06 20 2.45566e-19)
(-5.2417e-06 20 2.63256e-19)
(-5.24026e-06 20 2.67712e-19)
(-5.23881e-06 20 2.55121e-19)
(-5.23737e-06 20 2.53624e-19)
(-5.23592e-06 20 2.46938e-19)
(-5.23448e-06 20 2.37494e-19)
(-5.23303e-06 20 2.39557e-19)
(-5.23159e-06 20 2.21307e-19)
(-5.23015e-06 20 2.55307e-19)
(-5.2287e-06 20 2.49585e-19)
(-5.22726e-06 20 2.7223e-19)
(-5.22582e-06 20 2.34549e-19)
(-5.22437e-06 20 2.89065e-19)
(-5.22293e-06 20 2.90416e-19)
(-5.22149e-06 20 2.93677e-19)
(-5.22004e-06 20 2.69266e-19)
(-5.2186e-06 20 2.85482e-19)
(-5.21715e-06 20 2.76585e-19)
(-5.21571e-06 20 2.7011e-19)
(-5.21426e-06 20 2.55782e-19)
(-5.21281e-06 20 2.62796e-19)
(-5.21137e-06 20 2.70359e-19)
(-5.20992e-06 20 2.50302e-19)
(-5.20847e-06 20 2.11476e-19)
(-5.20702e-06 20 2.22484e-19)
(-5.20557e-06 20 2.21675e-19)
(-5.20412e-06 20 2.33901e-19)
(-5.20266e-06 20 2.85982e-19)
(-5.20121e-06 20 2.86625e-19)
(-5.19976e-06 20 3.03563e-19)
(-5.1983e-06 20 3.2652e-19)
(-5.19685e-06 20 3.3613e-19)
(-5.19539e-06 20 3.5542e-19)
(-5.19393e-06 20 3.52781e-19)
(-5.19248e-06 20 3.33472e-19)
(-5.19102e-06 20 3.15737e-19)
(-5.18956e-06 20 3.44705e-19)
(-5.1881e-06 20 3.23863e-19)
(-5.18664e-06 20 3.41717e-19)
(-5.18518e-06 20 3.3206e-19)
(-5.18372e-06 20 3.70314e-19)
(-5.18226e-06 20 3.35191e-19)
(-5.1808e-06 20 3.58184e-19)
(-5.17934e-06 20 3.34578e-19)
(-5.17788e-06 20 3.35375e-19)
(-5.17643e-06 20 3.4463e-19)
(-5.17497e-06 20 3.52169e-19)
(-5.17351e-06 20 3.704e-19)
(-5.17206e-06 20 3.62444e-19)
(-5.1706e-06 20 3.86065e-19)
(-5.16915e-06 20 3.59823e-19)
(-5.1677e-06 20 3.51023e-19)
(-5.16625e-06 20 3.65755e-19)
(-5.16481e-06 20 3.44432e-19)
(-5.16336e-06 20 3.91567e-19)
(-5.16192e-06 20 3.3988e-19)
(-5.16049e-06 20 3.72163e-19)
(-5.15906e-06 20 3.70198e-19)
(-5.15763e-06 20 3.42303e-19)
(-5.15621e-06 20 3.33902e-19)
(-5.15479e-06 20 3.51399e-19)
(-5.15338e-06 20 3.35091e-19)
(-5.15198e-06 20 3.85681e-19)
(-5.15058e-06 20 3.37574e-19)
(-5.14919e-06 20 3.72518e-19)
(-5.14781e-06 20 3.69211e-19)
(-5.14644e-06 20 3.4695e-19)
(-5.14508e-06 20 3.31551e-19)
(-5.14372e-06 20 3.64977e-19)
(-5.14237e-06 20 3.28533e-19)
(-5.14104e-06 20 4.07542e-19)
(-5.13971e-06 20 3.63095e-19)
(-5.13839e-06 20 3.98556e-19)
(-5.13708e-06 20 3.86302e-19)
(-5.13579e-06 20 3.63955e-19)
(-5.1345e-06 20 3.26379e-19)
(-5.13321e-06 20 3.74331e-19)
(-5.13193e-06 20 3.06977e-19)
(-5.13066e-06 20 3.73789e-19)
(-5.12939e-06 20 3.36335e-19)
(-5.12812e-06 20 3.62008e-19)
(-5.12684e-06 20 3.75532e-19)
(-5.12555e-06 20 3.51402e-19)
(-5.12424e-06 20 3.68154e-19)
(-5.1229e-06 20 3.15491e-19)
(-5.12154e-06 20 3.07529e-19)
(-5.12012e-06 20 2.73824e-19)
(-5.11865e-06 20 2.57395e-19)
(-5.1171e-06 20 2.32661e-19)
(-5.11546e-06 20 2.60893e-19)
(-5.11368e-06 20 2.61389e-19)
(-5.11178e-06 20 2.63869e-19)
(-5.10966e-06 20 2.43203e-19)
(-5.10742e-06 20 2.70823e-19)
(-5.10467e-06 20 2.67932e-19)
(-5.102e-06 20 2.67825e-19)
(-5.09842e-06 20 2.45087e-19)
(-5.0958e-06 20 2.69738e-19)
(-1.58558e-05 20 4.01719e-19)
(-1.58535e-05 20 3.88179e-19)
(-1.58499e-05 20 4.07186e-19)
(-1.58471e-05 20 3.88124e-19)
(-1.58448e-05 20 3.80092e-19)
(-1.58416e-05 20 3.7591e-19)
(-1.5838e-05 20 3.83666e-19)
(-1.58344e-05 20 3.61701e-19)
(-1.58307e-05 20 3.70687e-19)
(-1.58269e-05 20 3.67823e-19)
(-1.58231e-05 20 2.5961e-19)
(-1.58191e-05 20 3.53863e-19)
(-1.58151e-05 20 2.48957e-19)
(-1.58111e-05 20 2.46577e-19)
(-1.58071e-05 20 1.94018e-19)
(-1.5803e-05 20 2.02881e-19)
(-1.5799e-05 20 2.13668e-19)
(-1.57949e-05 20 1.98159e-19)
(-1.57908e-05 20 1.04021e-19)
(-1.57868e-05 20 1.79402e-19)
(-1.57827e-05 20 1.85579e-19)
(-1.57786e-05 20 2.25214e-19)
(-1.57746e-05 20 1.96486e-19)
(-1.57705e-05 20 2.33104e-19)
(-1.57664e-05 20 1.56507e-19)
(-1.57624e-05 20 2.38723e-19)
(-1.57583e-05 20 1.50647e-19)
(-1.57542e-05 20 2.63703e-19)
(-1.57502e-05 20 1.79646e-19)
(-1.57461e-05 20 2.12062e-19)
(-1.5742e-05 20 1.48227e-19)
(-1.57379e-05 20 2.12173e-19)
(-1.57339e-05 20 1.86945e-19)
(-1.57298e-05 20 2.36553e-19)
(-1.57257e-05 20 1.77811e-19)
(-1.57216e-05 20 2.38173e-19)
(-1.57175e-05 20 2.23321e-19)
(-1.57135e-05 20 2.38434e-19)
(-1.57094e-05 20 1.95964e-19)
(-1.57053e-05 20 2.25981e-19)
(-1.57012e-05 20 1.59128e-19)
(-1.56971e-05 20 2.24272e-19)
(-1.56931e-05 20 1.66383e-19)
(-1.5689e-05 20 2.43048e-19)
(-1.56849e-05 20 2.17352e-19)
(-1.56808e-05 20 2.62347e-19)
(-1.56767e-05 20 1.8553e-19)
(-1.56726e-05 20 2.60397e-19)
(-1.56685e-05 20 2.07929e-19)
(-1.56645e-05 20 2.61011e-19)
(-1.56604e-05 20 1.69467e-19)
(-1.56563e-05 20 1.67068e-19)
(-1.56522e-05 20 1.76314e-19)
(-1.56481e-05 20 2.03087e-19)
(-1.5644e-05 20 1.75322e-19)
(-1.56399e-05 20 2.17187e-19)
(-1.56358e-05 20 1.54763e-19)
(-1.56317e-05 20 2.213e-19)
(-1.56275e-05 20 1.61143e-19)
(-1.56234e-05 20 2.44718e-19)
(-1.56193e-05 20 2.11942e-19)
(-1.56152e-05 20 2.74221e-19)
(-1.56111e-05 20 1.80895e-19)
(-1.56069e-05 20 2.77274e-19)
(-1.56028e-05 20 2.37665e-19)
(-1.55987e-05 20 2.97624e-19)
(-1.55945e-05 20 2.00223e-19)
(-1.55904e-05 20 1.99075e-19)
(-1.55863e-05 20 1.85115e-19)
(-1.55821e-05 20 2.27974e-19)
(-1.5578e-05 20 1.82268e-19)
(-1.55738e-05 20 2.37766e-19)
(-1.55696e-05 20 2.45732e-19)
(-1.55655e-05 20 2.31418e-19)
(-1.55613e-05 20 1.95347e-19)
(-1.55571e-05 20 2.12962e-19)
(-1.5553e-05 20 2.2627e-19)
(-1.55488e-05 20 2.50344e-19)
(-1.55446e-05 20 3.0064e-19)
(-1.55404e-05 20 3.13837e-19)
(-1.55362e-05 20 3.70995e-19)
(-1.5532e-05 20 3.40491e-19)
(-1.55278e-05 20 3.30834e-19)
(-1.55236e-05 20 3.57708e-19)
(-1.55194e-05 20 3.5084e-19)
(-1.55152e-05 20 3.65455e-19)
(-1.5511e-05 20 3.6584e-19)
(-1.55068e-05 20 3.72914e-19)
(-1.55026e-05 20 3.89751e-19)
(-1.54984e-05 20 4.03709e-19)
(-1.54941e-05 20 3.91019e-19)
(-1.54899e-05 20 4.12309e-19)
(-1.54857e-05 20 3.9352e-19)
(-1.54814e-05 20 3.86494e-19)
(-1.54772e-05 20 3.85973e-19)
(-1.54729e-05 20 4.00246e-19)
(-1.54687e-05 20 3.74048e-19)
(-1.54645e-05 20 4.20904e-19)
(-1.54602e-05 20 3.69098e-19)
(-1.5456e-05 20 3.65154e-19)
(-1.54517e-05 20 3.64913e-19)
(-1.54474e-05 20 3.85e-19)
(-1.54432e-05 20 3.87363e-19)
(-1.54389e-05 20 4.06308e-19)
(-1.54347e-05 20 3.91246e-19)
(-1.54304e-05 20 4.22883e-19)
(-1.54261e-05 20 3.92288e-19)
(-1.54219e-05 20 3.9008e-19)
(-1.54176e-05 20 3.70512e-19)
(-1.54134e-05 20 3.77294e-19)
(-1.54091e-05 20 3.70239e-19)
(-1.54048e-05 20 3.8732e-19)
(-1.54006e-05 20 3.7713e-19)
(-1.53963e-05 20 4.13243e-19)
(-1.53921e-05 20 3.88077e-19)
(-1.53878e-05 20 3.88418e-19)
(-1.53836e-05 20 3.69666e-19)
(-1.53794e-05 20 3.79068e-19)
(-1.53751e-05 20 3.73033e-19)
(-1.53709e-05 20 3.91039e-19)
(-1.53667e-05 20 3.84088e-19)
(-1.53625e-05 20 4.11489e-19)
(-1.53583e-05 20 3.91055e-19)
(-1.5354e-05 20 3.98311e-19)
(-1.53498e-05 20 3.73522e-19)
(-1.53456e-05 20 3.88873e-19)
(-1.53414e-05 20 3.63208e-19)
(-1.53372e-05 20 3.96744e-19)
(-1.5333e-05 20 3.60677e-19)
(-1.53289e-05 20 3.81971e-19)
(-1.53247e-05 20 3.40235e-19)
(-1.53204e-05 20 3.68785e-19)
(-1.53162e-05 20 3.22782e-19)
(-1.5312e-05 20 3.02545e-19)
(-1.53077e-05 20 3.43429e-19)
(-1.53034e-05 20 2.85566e-19)
(-1.52991e-05 20 3.6181e-19)
(-1.52947e-05 20 3.13481e-19)
(-1.52903e-05 20 3.19581e-19)
(-1.52857e-05 20 2.20105e-19)
(-1.52811e-05 20 2.70854e-19)
(-1.52763e-05 20 2.32095e-19)
(-1.52715e-05 20 2.63162e-19)
(-1.52663e-05 20 1.86106e-19)
(-1.52613e-05 20 2.54552e-19)
(-1.52552e-05 20 2.25037e-19)
(-1.52503e-05 20 2.60603e-19)
(-1.52428e-05 20 1.85503e-19)
(-1.5237e-05 20 2.5264e-19)
(-1.52326e-05 20 2.23253e-19)
(-2.64012e-05 20 4.35535e-19)
(-2.63967e-05 20 4.29604e-19)
(-2.63912e-05 20 4.3642e-19)
(-2.63856e-05 20 4.26674e-19)
(-2.63806e-05 20 4.13615e-19)
(-2.6375e-05 20 4.02132e-19)
(-2.6369e-05 20 4.20927e-19)
(-2.63629e-05 20 3.86976e-19)
(-2.63567e-05 20 4.04305e-19)
(-2.63504e-05 20 3.98128e-19)
(-2.6344e-05 20 3.03373e-19)
(-2.63375e-05 20 4.10064e-19)
(-2.6331e-05 20 3.08558e-19)
(-2.63245e-05 20 2.57079e-19)
(-2.63179e-05 20 1.47601e-19)
(-2.63113e-05 20 1.74893e-19)
(-2.63047e-05 20 1.63648e-19)
(-2.62981e-05 20 1.54435e-19)
(-2.62914e-05 20 2.99715e-20)
(-2.62848e-05 20 1.1968e-19)
(-2.62782e-05 20 1.1733e-19)
(-2.62715e-05 20 1.54991e-19)
(-2.62649e-05 20 9.76261e-20)
(-2.62582e-05 20 1.88604e-19)
(-2.62516e-05 20 1.09857e-19)
(-2.62449e-05 20 1.71993e-19)
(-2.62383e-05 20 6.67895e-20)
(-2.62316e-05 20 2.06026e-19)
(-2.6225e-05 20 1.44802e-19)
(-2.62183e-05 20 1.52243e-19)
(-2.62116e-05 20 5.81891e-20)
(-2.6205e-05 20 1.58794e-19)
(-2.61983e-05 20 1.36684e-19)
(-2.61916e-05 20 1.80845e-19)
(-2.61849e-05 20 9.99972e-20)
(-2.61782e-05 20 1.93557e-19)
(-2.61716e-05 20 1.75074e-19)
(-2.61649e-05 20 1.84845e-19)
(-2.61582e-05 20 1.08467e-19)
(-2.61515e-05 20 1.88273e-19)
(-2.61448e-05 20 1.17187e-19)
(-2.61381e-05 20 1.60872e-19)
(-2.61314e-05 20 8.4664e-20)
(-2.61247e-05 20 1.98027e-19)
(-2.61179e-05 20 1.73483e-19)
(-2.61112e-05 20 2.09314e-19)
(-2.61045e-05 20 1.07886e-19)
(-2.60978e-05 20 2.16197e-19)
(-2.60911e-05 20 1.61945e-19)
(-2.60843e-05 20 1.97715e-19)
(-2.60776e-05 20 9.584e-20)
(-2.60708e-05 20 1.25894e-19)
(-2.60641e-05 20 1.09382e-19)
(-2.60573e-05 20 1.31549e-19)
(-2.60506e-05 20 7.48837e-20)
(-2.60438e-05 20 1.72915e-19)
(-2.6037e-05 20 1.10351e-19)
(-2.60303e-05 20 1.56553e-19)
(-2.60235e-05 20 7.94062e-20)
(-2.60167e-05 20 1.99452e-19)
(-2.60099e-05 20 1.71057e-19)
(-2.60031e-05 20 2.19278e-19)
(-2.59963e-05 20 1.09417e-19)
(-2.59895e-05 20 2.2992e-19)
(-2.59827e-05 20 1.89857e-19)
(-2.59759e-05 20 2.3286e-19)
(-2.5969e-05 20 1.26642e-19)
(-2.59622e-05 20 1.5873e-19)
(-2.59553e-05 20 1.21046e-19)
(-2.59485e-05 20 1.59991e-19)
(-2.59416e-05 20 9.08556e-20)
(-2.59348e-05 20 1.97201e-19)
(-2.59279e-05 20 2.03002e-19)
(-2.5921e-05 20 1.92616e-19)
(-2.59142e-05 20 1.73687e-19)
(-2.59073e-05 20 1.98e-19)
(-2.59004e-05 20 2.27961e-19)
(-2.58935e-05 20 2.66886e-19)
(-2.58865e-05 20 3.20275e-19)
(-2.58796e-05 20 3.34881e-19)
(-2.58727e-05 20 3.94316e-19)
(-2.58658e-05 20 3.83067e-19)
(-2.58588e-05 20 3.62053e-19)
(-2.58519e-05 20 3.76559e-19)
(-2.58449e-05 20 3.72445e-19)
(-2.5838e-05 20 3.85004e-19)
(-2.5831e-05 20 3.99318e-19)
(-2.5824e-05 20 4.05374e-19)
(-2.58171e-05 20 4.23782e-19)
(-2.58101e-05 20 4.39308e-19)
(-2.58031e-05 20 4.34291e-19)
(-2.57961e-05 20 4.42769e-19)
(-2.57891e-05 20 4.33881e-19)
(-2.5782e-05 20 4.20982e-19)
(-2.5775e-05 20 4.16408e-19)
(-2.5768e-05 20 4.36493e-19)
(-2.5761e-05 20 4.09631e-19)
(-2.57539e-05 20 4.50358e-19)
(-2.57469e-05 20 4.08282e-19)
(-2.57398e-05 20 3.9447e-19)
(-2.57328e-05 20 3.81123e-19)
(-2.57257e-05 20 3.98357e-19)
(-2.57187e-05 20 4.12183e-19)
(-2.57116e-05 20 4.32856e-19)
(-2.57045e-05 20 4.28324e-19)
(-2.56974e-05 20 4.45926e-19)
(-2.56903e-05 20 4.27297e-19)
(-2.56833e-05 20 4.22396e-19)
(-2.56762e-05 20 3.97758e-19)
(-2.56691e-05 20 3.99375e-19)
(-2.5662e-05 20 3.99964e-19)
(-2.56549e-05 20 4.15127e-19)
(-2.56478e-05 20 4.14068e-19)
(-2.56407e-05 20 4.34765e-19)
(-2.56336e-05 20 4.22165e-19)
(-2.56265e-05 20 4.19795e-19)
(-2.56194e-05 20 3.96693e-19)
(-2.56123e-05 20 3.9982e-19)
(-2.56052e-05 20 4.04619e-19)
(-2.55981e-05 20 4.15413e-19)
(-2.5591e-05 20 4.2182e-19)
(-2.55839e-05 20 4.3361e-19)
(-2.55768e-05 20 4.19269e-19)
(-2.55697e-05 20 4.19988e-19)
(-2.55626e-05 20 3.92867e-19)
(-2.55555e-05 20 4.01895e-19)
(-2.55484e-05 20 3.94197e-19)
(-2.55413e-05 20 4.14947e-19)
(-2.55341e-05 20 3.98697e-19)
(-2.5527e-05 20 4.07796e-19)
(-2.55199e-05 20 3.6513e-19)
(-2.55128e-05 20 3.87541e-19)
(-2.55056e-05 20 3.37251e-19)
(-2.54984e-05 20 3.19742e-19)
(-2.54912e-05 20 3.35406e-19)
(-2.5484e-05 20 3.08433e-19)
(-2.54767e-05 20 4.2862e-19)
(-2.54693e-05 20 3.71863e-19)
(-2.54619e-05 20 3.42623e-19)
(-2.54544e-05 20 1.89227e-19)
(-2.54468e-05 20 2.52222e-19)
(-2.5439e-05 20 2.02151e-19)
(-2.54312e-05 20 2.14849e-19)
(-2.54229e-05 20 1.08226e-19)
(-2.54152e-05 20 2.09433e-19)
(-2.54058e-05 20 1.8158e-19)
(-2.53981e-05 20 2.05086e-19)
(-2.53877e-05 20 1.05092e-19)
(-2.53778e-05 20 2.0681e-19)
(-2.53722e-05 20 1.79503e-19)
(-3.69469e-05 20 4.33276e-19)
(-3.694e-05 20 4.32062e-19)
(-3.69323e-05 20 4.34119e-19)
(-3.6924e-05 20 4.27077e-19)
(-3.69164e-05 20 4.16572e-19)
(-3.69084e-05 20 4.01824e-19)
(-3.69e-05 20 4.19867e-19)
(-3.68914e-05 20 3.8369e-19)
(-3.68827e-05 20 4.05278e-19)
(-3.68739e-05 20 3.85318e-19)
(-3.6865e-05 20 3.29405e-19)
(-3.6856e-05 20 3.97839e-19)
(-3.68469e-05 20 3.34719e-19)
(-3.68378e-05 20 2.38521e-19)
(-3.68287e-05 20 1.13317e-19)
(-3.68196e-05 20 1.14105e-19)
(-3.68104e-05 20 1.10159e-19)
(-3.68012e-05 20 7.85293e-20)
(-3.6792e-05 20 -2.41757e-20)
(-3.67828e-05 20 3.80369e-20)
(-3.67736e-05 20 5.93191e-20)
(-3.67644e-05 20 6.83978e-20)
(-3.67552e-05 20 2.02815e-20)
(-3.6746e-05 20 9.70169e-20)
(-3.67368e-05 20 6.84228e-20)
(-3.67275e-05 20 8.45738e-20)
(-3.67183e-05 20 4.90613e-21)
(-3.67091e-05 20 1.07478e-19)
(-3.66998e-05 20 9.64025e-20)
(-3.66906e-05 20 7.39116e-20)
(-3.66813e-05 20 -5.06024e-21)
(-3.6672e-05 20 7.13296e-20)
(-3.66627e-05 20 8.45391e-20)
(-3.66535e-05 20 9.66969e-20)
(-3.66442e-05 20 3.38107e-20)
(-3.66349e-05 20 1.07271e-19)
(-3.66256e-05 20 1.19495e-19)
(-3.66163e-05 20 1.0441e-19)
(-3.6607e-05 20 3.79171e-20)
(-3.65977e-05 20 1.02573e-19)
(-3.65884e-05 20 7.67094e-20)
(-3.6579e-05 20 8.01983e-20)
(-3.65697e-05 20 2.00654e-20)
(-3.65604e-05 20 1.10747e-19)
(-3.6551e-05 20 1.21444e-19)
(-3.65417e-05 20 1.24504e-19)
(-3.65323e-05 20 4.37824e-20)
(-3.6523e-05 20 1.26456e-19)
(-3.65136e-05 20 1.13684e-19)
(-3.65042e-05 20 1.09744e-19)
(-3.64948e-05 20 2.91409e-20)
(-3.64854e-05 20 5.47015e-20)
(-3.6476e-05 20 5.86144e-20)
(-3.64666e-05 20 5.0527e-20)
(-3.64572e-05 20 -2.59528e-23)
(-3.64478e-05 20 8.43373e-20)
(-3.64384e-05 20 6.85329e-20)
(-3.64289e-05 20 7.51687e-20)
(-3.64195e-05 20 1.56705e-20)
(-3.641e-05 20 1.1205e-19)
(-3.64005e-05 20 1.22989e-19)
(-3.63911e-05 20 1.33111e-19)
(-3.63816e-05 20 4.93468e-20)
(-3.63721e-05 20 1.40035e-19)
(-3.63626e-05 20 1.38674e-19)
(-3.63531e-05 20 1.40889e-19)
(-3.63435e-05 20 5.73855e-20)
(-3.6334e-05 20 8.52893e-20)
(-3.63245e-05 20 7.44038e-20)
(-3.63149e-05 20 8.20533e-20)
(-3.63054e-05 20 2.009e-20)
(-3.62958e-05 20 1.22065e-19)
(-3.62862e-05 20 1.47043e-19)
(-3.62766e-05 20 1.39916e-19)
(-3.6267e-05 20 1.4345e-19)
(-3.62574e-05 20 1.75511e-19)
(-3.62478e-05 20 2.15782e-19)
(-3.62382e-05 20 2.62857e-19)
(-3.62285e-05 20 3.16227e-19)
(-3.62189e-05 20 3.3701e-19)
(-3.62092e-05 20 3.84598e-19)
(-3.61995e-05 20 3.87897e-19)
(-3.61899e-05 20 3.71941e-19)
(-3.61802e-05 20 3.77814e-19)
(-3.61705e-05 20 3.76733e-19)
(-3.61608e-05 20 3.85455e-19)
(-3.6151e-05 20 4.00775e-19)
(-3.61413e-05 20 4.09049e-19)
(-3.61316e-05 20 4.24309e-19)
(-3.61218e-05 20 4.37819e-19)
(-3.6112e-05 20 4.38262e-19)
(-3.61023e-05 20 4.41289e-19)
(-3.60925e-05 20 4.36175e-19)
(-3.60827e-05 20 4.25618e-19)
(-3.60729e-05 20 4.19605e-19)
(-3.60631e-05 20 4.34378e-19)
(-3.60533e-05 20 4.17262e-19)
(-3.60434e-05 20 4.42142e-19)
(-3.60336e-05 20 4.14885e-19)
(-3.60238e-05 20 3.9972e-19)
(-3.60139e-05 20 3.85547e-19)
(-3.6004e-05 20 3.95016e-19)
(-3.59942e-05 20 4.09997e-19)
(-3.59843e-05 20 4.28434e-19)
(-3.59744e-05 20 4.29823e-19)
(-3.59645e-05 20 4.40872e-19)
(-3.59546e-05 20 4.28327e-19)
(-3.59447e-05 20 4.23141e-19)
(-3.59348e-05 20 4.03445e-19)
(-3.59248e-05 20 3.99709e-19)
(-3.59149e-05 20 4.02469e-19)
(-3.5905e-05 20 4.1412e-19)
(-3.5895e-05 20 4.17557e-19)
(-3.58851e-05 20 4.29552e-19)
(-3.58751e-05 20 4.22756e-19)
(-3.58652e-05 20 4.2014e-19)
(-3.58552e-05 20 4.01437e-19)
(-3.58452e-05 20 3.99854e-19)
(-3.58353e-05 20 4.05854e-19)
(-3.58253e-05 20 4.14063e-19)
(-3.58153e-05 20 4.22813e-19)
(-3.58053e-05 20 4.29223e-19)
(-3.57953e-05 20 4.1959e-19)
(-3.57853e-05 20 4.17027e-19)
(-3.57753e-05 20 3.95281e-19)
(-3.57653e-05 20 3.97352e-19)
(-3.57553e-05 20 3.963e-19)
(-3.57453e-05 20 4.08777e-19)
(-3.57353e-05 20 4.00487e-19)
(-3.57252e-05 20 4.03855e-19)
(-3.57152e-05 20 3.68918e-19)
(-3.57051e-05 20 3.82202e-19)
(-3.5695e-05 20 3.35438e-19)
(-3.56849e-05 20 3.3073e-19)
(-3.56747e-05 20 3.20123e-19)
(-3.56645e-05 20 3.21922e-19)
(-3.56542e-05 20 4.20215e-19)
(-3.56439e-05 20 3.92019e-19)
(-3.56335e-05 20 3.14358e-19)
(-3.5623e-05 20 1.58798e-19)
(-3.56125e-05 20 1.8539e-19)
(-3.56017e-05 20 1.63158e-19)
(-3.5591e-05 20 1.36941e-19)
(-3.55796e-05 20 4.44348e-20)
(-3.55689e-05 20 1.22373e-19)
(-3.55567e-05 20 1.31546e-19)
(-3.55458e-05 20 1.21155e-19)
(-3.55331e-05 20 3.93071e-20)
(-3.55191e-05 20 1.19067e-19)
(-3.55109e-05 20 1.29918e-19)
(-3.54952e-05 20 1.23126e-19)
(-4.74929e-05 20 3.5116e-19)
(-4.74834e-05 20 3.51991e-19)
(-4.74735e-05 20 3.52073e-19)
(-4.74626e-05 20 3.4675e-19)
(-4.74523e-05 20 3.38077e-19)
(-4.74419e-05 20 3.24717e-19)
(-4.7431e-05 20 3.37147e-19)
(-4.74199e-05 20 3.05882e-19)
(-4.74087e-05 20 3.2203e-19)
(-4.73974e-05 20 2.97001e-19)
(-4.73859e-05 20 2.55452e-19)
(-4.73744e-05 20 2.99077e-19)
(-4.73629e-05 20 2.51784e-19)
(-4.73512e-05 20 1.81256e-19)
(-4.73396e-05 20 4.93549e-20)
(-4.73279e-05 20 2.37559e-20)
(-4.73162e-05 20 8.62143e-21)
(-4.73044e-05 20 -2.13462e-21)
(-4.72927e-05 20 -9.1714e-20)
(-4.72809e-05 20 -5.89052e-20)
(-4.72691e-05 20 -4.17161e-20)
(-4.72574e-05 20 -1.39132e-20)
(-4.72456e-05 20 -6.14986e-20)
(-4.72338e-05 20 -1.30483e-20)
(-4.7222e-05 20 -2.44634e-20)
(-4.72102e-05 20 8.94415e-22)
(-4.71984e-05 20 -6.6349e-20)
(-4.71865e-05 20 -4.15767e-21)
(-4.71747e-05 20 -4.83039e-21)
(-4.71629e-05 20 -4.41182e-21)
(-4.7151e-05 20 -7.46934e-20)
(-4.71391e-05 20 -3.0694e-20)
(-4.71273e-05 20 -1.5419e-20)
(-4.71154e-05 20 1.27263e-20)
(-4.71035e-05 20 -4.40211e-20)
(-4.70916e-05 20 1.63016e-21)
(-4.70797e-05 20 1.45836e-20)
(-4.70678e-05 20 2.40166e-20)
(-4.70559e-05 20 -3.96521e-20)
(-4.70439e-05 20 -2.93147e-21)
(-4.7032e-05 20 -1.47607e-20)
(-4.702e-05 20 2.45861e-21)
(-4.70081e-05 20 -5.35287e-20)
(-4.69961e-05 20 4.83916e-21)
(-4.69842e-05 20 1.90195e-20)
(-4.69722e-05 20 3.97016e-20)
(-4.69602e-05 20 -2.95092e-20)
(-4.69482e-05 20 1.78426e-20)
(-4.69362e-05 20 1.42112e-20)
(-4.69242e-05 20 2.46947e-20)
(-4.69121e-05 20 -4.87474e-20)
(-4.69001e-05 20 -3.80865e-20)
(-4.6888e-05 20 -3.61811e-20)
(-4.6876e-05 20 -2.51508e-20)
(-4.68639e-05 20 -7.6104e-20)
(-4.68518e-05 20 -2.16487e-20)
(-4.68397e-05 20 -2.40868e-20)
(-4.68276e-05 20 -2.52325e-21)
(-4.68155e-05 20 -5.54693e-20)
(-4.68034e-05 20 6.99243e-21)
(-4.67912e-05 20 2.31385e-20)
(-4.67791e-05 20 4.78322e-20)
(-4.67669e-05 20 -2.31039e-20)
(-4.67547e-05 20 3.31406e-20)
(-4.67425e-05 20 3.77059e-20)
(-4.67303e-05 20 5.27967e-20)
(-4.67181e-05 20 -2.25033e-20)
(-4.67059e-05 20 -1.03422e-20)
(-4.66937e-05 20 -1.61308e-20)
(-4.66814e-05 20 8.11006e-21)
(-4.66691e-05 20 -5.23537e-20)
(-4.66569e-05 20 2.31385e-20)
(-4.66446e-05 20 4.92605e-20)
(-4.66323e-05 20 6.91418e-20)
(-4.662e-05 20 7.95524e-20)
(-4.66076e-05 20 1.09253e-19)
(-4.65953e-05 20 1.48122e-19)
(-4.65829e-05 20 1.91958e-19)
(-4.65706e-05 20 2.38971e-19)
(-4.65582e-05 20 2.65346e-19)
(-4.65458e-05 20 3.03277e-19)
(-4.65334e-05 20 3.11379e-19)
(-4.65209e-05 20 3.02351e-19)
(-4.65085e-05 20 3.04926e-19)
(-4.64961e-05 20 3.04191e-19)
(-4.64836e-05 20 3.10923e-19)
(-4.64711e-05 20 3.25061e-19)
(-4.64586e-05 20 3.34072e-19)
(-4.64461e-05 20 3.456e-19)
(-4.64336e-05 20 3.56287e-19)
(-4.64211e-05 20 3.58804e-19)
(-4.64085e-05 20 3.6062e-19)
(-4.6396e-05 20 3.57706e-19)
(-4.63834e-05 20 3.49236e-19)
(-4.63708e-05 20 3.4393e-19)
(-4.63582e-05 20 3.53572e-19)
(-4.63456e-05 20 3.43969e-19)
(-4.6333e-05 20 3.56357e-19)
(-4.63204e-05 20 3.39488e-19)
(-4.63077e-05 20 3.25603e-19)
(-4.62951e-05 20 3.13898e-19)
(-4.62824e-05 20 3.20322e-19)
(-4.62697e-05 20 3.32621e-19)
(-4.6257e-05 20 3.464e-19)
(-4.62443e-05 20 3.51566e-19)
(-4.62316e-05 20 3.57091e-19)
(-4.62189e-05 20 3.5024e-19)
(-4.62061e-05 20 3.45232e-19)
(-4.61934e-05 20 3.30565e-19)
(-4.61806e-05 20 3.26314e-19)
(-4.61679e-05 20 3.28187e-19)
(-4.61551e-05 20 3.36814e-19)
(-4.61423e-05 20 3.41195e-19)
(-4.61295e-05 20 3.48452e-19)
(-4.61167e-05 20 3.43857e-19)
(-4.61039e-05 20 3.40428e-19)
(-4.60911e-05 20 3.27345e-19)
(-4.60782e-05 20 3.23774e-19)
(-4.60654e-05 20 3.28735e-19)
(-4.60525e-05 20 3.35515e-19)
(-4.60397e-05 20 3.43676e-19)
(-4.60268e-05 20 3.48523e-19)
(-4.60139e-05 20 3.41172e-19)
(-4.6001e-05 20 3.37264e-19)
(-4.59882e-05 20 3.22469e-19)
(-4.59752e-05 20 3.19802e-19)
(-4.59623e-05 20 3.19295e-19)
(-4.59494e-05 20 3.25899e-19)
(-4.59364e-05 20 3.21856e-19)
(-4.59235e-05 20 3.21446e-19)
(-4.59105e-05 20 2.95227e-19)
(-4.58975e-05 20 3.00338e-19)
(-4.58844e-05 20 2.6093e-19)
(-4.58714e-05 20 2.62336e-19)
(-4.58583e-05 20 2.43015e-19)
(-4.58451e-05 20 2.45938e-19)
(-4.58319e-05 20 3.1879e-19)
(-4.58186e-05 20 3.00458e-19)
(-4.58052e-05 20 2.44341e-19)
(-4.57918e-05 20 9.71838e-20)
(-4.57782e-05 20 8.85286e-20)
(-4.57644e-05 20 6.64897e-20)
(-4.57508e-05 20 5.66733e-20)
(-4.57364e-05 20 -2.80944e-20)
(-4.57227e-05 20 1.71986e-20)
(-4.57076e-05 20 2.92026e-20)
(-4.56935e-05 20 3.80717e-20)
(-4.56783e-05 20 -3.45628e-20)
(-4.5661e-05 20 1.37573e-20)
(-4.56492e-05 20 2.9556e-20)
(-4.56321e-05 20 4.22798e-20)
(-4.5609e-05 20 -3.06895e-20)
(-5.80391e-05 20 2.69283e-19)
(-5.80269e-05 20 2.70672e-19)
(-5.80146e-05 20 2.6985e-19)
(-5.80013e-05 20 2.65891e-19)
(-5.79884e-05 20 2.57954e-19)
(-5.79754e-05 20 2.47622e-19)
(-5.79621e-05 20 2.5345e-19)
(-5.79485e-05 20 2.29244e-19)
(-5.79348e-05 20 2.38046e-19)
(-5.79209e-05 20 2.0517e-19)
(-5.7907e-05 20 1.83685e-19)
(-5.7893e-05 20 1.97063e-19)
(-5.78789e-05 20 1.48989e-19)
(-5.78647e-05 20 9.44581e-20)
(-5.78505e-05 20 -2.07988e-20)
(-5.78363e-05 20 -6.0109e-20)
(-5.7822e-05 20 -8.57862e-20)
(-5.78077e-05 20 -8.75672e-20)
(-5.77934e-05 20 -1.53794e-19)
(-5.77791e-05 20 -1.40423e-19)
(-5.77648e-05 20 -1.30617e-19)
(-5.77504e-05 20 -9.79268e-20)
(-5.77361e-05 20 -1.31512e-19)
(-5.77217e-05 20 -1.04858e-19)
(-5.77073e-05 20 -1.12291e-19)
(-5.76929e-05 20 -8.38114e-20)
(-5.76785e-05 20 -1.29769e-19)
(-5.76641e-05 20 -9.62043e-20)
(-5.76497e-05 20 -9.76718e-20)
(-5.76352e-05 20 -8.56651e-20)
(-5.76208e-05 20 -1.3557e-19)
(-5.76063e-05 20 -1.13531e-19)
(-5.75919e-05 20 -1.06277e-19)
(-5.75774e-05 20 -7.35813e-20)
(-5.75629e-05 20 -1.12366e-19)
(-5.75484e-05 20 -8.86122e-20)
(-5.75339e-05 20 -8.07046e-20)
(-5.75193e-05 20 -5.92567e-20)
(-5.75048e-05 20 -1.06695e-19)
(-5.74903e-05 20 -9.0807e-20)
(-5.74757e-05 20 -1.00219e-19)
(-5.74611e-05 20 -7.74399e-20)
(-5.74466e-05 20 -1.17141e-19)
(-5.7432e-05 20 -8.42742e-20)
(-5.74174e-05 20 -7.33601e-20)
(-5.74028e-05 20 -4.57976e-20)
(-5.73882e-05 20 -9.37442e-20)
(-5.73735e-05 20 -7.31626e-20)
(-5.73589e-05 20 -7.79449e-20)
(-5.73442e-05 20 -6.08149e-20)
(-5.73295e-05 20 -1.16204e-19)
(-5.73148e-05 20 -1.16829e-19)
(-5.73001e-05 20 -1.21758e-19)
(-5.72854e-05 20 -1.03065e-19)
(-5.72707e-05 20 -1.39754e-19)
(-5.72559e-05 20 -1.08943e-19)
(-5.72412e-05 20 -1.10213e-19)
(-5.72264e-05 20 -8.22042e-20)
(-5.72116e-05 20 -1.17752e-19)
(-5.71968e-05 20 -8.12462e-20)
(-5.7182e-05 20 -6.96612e-20)
(-5.71672e-05 20 -3.86016e-20)
(-5.71523e-05 20 -8.79341e-20)
(-5.71375e-05 20 -5.6815e-20)
(-5.71226e-05 20 -5.53322e-20)
(-5.71077e-05 20 -3.60672e-20)
(-5.70928e-05 20 -9.19203e-20)
(-5.70779e-05 20 -9.17686e-20)
(-5.70629e-05 20 -9.98402e-20)
(-5.7048e-05 20 -6.89504e-20)
(-5.7033e-05 20 -1.14639e-19)
(-5.7018e-05 20 -5.72939e-20)
(-5.7003e-05 20 -4.48722e-20)
(-5.6988e-05 20 1.54673e-21)
(-5.6973e-05 20 1.7916e-20)
(-5.69579e-05 20 4.68786e-20)
(-5.69429e-05 20 8.35555e-20)
(-5.69278e-05 20 1.22852e-19)
(-5.69127e-05 20 1.64032e-19)
(-5.68976e-05 20 1.93714e-19)
(-5.68824e-05 20 2.25652e-19)
(-5.68673e-05 20 2.34759e-19)
(-5.68521e-05 20 2.30815e-19)
(-5.68369e-05 20 2.32638e-19)
(-5.68217e-05 20 2.31302e-19)
(-5.68065e-05 20 2.36884e-19)
(-5.67913e-05 20 2.49782e-19)
(-5.67761e-05 20 2.58253e-19)
(-5.67608e-05 20 2.66563e-19)
(-5.67455e-05 20 2.74922e-19)
(-5.67302e-05 20 2.78074e-19)
(-5.67149e-05 20 2.79806e-19)
(-5.66996e-05 20 2.78567e-19)
(-5.66842e-05 20 2.71441e-19)
(-5.66689e-05 20 2.67055e-19)
(-5.66535e-05 20 2.7361e-19)
(-5.66381e-05 20 2.6821e-19)
(-5.66227e-05 20 2.72885e-19)
(-5.66072e-05 20 2.62289e-19)
(-5.65918e-05 20 2.50181e-19)
(-5.65763e-05 20 2.4086e-19)
(-5.65609e-05 20 2.46401e-19)
(-5.65454e-05 20 2.55667e-19)
(-5.65299e-05 20 2.65103e-19)
(-5.65144e-05 20 2.72292e-19)
(-5.64988e-05 20 2.74139e-19)
(-5.64833e-05 20 2.71583e-19)
(-5.64677e-05 20 2.67165e-19)
(-5.64521e-05 20 2.56061e-19)
(-5.64365e-05 20 2.52777e-19)
(-5.64209e-05 20 2.53396e-19)
(-5.64053e-05 20 2.59779e-19)
(-5.63897e-05 20 2.63667e-19)
(-5.6374e-05 20 2.68217e-19)
(-5.63584e-05 20 2.64512e-19)
(-5.63427e-05 20 2.60644e-19)
(-5.6327e-05 20 2.51637e-19)
(-5.63113e-05 20 2.47531e-19)
(-5.62956e-05 20 2.51286e-19)
(-5.62799e-05 20 2.56985e-19)
(-5.62642e-05 20 2.64065e-19)
(-5.62484e-05 20 2.68341e-19)
(-5.62326e-05 20 2.62155e-19)
(-5.62169e-05 20 2.58097e-19)
(-5.62011e-05 20 2.4845e-19)
(-5.61853e-05 20 2.43212e-19)
(-5.61694e-05 20 2.41719e-19)
(-5.61536e-05 20 2.44347e-19)
(-5.61377e-05 20 2.42533e-19)
(-5.61218e-05 20 2.39703e-19)
(-5.61059e-05 20 2.20326e-19)
(-5.609e-05 20 2.19063e-19)
(-5.6074e-05 20 1.88333e-19)
(-5.6058e-05 20 1.90809e-19)
(-5.60419e-05 20 1.63491e-19)
(-5.60258e-05 20 1.74962e-19)
(-5.60096e-05 20 2.11352e-19)
(-5.59934e-05 20 1.87973e-19)
(-5.5977e-05 20 1.46727e-19)
(-5.59606e-05 20 2.84716e-20)
(-5.59441e-05 20 -8.82886e-22)
(-5.59273e-05 20 -2.92388e-20)
(-5.59107e-05 20 -2.85293e-20)
(-5.58934e-05 20 -9.1838e-20)
(-5.58766e-05 20 -7.10686e-20)
(-5.58587e-05 20 -6.62727e-20)
(-5.58412e-05 20 -4.66967e-20)
(-5.58235e-05 20 -9.88693e-20)
(-5.58031e-05 20 -7.26299e-20)
(-5.57877e-05 20 -6.30314e-20)
(-5.57682e-05 20 -4.08176e-20)
(-5.57431e-05 20 -9.2751e-20)
(-5.57204e-05 20 -6.71878e-20)
(-6.85855e-05 20 2.65075e-19)
(-6.85706e-05 20 2.65976e-19)
(-6.85559e-05 20 2.65093e-19)
(-6.85401e-05 20 2.61442e-19)
(-6.85246e-05 20 2.54122e-19)
(-6.85091e-05 20 2.47249e-19)
(-6.84933e-05 20 2.45854e-19)
(-6.84772e-05 20 2.29831e-19)
(-6.8461e-05 20 2.29589e-19)
(-6.84446e-05 20 1.91216e-19)
(-6.84282e-05 20 1.82978e-19)
(-6.84116e-05 20 1.15538e-19)
(-6.8395e-05 20 1.06856e-19)
(-6.83783e-05 20 1.05913e-20)
(-6.83616e-05 20 -3.82568e-20)
(-6.83448e-05 20 -1.28936e-19)
(-6.8328e-05 20 -1.1071e-19)
(-6.83111e-05 20 -1.5708e-19)
(-6.82943e-05 20 -1.57187e-19)
(-6.82774e-05 20 -2.03838e-19)
(-6.82605e-05 20 -1.48453e-19)
(-6.82436e-05 20 -1.64923e-19)
(-6.82266e-05 20 -1.39433e-19)
(-6.82097e-05 20 -1.74647e-19)
(-6.81927e-05 20 -1.30144e-19)
(-6.81758e-05 20 -1.50785e-19)
(-6.81588e-05 20 -1.33475e-19)
(-6.81418e-05 20 -1.66101e-19)
(-6.81248e-05 20 -1.20384e-19)
(-6.81077e-05 20 -1.50906e-19)
(-6.80907e-05 20 -1.3719e-19)
(-6.80736e-05 20 -1.75189e-19)
(-6.80566e-05 20 -1.24585e-19)
(-6.80395e-05 20 -1.4167e-19)
(-6.80224e-05 20 -1.18234e-19)
(-6.80053e-05 20 -1.57197e-19)
(-6.79882e-05 20 -1.03787e-19)
(-6.7971e-05 20 -1.26616e-19)
(-6.79539e-05 20 -1.12122e-19)
(-6.79367e-05 20 -1.57936e-19)
(-6.79196e-05 20 -1.17037e-19)
(-6.79024e-05 20 -1.40166e-19)
(-6.78852e-05 20 -1.18816e-19)
(-6.7868e-05 20 -1.50985e-19)
(-6.78507e-05 20 -9.4359e-20)
(-6.78335e-05 20 -1.12325e-19)
(-6.78162e-05 20 -9.83253e-20)
(-6.7799e-05 20 -1.41873e-19)
(-6.77817e-05 20 -9.83627e-20)
(-6.77644e-05 20 -1.26752e-19)
(-6.7747e-05 20 -1.20397e-19)
(-6.77297e-05 20 -1.76863e-19)
(-6.77124e-05 20 -1.36271e-19)
(-6.7695e-05 20 -1.63819e-19)
(-6.76776e-05 20 -1.41351e-19)
(-6.76602e-05 20 -1.74261e-19)
(-6.76428e-05 20 -1.26218e-19)
(-6.76253e-05 20 -1.44534e-19)
(-6.76079e-05 20 -1.19892e-19)
(-6.75904e-05 20 -1.48097e-19)
(-6.75729e-05 20 -8.94855e-20)
(-6.75554e-05 20 -1.06939e-19)
(-6.75379e-05 20 -9.25325e-20)
(-6.75203e-05 20 -1.26373e-19)
(-6.75028e-05 20 -7.93769e-20)
(-6.74852e-05 20 -1.07289e-19)