/*--------------------------------*- C++ -*----------------------------------*\
| =========                 |                                                 |
| \\      /  F ield         | OpenFOAM: The Open Source CFD Toolbox           |
|  \\    /   O peration     | Version:  2512                                  |
|   \\  /    A nd           | Website:  www.openfoam.com                      |
|    \\/     M anipulation  |                                                 |
\*---------------------------------------------------------------------------*/
FoamFile
{
    version     2.0;
    format      ascii;
    arch        "LSB;label=32;scalar=64";
    class       volScalarField;
    location    "0.1";
    object      p;
}
// * * * * * * * * * * * * * * * * * * * * * * * * * * * * * * * * * * * * * //

dimensions      [1 -1 -2 0 0 0 0];

internalField   nonuniform List<scalar> 
8333
(
-293.492
-297.731
-298.223
-298.717
-299.213
-299.71
-300.208
-300.707
-301.208
-301.71
-302.213
-302.718
-303.224
-303.732
-304.24
-304.75
-305.262
-305.774
-306.288
-306.804
-307.32
-307.838
-308.357
-308.878
-309.4
-309.923
-310.447
-310.973
-311.5
-312.028
-312.558
-313.089
-313.621
-314.154
-314.689
-315.225
-315.762
-316.301
-316.841
-317.382
-317.924
-318.468
-319.013
-319.559
-320.107
-320.655
-321.206
-321.757
-322.309
-322.863
-323.418
-323.975
-324.532
-325.091
-325.651
-326.213
-326.775
-327.339
-327.904
-328.47
-329.038
-329.607
-330.177
-330.748
-331.32
-331.894
-332.469
-333.045
-333.623
-334.201
-334.781
-335.362
-335.944
-336.528
-337.113
-337.698
-338.286
-338.874
-339.463
-340.054
-340.646
-341.239
-341.833
-342.429
-343.025
-343.623
-344.222
-344.822
-345.424
-346.026
-346.63
-347.235
-347.841
-348.448
-349.057
-349.666
-350.277
-350.889
-351.502
-352.116
-352.732
-353.348
-353.966
-354.585
-355.204
-355.825
-356.448
-357.071
-357.695
-358.321
-358.948
-359.576
-360.205
-360.835
-361.466
-362.098
-362.732
-363.366
-364.002
-364.638
-365.276
-365.915
-366.555
-367.196
-367.838
-368.482
-369.126
-369.771
-370.418
-371.066
-371.714
-372.364
-373.015
-373.667
-374.319
-374.973
-375.628
-376.284
-376.942
-377.6
-378.259
-378.919
-379.58
-380.243
-380.906
-381.57
-382.236
-382.902
-383.57
-384.238
-301.969
-302.462
-302.956
-303.451
-303.948
-304.446
-304.946
-305.446
-305.948
-306.452
-306.957
-307.463
-307.97
-308.479
-308.989
-309.5
-310.013
-310.527
-311.042
-311.559
-312.076
-312.596
-313.116
-313.638
-314.161
-314.685
-315.211
-315.738
-316.266
-316.796
-317.327
-317.859
-318.392
-318.927
-319.463
-320.001
-320.539
-321.079
-321.62
-322.163
-322.706
-323.251
-323.797
-324.345
-324.894
-325.444
-325.995
-326.548
-327.101
-327.657
-328.213
-328.77
-329.329
-329.889
-330.451
-331.013
-331.577
-332.142
-332.709
-333.276
-333.845
-334.415
-334.986
-335.559
-336.132
-336.707
-337.283
-337.861
-338.439
-339.019
-339.6
-340.183
-340.766
-341.351
-341.937
-342.524
-343.112
-343.702
-344.292
-344.884
-345.477
-346.072
-346.667
-347.264
-347.861
-348.46
-349.061
-349.662
-350.265
-350.868
-351.473
-352.079
-352.687
-353.295
-353.905
-354.515
-355.127
-355.74
-356.354
-356.97
-357.586
-358.204
-358.823
-359.443
-360.064
-360.686
-361.309
-361.934
-362.559
-363.186
-363.814
-364.443
-365.073
-365.704
-366.336
-366.97
-367.604
-368.24
-368.877
-369.514
-370.153
-370.793
-371.434
-372.077
-372.72
-373.364
-374.01
-374.656
-375.304
-375.952
-376.602
-377.253
-377.905
-378.558
-379.212
-379.867
-380.523
-381.18
-381.838
-382.497
-383.157
-383.819
-384.481
-385.144
-385.809
-386.474
-387.14
-387.808
-388.476
-389.145
-306.207
-306.699
-307.193
-307.689
-308.186
-308.684
-309.183
-309.684
-310.186
-310.69
-311.194
-311.7
-312.208
-312.717
-313.227
-313.738
-314.251
-314.765
-315.28
-315.796
-316.314
-316.834
-317.354
-317.876
-318.399
-318.923
-319.449
-319.976
-320.504
-321.034
-321.565
-322.097
-322.63
-323.165
-323.701
-324.239
-324.777
-325.317
-325.858
-326.401
-326.944
-327.489
-328.035
-328.583
-329.132
-329.682
-330.233
-330.786
-331.339
-331.895
-332.451
-333.008
-333.567
-334.127
-334.689
-335.251
-335.815
-336.38
-336.947
-337.514
-338.083
-338.653
-339.224
-339.797
-340.37
-340.945
-341.522
-342.099
-342.678
-343.257
-343.838
-344.421
-345.004
-345.589
-346.175
-346.762
-347.35
-347.94
-348.53
-349.122
-349.715
-350.31
-350.905
-351.502
-352.1
-352.699
-353.299
-353.9
-354.503
-355.106
-355.711
-356.317
-356.925
-357.533
-358.143
-358.753
-359.365
-359.978
-360.592
-361.208
-361.824
-362.442
-363.061
-363.681
-364.302
-364.924
-365.547
-366.172
-366.797
-367.424
-368.052
-368.681
-369.311
-369.942
-370.574
-371.208
-371.842
-372.478
-373.115
-373.752
-374.391
-375.031
-375.672
-376.315
-376.958
-377.602
-378.248
-378.894
-379.542
-380.19
-380.84
-381.491
-382.143
-382.796
-383.45
-384.105
-384.761
-385.418
-386.076
-386.735
-387.395
-388.057
-388.719
-389.382
-390.047
-390.712
-391.378
-392.046
-392.714
-393.383
-310.445
-310.938
-311.432
-311.927
-312.424
-312.922
-313.422
-313.923
-314.425
-314.928
-315.433
-315.939
-316.446
-316.955
-317.465
-317.976
-318.489
-319.003
-319.518
-320.035
-320.553
-321.072
-321.592
-322.114
-322.637
-323.162
-323.687
-324.214
-324.743
-325.272
-325.803
-326.335
-326.869
-327.403
-327.939
-328.477
-329.015
-329.555
-330.096
-330.639
-331.182
-331.727
-332.274
-332.821
-333.37
-333.92
-334.471
-335.024
-335.578
-336.133
-336.689
-337.247
-337.805
-338.366
-338.927
-339.489
-340.053
-340.618
-341.185
-341.752
-342.321
-342.891
-343.462
-344.035
-344.609
-345.183
-345.76
-346.337
-346.916
-347.495
-348.077
-348.659
-349.242
-349.827
-350.413
-351
-351.588
-352.178
-352.768
-353.36
-353.953
-354.548
-355.143
-355.74
-356.338
-356.937
-357.537
-358.138
-358.741
-359.345
-359.949
-360.556
-361.163
-361.771
-362.381
-362.991
-363.603
-364.216
-364.831
-365.446
-366.062
-366.68
-367.299
-367.919
-368.54
-369.162
-369.785
-370.41
-371.035
-371.662
-372.29
-372.919
-373.549
-374.18
-374.812
-375.446
-376.08
-376.716
-377.353
-377.991
-378.629
-379.269
-379.911
-380.553
-381.196
-381.84
-382.486
-383.132
-383.78
-384.429
-385.078
-385.729
-386.381
-387.034
-387.688
-388.343
-388.999
-389.656
-390.314
-390.973
-391.634
-392.295
-392.957
-393.62
-394.285
-394.95
-395.617
-396.284
-396.952
-397.621
-398.292
-314.683
-315.176
-315.67
-316.165
-316.662
-317.16
-317.66
-318.161
-318.663
-319.166
-319.671
-320.177
-320.684
-321.193
-321.703
-322.214
-322.727
-323.241
-323.756
-324.273
-324.791
-325.31
-325.83
-326.352
-326.875
-327.4
-327.925
-328.452
-328.981
-329.51
-330.041
-330.573
-331.107
-331.641
-332.177
-332.715
-333.253
-333.793
-334.334
-334.877
-335.421
-335.965
-336.512
-337.059
-337.608
-338.158
-338.709
-339.262
-339.816
-340.371
-340.927
-341.485
-342.044
-342.604
-343.165
-343.728
-344.291
-344.856
-345.423
-345.99
-346.559
-347.129
-347.7
-348.273
-348.847
-349.422
-349.998
-350.575
-351.154
-351.734
-352.315
-352.897
-353.48
-354.065
-354.651
-355.238
-355.826
-356.416
-357.006
-357.598
-358.191
-358.786
-359.381
-359.978
-360.576
-361.175
-361.775
-362.376
-362.979
-363.583
-364.188
-364.794
-365.401
-366.009
-366.619
-367.23
-367.841
-368.454
-369.069
-369.684
-370.301
-370.918
-371.537
-372.157
-372.778
-373.4
-374.023
-374.648
-375.273
-375.9
-376.528
-377.157
-377.787
-378.418
-379.051
-379.684
-380.318
-380.954
-381.591
-382.229
-382.868
-383.508
-384.149
-384.791
-385.434
-386.078
-386.724
-387.37
-388.018
-388.667
-389.316
-389.967
-390.619
-391.272
-391.926
-392.581
-393.237
-393.894
-394.552
-395.211
-395.872
-396.533
-397.195
-397.859
-398.523
-399.188
-399.855
-400.522
-401.19
-401.86
-402.53
-403.201
-318.921
-319.414
-319.908
-320.404
-320.9
-321.398
-321.898
-322.399
-322.901
-323.404
-323.909
-324.415
-324.922
-325.431
-325.941
-326.452
-326.965
-327.479
-327.994
-328.511
-329.029
-329.548
-330.068
-330.59
-331.113
-331.638
-332.164
-332.691
-333.219
-333.748
-334.279
-334.811
-335.345
-335.88
-336.416
-336.953
-337.492
-338.031
-338.573
-339.115
-339.659
-340.204
-340.75
-341.297
-341.846
-342.396
-342.947
-343.5
-344.054
-344.609
-345.165
-345.723
-346.282
-346.842
-347.403
-347.966
-348.53
-349.095
-349.661
-350.228
-350.797
-351.367
-351.939
-352.511
-353.085
-353.66
-354.236
-354.813
-355.392
-355.972
-356.553
-357.135
-357.718
-358.303
-358.889
-359.476
-360.064
-360.654
-361.245
-361.836
-362.43
-363.024
-363.619
-364.216
-364.814
-365.413
-366.013
-366.614
-367.217
-367.821
-368.426
-369.032
-369.639
-370.247
-370.857
-371.468
-372.08
-372.693
-373.307
-373.922
-374.539
-375.156
-375.775
-376.395
-377.016
-377.638
-378.262
-378.886
-379.512
-380.138
-380.766
-381.395
-382.025
-382.656
-383.289
-383.922
-384.557
-385.192
-385.829
-386.467
-387.106
-387.746
-388.387
-389.029
-389.672
-390.316
-390.962
-391.608
-392.256
-392.905
-393.554
-394.205
-394.857
-395.51
-396.164
-396.819
-397.475
-398.132
-398.79
-399.449
-400.11
-400.771
-401.433
-402.097
-402.761
-403.426
-404.093
-404.76
-405.428
-406.098
-406.768
-407.439
-408.112
-323.159
-323.652
-324.146
-324.642
-325.138
-325.637
-326.136
-326.637
-327.139
-327.642
-328.147
-328.653
-329.16
-329.669
-330.179
-330.691
-331.203
-331.717
-332.232
-332.749
-333.267
-333.786
-334.307
-334.828
-335.351
-335.876
-336.402
-336.929
-337.457
-337.986
-338.517
-339.049
-339.583
-340.118
-340.654
-341.191
-341.73
-342.269
-342.811
-343.353
-343.897
-344.442
-344.988
-345.535
-346.084
-346.634
-347.186
-347.738
-348.292
-348.847
-349.403
-349.961
-350.52
-351.08
-351.641
-352.204
-352.768
-353.333
-353.899
-354.467
-355.035
-355.605
-356.177
-356.749
-357.323
-357.898
-358.474
-359.051
-359.63
-360.21
-360.791
-361.373
-361.957
-362.541
-363.127
-363.714
-364.302
-364.892
-365.483
-366.075
-366.668
-367.262
-367.857
-368.454
-369.052
-369.651
-370.251
-370.852
-371.455
-372.059
-372.664
-373.27
-373.877
-374.485
-375.095
-375.706
-376.318
-376.931
-377.545
-378.16
-378.777
-379.394
-380.013
-380.633
-381.254
-381.876
-382.5
-383.124
-383.75
-384.376
-385.004
-385.633
-386.263
-386.894
-387.527
-388.16
-388.795
-389.43
-390.067
-390.705
-391.344
-391.984
-392.625
-393.267
-393.91
-394.555
-395.2
-395.847
-396.494
-397.143
-397.792
-398.443
-399.095
-399.748
-400.402
-401.057
-401.713
-402.37
-403.028
-403.688
-404.348
-405.009
-405.671
-406.335
-406.999
-407.664
-408.331
-408.998
-409.667
-410.336
-411.006
-411.678
-412.35
-327.397
-327.89
-328.384
-328.88
-329.377
-329.875
-330.374
-330.875
-331.377
-331.88
-332.385
-332.891
-333.399
-333.907
-334.417
-334.929
-335.441
-335.955
-336.47
-336.987
-337.505
-338.024
-338.545
-339.066
-339.59
-340.114
-340.64
-341.167
-341.695
-342.225
-342.755
-343.288
-343.821
-344.356
-344.892
-345.429
-345.968
-346.508
-347.049
-347.591
-348.135
-348.68
-349.226
-349.773
-350.322
-350.872
-351.424
-351.976
-352.53
-353.085
-353.641
-354.199
-354.758
-355.318
-355.879
-356.442
-357.006
-357.571
-358.137
-358.705
-359.273
-359.843
-360.415
-360.987
-361.561
-362.136
-362.712
-363.289
-363.868
-364.448
-365.029
-365.611
-366.195
-366.779
-367.365
-367.952
-368.541
-369.13
-369.721
-370.313
-370.906
-371.5
-372.095
-372.692
-373.29
-373.889
-374.489
-375.091
-375.693
-376.297
-376.902
-377.508
-378.115
-378.724
-379.333
-379.944
-380.556
-381.169
-381.783
-382.398
-383.015
-383.632
-384.251
-384.871
-385.492
-386.114
-386.738
-387.362
-387.988
-388.614
-389.242
-389.871
-390.501
-391.132
-391.765
-392.398
-393.033
-393.668
-394.305
-394.943
-395.582
-396.222
-396.863
-397.505
-398.148
-398.793
-399.438
-400.085
-400.732
-401.381
-402.031
-402.681
-403.333
-403.986
-404.64
-405.295
-405.951
-406.608
-407.266
-407.926
-408.586
-409.247
-409.909
-410.573
-411.237
-411.903
-412.569
-413.236
-413.905
-414.574
-415.244
-415.916
-416.588
-417.262
-331.635
-332.128
-332.622
-333.118
-333.615
-334.113
-334.612
-335.113
-335.615
-336.118
-336.623
-337.129
-337.637
-338.145
-338.655
-339.167
-339.679
-340.193
-340.709
-341.225
-341.743
-342.262
-342.783
-343.305
-343.828
-344.352
-344.878
-345.405
-345.933
-346.463
-346.994
-347.526
-348.059
-348.594
-349.13
-349.667
-350.206
-350.746
-351.287
-351.829
-352.373
-352.918
-353.464
-354.012
-354.56
-355.11
-355.662
-356.214
-356.768
-357.323
-357.879
-358.437
-358.996
-359.556
-360.117
-360.68
-361.244
-361.809
-362.375
-362.943
-363.511
-364.082
-364.653
-365.225
-365.799
-366.374
-366.95
-367.527
-368.106
-368.686
-369.267
-369.849
-370.433
-371.017
-371.603
-372.19
-372.779
-373.368
-373.959
-374.551
-375.144
-375.738
-376.334
-376.93
-377.528
-378.127
-378.727
-379.329
-379.931
-380.535
-381.14
-381.746
-382.353
-382.962
-383.571
-384.182
-384.794
-385.407
-386.021
-386.636
-387.253
-387.87
-388.489
-389.109
-389.73
-390.352
-390.976
-391.6
-392.226
-392.852
-393.48
-394.109
-394.739
-395.371
-396.003
-396.636
-397.271
-397.906
-398.543
-399.181
-399.82
-400.46
-401.101
-401.743
-402.386
-403.031
-403.676
-404.323
-404.97
-405.619
-406.269
-406.919
-407.571
-408.224
-408.878
-409.533
-410.189
-410.846
-411.505
-412.164
-412.824
-413.485
-414.148
-414.811
-415.475
-416.141
-416.807
-417.474
-418.143
-418.812
-419.483
-420.154
-420.826
-421.5
-422.175
-335.874
-336.366
-336.86
-337.356
-337.853
-338.351
-338.85
-339.351
-339.853
-340.357
-340.861
-341.367
-341.875
-342.383
-342.893
-343.405
-343.917
-344.431
-344.947
-345.463
-345.981
-346.5
-347.021
-347.543
-348.066
-348.59
-349.116
-349.643
-350.171
-350.701
-351.232
-351.764
-352.297
-352.832
-353.368
-353.905
-354.444
-354.984
-355.525
-356.067
-356.611
-357.156
-357.702
-358.25
-358.798
-359.348
-359.9
-360.452
-361.006
-361.561
-362.118
-362.675
-363.234
-363.794
-364.355
-364.918
-365.482
-366.047
-366.613
-367.181
-367.75
-368.32
-368.891
-369.463
-370.037
-370.612
-371.188
-371.766
-372.344
-372.924
-373.505
-374.087
-374.671
-375.255
-375.841
-376.428
-377.017
-377.606
-378.197
-378.789
-379.382
-379.976
-380.572
-381.168
-381.766
-382.365
-382.965
-383.567
-384.169
-384.773
-385.378
-385.984
-386.591
-387.2
-387.809
-388.42
-389.032
-389.645
-390.259
-390.874
-391.491
-392.109
-392.727
-393.347
-393.968
-394.59
-395.214
-395.838
-396.464
-397.091
-397.718
-398.347
-398.977
-399.609
-400.241
-400.874
-401.509
-402.144
-402.781
-403.419
-404.058
-404.698
-405.339
-405.981
-406.624
-407.269
-407.914
-408.561
-409.208
-409.857
-410.507
-411.157
-411.809
-412.462
-413.116
-413.771
-414.427
-415.084
-415.743
-416.402
-417.062
-417.723
-418.386
-419.049
-419.713
-420.379
-421.045
-421.712
-422.381
-423.05
-423.721
-424.392
-425.065
-425.738
-426.413
-340.112
-340.604
-341.099
-341.594
-342.091
-342.589
-343.088
-343.589
-344.091
-344.595
-345.099
-345.605
-346.113
-346.622
-347.132
-347.643
-348.156
-348.669
-349.185
-349.701
-350.219
-350.738
-351.259
-351.781
-352.304
-352.828
-353.354
-353.881
-354.409
-354.939
-355.47
-356.002
-356.535
-357.07
-357.606
-358.143
-358.682
-359.222
-359.763
-360.305
-360.849
-361.394
-361.94
-362.488
-363.037
-363.587
-364.138
-364.69
-365.244
-365.799
-366.356
-366.913
-367.472
-368.032
-368.593
-369.156
-369.72
-370.285
-370.851
-371.419
-371.988
-372.558
-373.129
-373.701
-374.275
-374.85
-375.426
-376.004
-376.582
-377.162
-377.743
-378.325
-378.909
-379.493
-380.079
-380.666
-381.255
-381.844
-382.435
-383.027
-383.62
-384.214
-384.81
-385.406
-386.004
-386.603
-387.203
-387.805
-388.407
-389.011
-389.616
-390.222
-390.829
-391.438
-392.047
-392.658
-393.27
-393.883
-394.497
-395.112
-395.729
-396.347
-396.965
-397.585
-398.206
-398.829
-399.452
-400.076
-400.702
-401.329
-401.956
-402.585
-403.215
-403.847
-404.479
-405.112
-405.747
-406.382
-407.019
-407.657
-408.296
-408.936
-409.577
-410.219
-410.862
-411.507
-412.152
-412.799
-413.446
-414.095
-414.745
-415.396
-416.047
-416.7
-417.354
-418.009
-418.665
-419.322
-419.981
-420.64
-421.3
-421.961
-422.624
-423.287
-423.951
-424.617
-425.283
-425.951
-426.619
-427.288
-427.959
-428.63
-429.303
-429.976
-430.651
-431.326
-344.35
-344.843
-345.337
-345.832
-346.329
-346.827
-347.326
-347.827
-348.329
-348.833
-349.337
-349.844
-350.351
-350.86
-351.37
-351.881
-352.394
-352.908
-353.423
-353.939
-354.457
-354.976
-355.497
-356.019
-356.542
-357.066
-357.592
-358.119
-358.647
-359.177
-359.708
-360.24
-360.773
-361.308
-361.844
-362.381
-362.92
-363.46
-364.001
-364.543
-365.087
-365.632
-366.178
-366.726
-367.275
-367.825
-368.376
-368.928
-369.482
-370.037
-370.594
-371.151
-371.71
-372.27
-372.832
-373.394
-373.958
-374.523
-375.089
-375.657
-376.226
-376.796
-377.367
-377.939
-378.513
-379.088
-379.664
-380.242
-380.82
-381.4
-381.981
-382.563
-383.147
-383.732
-384.317
-384.905
-385.493
-386.082
-386.673
-387.265
-387.858
-388.452
-389.048
-389.644
-390.242
-390.841
-391.441
-392.043
-392.645
-393.249
-393.854
-394.46
-395.067
-395.676
-396.285
-396.896
-397.508
-398.121
-398.735
-399.351
-399.967
-400.585
-401.203
-401.823
-402.444
-403.067
-403.69
-404.314
-404.94
-405.567
-406.195
-406.823
-407.454
-408.085
-408.717
-409.35
-409.985
-410.621
-411.257
-411.895
-412.534
-413.174
-413.815
-414.457
-415.101
-415.745
-416.39
-417.037
-417.684
-418.333
-418.983
-419.634
-420.285
-420.938
-421.592
-422.247
-422.903
-423.561
-424.219
-424.878
-425.538
-426.199
-426.862
-427.525
-428.189
-428.855
-429.521
-430.189
-430.857
-431.527
-432.197
-432.868
-433.541
-434.215
-434.889
-435.565
-436.241
-348.588
-349.081
-349.575
-350.07
-350.567
-351.065
-351.565
-352.065
-352.567
-353.071
-353.576
-354.082
-354.589
-355.098
-355.608
-356.119
-356.632
-357.146
-357.661
-358.177
-358.695
-359.215
-359.735
-360.257
-360.78
-361.304
-361.83
-362.357
-362.885
-363.415
-363.946
-364.478
-365.011
-365.546
-366.082
-366.619
-367.158
-367.698
-368.239
-368.781
-369.325
-369.87
-370.416
-370.964
-371.513
-372.063
-372.614
-373.167
-373.72
-374.275
-374.832
-375.389
-375.948
-376.508
-377.07
-377.632
-378.196
-378.761
-379.327
-379.895
-380.464
-381.034
-381.605
-382.178
-382.751
-383.326
-383.902
-384.48
-385.058
-385.638
-386.219
-386.801
-387.385
-387.97
-388.555
-389.143
-389.731
-390.32
-390.911
-391.503
-392.096
-392.69
-393.286
-393.882
-394.48
-395.079
-395.68
-396.281
-396.883
-397.487
-398.092
-398.698
-399.305
-399.914
-400.523
-401.134
-401.746
-402.359
-402.973
-403.589
-404.205
-404.823
-405.441
-406.061
-406.682
-407.305
-407.928
-408.552
-409.178
-409.805
-410.433
-411.062
-411.692
-412.323
-412.955
-413.588
-414.223
-414.859
-415.495
-416.133
-416.772
-417.412
-418.053
-418.695
-419.339
-419.983
-420.628
-421.275
-421.922
-422.571
-423.221
-423.872
-424.523
-425.176
-425.83
-426.485
-427.141
-427.799
-428.457
-429.116
-429.776
-430.438
-431.1
-431.763
-432.428
-433.093
-433.759
-434.427
-435.095
-435.765
-436.435
-437.107
-437.779
-438.453
-439.127
-439.803
-440.48
-441.157
-352.826
-353.319
-353.813
-354.308
-354.805
-355.303
-355.803
-356.303
-356.805
-357.309
-357.814
-358.32
-358.827
-359.336
-359.846
-360.357
-360.87
-361.384
-361.899
-362.416
-362.933
-363.453
-363.973
-364.495
-365.018
-365.542
-366.068
-366.595
-367.123
-367.653
-368.184
-368.716
-369.249
-369.784
-370.32
-370.858
-371.396
-371.936
-372.477
-373.02
-373.563
-374.108
-374.654
-375.202
-375.751
-376.301
-376.852
-377.405
-377.958
-378.513
-379.07
-379.627
-380.186
-380.746
-381.308
-381.87
-382.434
-382.999
-383.565
-384.133
-384.702
-385.272
-385.843
-386.416
-386.989
-387.564
-388.14
-388.718
-389.296
-389.876
-390.457
-391.04
-391.623
-392.208
-392.794
-393.381
-393.969
-394.558
-395.149
-395.741
-396.334
-396.928
-397.524
-398.12
-398.718
-399.317
-399.918
-400.519
-401.122
-401.725
-402.33
-402.936
-403.543
-404.152
-404.761
-405.372
-405.984
-406.597
-407.211
-407.827
-408.443
-409.061
-409.68
-410.299
-410.921
-411.543
-412.166
-412.79
-413.416
-414.043
-414.671
-415.3
-415.93
-416.561
-417.193
-417.826
-418.461
-419.097
-419.733
-420.371
-421.01
-421.65
-422.291
-422.933
-423.577
-424.221
-424.866
-425.513
-426.161
-426.809
-427.459
-428.11
-428.762
-429.414
-430.068
-430.723
-431.38
-432.037
-432.695
-433.354
-434.014
-434.676
-435.338
-436.001
-436.666
-437.331
-437.997
-438.665
-439.333
-440.003
-440.673
-441.345
-442.017
-442.691
-443.365
-444.041
-444.718
-445.395
-357.064
-357.557
-358.051
-358.546
-359.043
-359.541
-360.041
-360.541
-361.044
-361.547
-362.052
-362.558
-363.065
-363.574
-364.084
-364.595
-365.108
-365.622
-366.137
-366.654
-367.171
-367.691
-368.211
-368.733
-369.256
-369.78
-370.306
-370.833
-371.361
-371.891
-372.422
-372.954
-373.488
-374.022
-374.558
-375.096
-375.634
-376.174
-376.715
-377.258
-377.801
-378.346
-378.892
-379.44
-379.989
-380.539
-381.09
-381.643
-382.196
-382.752
-383.308
-383.865
-384.424
-384.984
-385.546
-386.108
-386.672
-387.237
-387.804
-388.371
-388.94
-389.51
-390.081
-390.654
-391.227
-391.802
-392.378
-392.956
-393.534
-394.114
-394.695
-395.278
-395.861
-396.446
-397.032
-397.619
-398.207
-398.796
-399.387
-399.979
-400.572
-401.166
-401.762
-402.359
-402.956
-403.555
-404.156
-404.757
-405.36
-405.963
-406.568
-407.174
-407.782
-408.39
-408.999
-409.61
-410.222
-410.835
-411.449
-412.065
-412.681
-413.299
-413.918
-414.537
-415.159
-415.781
-416.404
-417.029
-417.654
-418.281
-418.909
-419.538
-420.168
-420.799
-421.431
-422.065
-422.699
-423.335
-423.971
-424.609
-425.248
-425.888
-426.529
-427.171
-427.815
-428.459
-429.104
-429.751
-430.399
-431.047
-431.697
-432.348
-433
-433.652
-434.306
-434.961
-435.618
-436.275
-436.933
-437.592
-438.252
-438.914
-439.576
-440.239
-440.904
-441.569
-442.236
-442.903
-443.571
-444.241
-444.911
-445.583
-446.255
-446.929
-447.604
-448.279
-448.956
-449.634
-450.312
-361.302
-361.795
-362.289
-362.784
-363.281
-363.779
-364.279
-364.779
-365.282
-365.785
-366.29
-366.796
-367.303
-367.812
-368.322
-368.833
-369.346
-369.86
-370.375
-370.892
-371.41
-371.929
-372.449
-372.971
-373.494
-374.019
-374.544
-375.071
-375.6
-376.129
-376.66
-377.192
-377.726
-378.26
-378.796
-379.334
-379.872
-380.412
-380.953
-381.496
-382.039
-382.584
-383.131
-383.678
-384.227
-384.777
-385.328
-385.881
-386.435
-386.99
-387.546
-388.104
-388.662
-389.222
-389.784
-390.346
-390.91
-391.475
-392.042
-392.609
-393.178
-393.748
-394.319
-394.892
-395.465
-396.04
-396.616
-397.194
-397.772
-398.352
-398.933
-399.516
-400.099
-400.684
-401.27
-401.857
-402.445
-403.035
-403.625
-404.217
-404.81
-405.404
-406
-406.597
-407.194
-407.793
-408.394
-408.995
-409.598
-410.201
-410.806
-411.412
-412.02
-412.628
-413.238
-413.848
-414.46
-415.073
-415.687
-416.303
-416.919
-417.537
-418.156
-418.776
-419.397
-420.019
-420.642
-421.267
-421.892
-422.519
-423.147
-423.776
-424.406
-425.037
-425.669
-426.303
-426.937
-427.573
-428.209
-428.847
-429.486
-430.126
-430.767
-431.409
-432.053
-432.697
-433.342
-433.989
-434.637
-435.285
-435.935
-436.586
-437.238
-437.891
-438.545
-439.2
-439.856
-440.513
-441.171
-441.83
-442.49
-443.152
-443.814
-444.477
-445.142
-445.807
-446.474
-447.141
-447.809
-448.479
-449.149
-449.821
-450.494
-451.167
-451.842
-452.517
-453.194
-453.872
-454.551
-455.23
-365.54
-366.033
-366.527
-367.022
-367.519
-368.017
-368.517
-369.018
-369.52
-370.023
-370.528
-371.034
-371.541
-372.05
-372.56
-373.071
-373.584
-374.098
-374.613
-375.13
-375.648
-376.167
-376.687
-377.209
-377.732
-378.257
-378.782
-379.309
-379.838
-380.367
-380.898
-381.43
-381.964
-382.498
-383.034
-383.572
-384.11
-384.65
-385.191
-385.734
-386.277
-386.822
-387.369
-387.916
-388.465
-389.015
-389.566
-390.119
-390.673
-391.228
-391.784
-392.342
-392.9
-393.46
-394.022
-394.584
-395.148
-395.713
-396.28
-396.847
-397.416
-397.986
-398.557
-399.13
-399.703
-400.278
-400.855
-401.432
-402.011
-402.59
-403.171
-403.754
-404.337
-404.922
-405.508
-406.095
-406.683
-407.273
-407.863
-408.455
-409.048
-409.643
-410.238
-410.835
-411.432
-412.031
-412.632
-413.233
-413.836
-414.439
-415.044
-415.65
-416.258
-416.866
-417.476
-418.086
-418.698
-419.311
-419.925
-420.541
-421.157
-421.775
-422.394
-423.014
-423.635
-424.257
-424.88
-425.505
-426.13
-426.757
-427.385
-428.014
-428.644
-429.275
-429.907
-430.541
-431.175
-431.811
-432.447
-433.085
-433.724
-434.364
-435.005
-435.647
-436.291
-436.935
-437.581
-438.227
-438.875
-439.523
-440.173
-440.824
-441.476
-442.129
-442.783
-443.438
-444.094
-444.751
-445.409
-446.068
-446.728
-447.39
-448.052
-448.715
-449.38
-450.045
-450.712
-451.379
-452.048
-452.717
-453.388
-454.059
-454.732
-455.405
-456.08
-456.756
-457.432
-458.11
-458.789
-459.468
-460.149
-369.778
-370.271
-370.765
-371.26
-371.757
-372.255
-372.755
-373.256
-373.758
-374.261
-374.766
-375.272
-375.779
-376.288
-376.798
-377.309
-377.822
-378.336
-378.851
-379.368
-379.886
-380.405
-380.925
-381.447
-381.97
-382.495
-383.02
-383.547
-384.076
-384.605
-385.136
-385.668
-386.202
-386.736
-387.272
-387.81
-388.348
-388.888
-389.429
-389.972
-390.515
-391.06
-391.607
-392.154
-392.703
-393.253
-393.804
-394.357
-394.911
-395.466
-396.022
-396.58
-397.138
-397.699
-398.26
-398.822
-399.386
-399.951
-400.518
-401.085
-401.654
-402.224
-402.795
-403.368
-403.941
-404.516
-405.093
-405.67
-406.249
-406.828
-407.409
-407.992
-408.575
-409.16
-409.746
-410.333
-410.921
-411.511
-412.101
-412.693
-413.286
-413.881
-414.476
-415.073
-415.67
-416.27
-416.87
-417.471
-418.074
-418.677
-419.282
-419.888
-420.496
-421.104
-421.714
-422.324
-422.936
-423.549
-424.163
-424.779
-425.395
-426.013
-426.632
-427.252
-427.873
-428.495
-429.118
-429.743
-430.368
-430.995
-431.623
-432.252
-432.882
-433.513
-434.145
-434.779
-435.413
-436.049
-436.685
-437.323
-437.962
-438.602
-439.243
-439.885
-440.529
-441.173
-441.819
-442.465
-443.113
-443.761
-444.411
-445.062
-445.714
-446.367
-447.021
-447.676
-448.332
-448.989
-449.647
-450.306
-450.966
-451.628
-452.29
-452.953
-453.618
-454.283
-454.95
-455.617
-456.286
-456.955
-457.626
-458.297
-458.97
-459.643
-460.318
-460.994
-461.67
-462.348
-463.027
-463.707
-464.387
-374.016
-374.509
-375.003
-375.499
-375.995
-376.493
-376.993
-377.494
-377.996
-378.499
-379.004
-379.51
-380.017
-380.526
-381.036
-381.547
-382.06
-382.574
-383.089
-383.606
-384.124
-384.643
-385.163
-385.685
-386.208
-386.733
-387.258
-387.785
-388.314
-388.843
-389.374
-389.906
-390.44
-390.974
-391.51
-392.048
-392.586
-393.126
-393.667
-394.21
-394.753
-395.298
-395.845
-396.392
-396.941
-397.491
-398.042
-398.595
-399.149
-399.704
-400.26
-400.818
-401.376
-401.937
-402.498
-403.06
-403.624
-404.189
-404.756
-405.323
-405.892
-406.462
-407.033
-407.606
-408.18
-408.754
-409.331
-409.908
-410.487
-411.066
-411.647
-412.23
-412.813
-413.398
-413.984
-414.571
-415.159
-415.749
-416.339
-416.931
-417.524
-418.119
-418.714
-419.311
-419.909
-420.508
-421.108
-421.709
-422.312
-422.915
-423.52
-424.126
-424.734
-425.342
-425.952
-426.562
-427.174
-427.787
-428.401
-429.017
-429.633
-430.251
-430.87
-431.49
-432.111
-432.733
-433.356
-433.981
-434.606
-435.233
-435.861
-436.49
-437.12
-437.751
-438.383
-439.017
-439.651
-440.287
-440.924
-441.561
-442.2
-442.84
-443.481
-444.124
-444.767
-445.411
-446.057
-446.703
-447.351
-447.999
-448.649
-449.3
-449.952
-450.605
-451.259
-451.914
-452.57
-453.227
-453.885
-454.544
-455.205
-455.866
-456.528
-457.192
-457.856
-458.521
-459.188
-459.855
-460.524
-461.193
-461.864
-462.535
-463.208
-463.882
-464.556
-465.232
-465.909
-466.586
-467.265
-467.945
-468.626
-469.307
-378.254
-378.747
-379.241
-379.737
-380.233
-380.731
-381.231
-381.732
-382.234
-382.737
-383.242
-383.748
-384.255
-384.764
-385.274
-385.785
-386.298
-386.812
-387.327
-387.844
-388.362
-388.881
-389.401
-389.923
-390.446
-390.971
-391.496
-392.023
-392.552
-393.081
-393.612
-394.144
-394.678
-395.212
-395.749
-396.286
-396.824
-397.364
-397.905
-398.448
-398.991
-399.536
-400.083
-400.63
-401.179
-401.729
-402.28
-402.833
-403.387
-403.942
-404.498
-405.056
-405.615
-406.175
-406.736
-407.299
-407.862
-408.427
-408.994
-409.561
-410.13
-410.7
-411.271
-411.844
-412.418
-412.992
-413.569
-414.146
-414.725
-415.304
-415.885
-416.468
-417.051
-417.636
-418.222
-418.809
-419.397
-419.987
-420.577
-421.169
-421.762
-422.357
-422.952
-423.549
-424.147
-424.746
-425.346
-425.947
-426.55
-427.153
-427.758
-428.364
-428.972
-429.58
-430.19
-430.8
-431.412
-432.025
-432.639
-433.255
-433.871
-434.489
-435.108
-435.728
-436.349
-436.971
-437.594
-438.219
-438.844
-439.471
-440.099
-440.728
-441.358
-441.989
-442.621
-443.255
-443.889
-444.525
-445.162
-445.799
-446.438
-447.078
-447.719
-448.362
-449.005
-449.649
-450.295
-450.941
-451.589
-452.237
-452.887
-453.538
-454.19
-454.843
-455.497
-456.152
-456.808
-457.465
-458.123
-458.782
-459.443
-460.104
-460.766
-461.43
-462.094
-462.759
-463.426
-464.093
-464.762
-465.431
-466.102
-466.773
-467.446
-468.12
-468.794
-469.47
-470.147
-470.824
-471.503
-472.183
-472.864
-473.546
-474.228
-382.492
-382.985
-383.479
-383.975
-384.471
-384.97
-385.469
-385.97
-386.472
-386.975
-387.48
-387.986
-388.493
-389.002
-389.512
-390.023
-390.536
-391.05
-391.565
-392.082
-392.6
-393.119
-393.639
-394.161
-394.684
-395.209
-395.734
-396.261
-396.79
-397.319
-397.85
-398.382
-398.916
-399.451
-399.987
-400.524
-401.062
-401.602
-402.143
-402.686
-403.23
-403.774
-404.321
-404.868
-405.417
-405.967
-406.518
-407.071
-407.625
-408.18
-408.736
-409.294
-409.853
-410.413
-410.974
-411.537
-412.1
-412.665
-413.232
-413.799
-414.368
-414.938
-415.509
-416.082
-416.656
-417.23
-417.807
-418.384
-418.963
-419.542
-420.124
-420.706
-421.289
-421.874
-422.46
-423.047
-423.635
-424.225
-424.815
-425.407
-426
-426.595
-427.19
-427.787
-428.385
-428.984
-429.584
-430.185
-430.788
-431.391
-431.996
-432.602
-433.21
-433.818
-434.428
-435.038
-435.65
-436.263
-436.878
-437.493
-438.109
-438.727
-439.346
-439.966
-440.587
-441.209
-441.832
-442.457
-443.082
-443.709
-444.337
-444.966
-445.596
-446.227
-446.859
-447.493
-448.127
-448.763
-449.4
-450.037
-450.676
-451.316
-451.957
-452.6
-453.243
-453.887
-454.533
-455.179
-455.827
-456.475
-457.125
-457.776
-458.428
-459.081
-459.735
-460.39
-461.046
-461.703
-462.361
-463.02
-463.681
-464.342
-465.004
-465.668
-466.332
-466.997
-467.664
-468.331
-469
-469.669
-470.34
-471.012
-471.684
-472.358
-473.032
-473.708
-474.385