/*--------------------------------*- C++ -*----------------------------------*\
| =========                 |                                                 |
| \\      /  F ield         | OpenFOAM: The Open Source CFD Toolbox           |
|  \\    /   O peration     | Version:  2512                                  |
|   \\  /    A nd           | Website:  www.openfoam.com                      |
|    \\/     M anipulation  |                                                 |
\*---------------------------------------------------------------------------*/
FoamFile
{
    version     2.0;
    format      ascii;
    arch        "LSB;label=32;scalar=64";
    class       volScalarField;
    location    "0.1";
    object      pB;
}
// * * * * * * * * * * * * * * * * * * * * * * * * * * * * * * * * * * * * * //

dimensions      [1 1 -3 0 0 -1 0];

internalField   nonuniform List<scalar> 
8333
(
2.87264
2.67649
2.68567
2.69485
2.70402
2.71323
2.72244
2.73165
2.74087
2.75008
2.7593
2.76851
2.77772
2.78693
2.79613
2.80534
2.81453
2.82373
2.83293
2.84212
2.85131
2.86051
2.8697
2.87889
2.88809
2.89728
2.90648
2.91568
2.92488
2.93409
2.94329
2.9525
2.96171
2.97092
2.98014
2.98936
2.99858
3.0078
3.01703
3.02626
3.0355
3.04473
3.05397
3.06322
3.07246
3.08171
3.09096
3.10022
3.10947
3.11873
3.128
3.13727
3.14653
3.15581
3.16508
3.17436
3.18364
3.19293
3.20221
3.2115
3.2208
3.23009
3.23939
3.24869
3.258
3.2673
3.27661
3.28592
3.29524
3.30456
3.31388
3.3232
3.33253
3.34185
3.35118
3.36052
3.36986
3.37919
3.38854
3.39788
3.40723
3.41658
3.42593
3.43529
3.44465
3.45401
3.46337
3.47274
3.48211
3.49148
3.50085
3.51023
3.51961
3.52899
3.53837
3.54776
3.55715
3.56654
3.57594
3.58534
3.59474
3.60414
3.61354
3.62295
3.63236
3.64177
3.65119
3.66061
3.67002
3.67944
3.68887
3.69829
3.70771
3.71714
3.72657
3.73601
3.74544
3.75488
3.76432
3.77376
3.7832
3.79264
3.80208
3.81153
3.82097
3.83042
3.83987
3.84931
3.85876
3.86821
3.87766
3.88711
3.89656
3.90601
3.91546
3.92492
3.93437
3.94383
3.95328
3.96274
3.97221
3.98167
3.99114
4.00061
4.01009
4.01956
4.02904
4.03851
4.04799
4.05746
2.48048
2.49119
2.50193
2.51267
2.52344
2.53424
2.54504
2.55585
2.56666
2.57748
2.58831
2.59913
2.60996
2.62079
2.63161
2.64244
2.65327
2.6641
2.67493
2.68576
2.6966
2.70744
2.71827
2.72912
2.73996
2.75081
2.76166
2.77252
2.78338
2.79424
2.80511
2.81598
2.82686
2.83775
2.84863
2.85952
2.87042
2.88132
2.89223
2.90314
2.91406
2.92498
2.93591
2.94684
2.95778
2.96872
2.97967
2.99063
3.00159
3.01255
3.02352
3.03449
3.04547
3.05646
3.06745
3.07844
3.08945
3.10045
3.11146
3.12248
3.1335
3.14453
3.15556
3.1666
3.17764
3.18869
3.19974
3.2108
3.22186
3.23293
3.244
3.25508
3.26616
3.27725
3.28834
3.29944
3.31055
3.32165
3.33277
3.34389
3.35501
3.36614
3.37727
3.38841
3.39955
3.4107
3.42186
3.43302
3.44418
3.45535
3.46652
3.4777
3.48888
3.50007
3.51126
3.52246
3.53366
3.54487
3.55608
3.5673
3.57852
3.58975
3.60098
3.61222
3.62346
3.63471
3.64596
3.65722
3.66848
3.67974
3.69101
3.70228
3.71356
3.72485
3.73614
3.74743
3.75873
3.77003
3.78134
3.79265
3.80397
3.81529
3.82661
3.83794
3.84928
3.86061
3.87196
3.88331
3.89466
3.90601
3.91737
3.92873
3.9401
3.95148
3.96286
3.97424
3.98563
3.99703
4.00843
4.01984
4.03125
4.04268
4.05411
4.06555
4.07699
4.08844
4.09988
4.11135
4.12278
4.13428
2.28479
2.29704
2.30933
2.32164
2.33398
2.34635
2.35874
2.37114
2.38355
2.39598
2.40841
2.42084
2.43329
2.44573
2.45818
2.47064
2.4831
2.49556
2.50802
2.52049
2.53297
2.54544
2.55793
2.57041
2.58291
2.5954
2.60791
2.62041
2.63293
2.64545
2.65797
2.67051
2.68305
2.69559
2.70814
2.7207
2.73327
2.74584
2.75842
2.77101
2.78361
2.79621
2.80882
2.82144
2.83406
2.84669
2.85933
2.87198
2.88463
2.8973
2.90996
2.92264
2.93533
2.94802
2.96072
2.97342
2.98614
2.99886
3.01159
3.02433
3.03707
3.04983
3.06259
3.07536
3.08813
3.10091
3.1137
3.1265
3.13931
3.15212
3.16494
3.17777
3.1906
3.20344
3.21629
3.22915
3.24201
3.25488
3.26776
3.28065
3.29354
3.30645
3.31935
3.33227
3.34519
3.35812
3.37106
3.38401
3.39696
3.40992
3.42288
3.43586
3.44884
3.46183
3.47482
3.48783
3.50084
3.51385
3.52688
3.53991
3.55295
3.566
3.57905
3.59211
3.60518
3.61826
3.63134
3.64443
3.65753
3.67063
3.68374
3.69686
3.70999
3.72312
3.73627
3.74942
3.76257
3.77574
3.78891
3.80209
3.81528
3.82847
3.84167
3.85488
3.8681
3.88133
3.89456
3.90781
3.92106
3.93432
3.94758
3.96086
3.97414
3.98743
4.00073
4.01404
4.02736
4.04069
4.05404
4.06739
4.08075
4.09413
4.10751
4.12091
4.13432
4.14774
4.16116
4.17461
4.18801
4.20148
2.08959
2.10337
2.11722
2.13109
2.14499
2.15894
2.1729
2.18689
2.2009
2.21492
2.22895
2.243
2.25705
2.27111
2.28518
2.29926
2.31334
2.32743
2.34153
2.35563
2.36974
2.38385
2.39797
2.4121
2.42624
2.44038
2.45453
2.46868
2.48285
2.49702
2.5112
2.52539
2.53958
2.55379
2.568
2.58223
2.59646
2.6107
2.62495
2.63921
2.65348
2.66776
2.68204
2.69634
2.71065
2.72496
2.73929
2.75362
2.76797
2.78233
2.79669
2.81107
2.82545
2.83985
2.85425
2.86866
2.88309
2.89752
2.91197
2.92642
2.94089
2.95536
2.96985
2.98434
2.99884
3.01336
3.02788
3.04241
3.05696
3.07151
3.08607
3.10064
3.11523
3.12982
3.14442
3.15903
3.17365
3.18828
3.20292
3.21757
3.23223
3.2469
3.26158
3.27627
3.29097
3.30568
3.32039
3.33512
3.34986
3.3646
3.37936
3.39413
3.4089
3.42368
3.43848
3.45328
3.46809
3.48292
3.49775
3.51259
3.52744
3.54231
3.55718
3.57206
3.58695
3.60185
3.61676
3.63168
3.64661
3.66155
3.6765
3.69146
3.70643
3.72141
3.7364
3.7514
3.76641
3.78143
3.79646
3.81151
3.82656
3.84163
3.8567
3.87179
3.88689
3.902
3.91712
3.93225
3.9474
3.96255
3.97772
3.9929
4.00809
4.0233
4.03852
4.05375
4.069
4.08426
4.09954
4.11483
4.13013
4.14546
4.16079
4.17615
4.19151
4.2069
4.22229
4.23771
4.2531
4.26853
4.28402
1.89501
1.91034
1.92573
1.94116
1.95662
1.97213
1.98767
2.00324
2.01883
2.03445
2.05008
2.06573
2.08139
2.09706
2.11274
2.12844
2.14414
2.15985
2.17557
2.1913
2.20704
2.22278
2.23854
2.2543
2.27007
2.28585
2.30164
2.31744
2.33325
2.34907
2.3649
2.38074
2.39659
2.41245
2.42832
2.4442
2.46009
2.47599
2.49191
2.50783
2.52377
2.53972
2.55568
2.57165
2.58763
2.60363
2.61963
2.63565
2.65168
2.66773
2.68378
2.69985
2.71593
2.73202
2.74813
2.76424
2.78037
2.79651
2.81267
2.82883
2.84501
2.8612
2.8774
2.89362
2.90984
2.92608
2.94233
2.9586
2.97487
2.99116
3.00746
3.02377
3.04009
3.05643
3.07278
3.08914
3.10551
3.12189
3.13829
3.1547
3.17112
3.18755
3.204
3.22045
3.23692
3.2534
3.26989
3.28639
3.30291
3.31944
3.33598
3.35253
3.36909
3.38566
3.40225
3.41885
3.43546
3.45208
3.46871
3.48536
3.50202
3.51869
3.53537
3.55207
3.56878
3.58549
3.60223
3.61897
3.63573
3.65249
3.66927
3.68607
3.70288
3.7197
3.73653
3.75338
3.77024
3.78711
3.804
3.8209
3.83781
3.85474
3.87168
3.88864
3.90561
3.9226
3.9396
3.95662
3.97365
3.9907
4.00776
4.02484
4.04194
4.05905
4.07618
4.09333
4.1105
4.12768
4.14489
4.16211
4.17935
4.19662
4.2139
4.2312
4.24852
4.26587
4.28322
4.3006
4.31797
4.33537
4.35283
4.37022
1.70122
1.71808
1.73501
1.75199
1.76901
1.78608
1.80319
1.82033
1.83751
1.85471
1.87193
1.88917
1.90643
1.92371
1.941
1.95831
1.97562
1.99295
2.01029
2.02763
2.04499
2.06237
2.07974
2.09714
2.11454
2.13195
2.14938
2.16681
2.18426
2.20172
2.21919
2.23667
2.25417
2.27167
2.28919
2.30672
2.32427
2.34183
2.3594
2.37698
2.39458
2.41219
2.42982
2.44746
2.46511
2.48278
2.50046
2.51816
2.53587
2.55359
2.57133
2.58908
2.60685
2.62463
2.64243
2.66024
2.67807
2.69591
2.71376
2.73163
2.74952
2.76742
2.78533
2.80326
2.8212
2.83916
2.85713
2.87512
2.89312
2.91113
2.92916
2.94721
2.96527
2.98334
3.00143
3.01953
3.03764
3.05577
3.07392
3.09208
3.11025
3.12844
3.14664
3.16486
3.18309
3.20133
3.21959
3.23786
3.25615
3.27445
3.29276
3.31109
3.32944
3.34779
3.36617
3.38455
3.40295
3.42137
3.43979
3.45824
3.4767
3.49517
3.51366
3.53216
3.55067
3.5692
3.58775
3.60631
3.62488
3.64347
3.66208
3.6807
3.69934
3.71799
3.73666
3.75534
3.77404
3.79276
3.81149
3.83024
3.84901
3.86779
3.8866
3.90542
3.92426
3.94311
3.96199
3.98088
3.9998
4.01873
4.03768
4.05665
4.07565
4.09466
4.11369
4.13275
4.15183
4.17093
4.19006
4.2092
4.22838
4.24757
4.26679
4.28604
4.3053
4.3246
4.34391
4.36324
4.38258
4.40194
4.42137
4.44073
4.46002
1.50836
1.52675
1.54521
1.56373
1.5823
1.60092
1.6196
1.63831
1.65706
1.67583
1.69464
1.71347
1.73232
1.7512
1.77009
1.78899
1.80791
1.82685
1.8458
1.86476
1.88373
1.90272
1.92172
1.94073
1.95976
1.9788
1.99785
2.01691
2.03599
2.05508
2.07418
2.0933
2.11243
2.13158
2.15074
2.16991
2.1891
2.20831
2.22753
2.24677
2.26602
2.28529
2.30457
2.32387
2.34318
2.36251
2.38186
2.40123
2.42061
2.44001
2.45942
2.47885
2.4983
2.51776
2.53724
2.55674
2.57626
2.59579
2.61534
2.63491
2.65449
2.67409
2.6937
2.71334
2.73299
2.75266
2.77234
2.79204
2.81176
2.83149
2.85124
2.87101
2.8908
2.9106
2.93042
2.95025
2.9701
2.98997
3.00986
3.02976
3.04968
3.06961
3.08956
3.10953
3.12951
3.14951
3.16953
3.18956
3.20961
3.22968
3.24976
3.26986
3.28998
3.31011
3.33026
3.35042
3.3706
3.3908
3.41101
3.43124
3.45149
3.47176
3.49204
3.51234
3.53266
3.55299
3.57334
3.59371
3.61409
3.6345
3.65492
3.67536
3.69582
3.71629
3.73679
3.7573
3.77783
3.79838
3.81895
3.83954
3.86016
3.88079
3.90144
3.92211
3.94281
3.96353
3.98427
4.00503
4.02581
4.04662
4.06745
4.08831
4.10919
4.13009
4.15102
4.17198
4.19296
4.21397
4.235
4.25607
4.27716
4.29828
4.31943
4.3406
4.36181
4.38304
4.40429
4.42558
4.44688
4.46819
4.48956
4.51089
4.53215
1.31659
1.3365
1.35648
1.37654
1.39665
1.41682
1.43704
1.45731
1.47762
1.49797
1.51835
1.53876
1.5592
1.57966
1.60014
1.62064
1.64115
1.66169
1.68224
1.7028
1.72338
1.74398
1.76459
1.78521
1.80585
1.8265
1.84717
1.86786
1.88855
1.90926
1.92999
1.95074
1.9715
1.99227
2.01307
2.03387
2.0547
2.07555
2.09641
2.11728
2.13818
2.15909
2.18002
2.20097
2.22194
2.24293
2.26393
2.28496
2.306
2.32706
2.34814
2.36924
2.39036
2.41149
2.43265
2.45382
2.47502
2.49623
2.51747
2.53872
2.55999
2.58128
2.60259
2.62392
2.64527
2.66664
2.68802
2.70943
2.73085
2.7523
2.77376
2.79524
2.81674
2.83827
2.8598
2.88136
2.90294
2.92454
2.94615
2.96779
2.98944
3.01111
3.0328
3.05451
3.07624
3.09798
3.11975
3.14153
3.16334
3.18516
3.207
3.22886
3.25073
3.27263
3.29454
3.31648
3.33843
3.3604
3.38239
3.4044
3.42643
3.44848
3.47054
3.49263
3.51474
3.53686
3.55901
3.58117
3.60336
3.62557
3.64779
3.67004
3.69231
3.7146
3.73691
3.75924
3.78159
3.80397
3.82637
3.84879
3.87123
3.8937
3.91619
3.93871
3.96126
3.98382
4.00642
4.02904
4.05168
4.07435
4.09705
4.11978
4.14254
4.16532
4.18814
4.21098
4.23385
4.25676
4.27969
4.30266
4.32566
4.34869
4.37176
4.39486
4.41799
4.44115
4.46434
4.48755
4.5108
4.53405
4.55736
4.58064
4.60385
4.62701
1.12606
1.14748
1.16898
1.19055
1.21219
1.2339
1.25566
1.27748
1.29935
1.32126
1.3432
1.36518
1.38719
1.40923
1.43128
1.45337
1.47547
1.49759
1.51973
1.54189
1.56407
1.58626
1.60847
1.63069
1.65294
1.67519
1.69747
1.71976
1.74207
1.76439
1.78673
1.80909
1.83147
1.85387
1.87628
1.89871
1.92116
1.94364
1.96613
1.98863
2.01116
2.03371
2.05628
2.07887
2.10148
2.12411
2.14676
2.16943
2.19213
2.21484
2.23758
2.26033
2.28311
2.30591
2.32873
2.35157
2.37443
2.39732
2.42023
2.44315
2.4661
2.48907
2.51207
2.53508
2.55812
2.58117
2.60425
2.62735
2.65047
2.67361
2.69678
2.71996
2.74317
2.7664
2.78965
2.81292
2.83621
2.85952
2.88286
2.90621
2.92959
2.95299
2.9764
2.99984
3.0233
3.04678
3.07029
3.09381
3.11735
3.14092
3.16451
3.18811
3.21174
3.23539
3.25906
3.28275
3.30646
3.3302
3.35395
3.37773
3.40152
3.42534
3.44918
3.47305
3.49693
3.52084
3.54477
3.56872
3.59269
3.61669
3.64071
3.66475
3.68882
3.71291
3.73702
3.76116
3.78533
3.80952
3.83373
3.85797
3.88224
3.90653
3.93085
3.9552
3.97958
4.00398
4.02842
4.05288
4.07738
4.1019
4.12646
4.15104
4.17566
4.20032
4.225
4.24972
4.27448
4.29926
4.32409
4.34895
4.37385
4.39878
4.42375
4.44876
4.4738
4.49887
4.52398
4.54912
4.57429
4.59948
4.62471
4.64993
4.67508
4.70018
4.72526
0.936912
0.959835
0.982837
1.00593
1.02909
1.05231
1.07561
1.09897
1.12238
1.14583
1.16933
1.19287
1.21644
1.24004
1.26367
1.28732
1.311
1.33469
1.35842
1.38216
1.40591
1.42969
1.45349
1.4773
1.50114
1.52499
1.54886
1.57275
1.59665
1.62057
1.64452
1.66848
1.69247
1.71647
1.74049
1.76454
1.7886
1.81269
1.8368
1.86092
1.88507
1.90925
1.93344
1.95766
1.9819
2.00616
2.03044
2.05475
2.07908
2.10344
2.12782
2.15222
2.17664
2.20109
2.22556
2.25006
2.27458
2.29912
2.32369
2.34828
2.3729
2.39754
2.4222
2.44688
2.47159
2.49633
2.52108
2.54587
2.57067
2.5955
2.62035
2.64523
2.67013
2.69505
2.72
2.74497
2.76996
2.79498
2.82002
2.84508
2.87017
2.89528
2.92041
2.94557
2.97075
2.99595
3.02118
3.04643
3.0717
3.097
3.12232
3.14766
3.17303
3.19842
3.22383
3.24926
3.27472
3.30021
3.32571
3.35124
3.37679
3.40237
3.42797
3.4536
3.47925
3.50492
3.53062
3.55635
3.5821
3.60787
3.63367
3.6595
3.68535
3.71123
3.73713
3.76307
3.78903
3.81502
3.84103
3.86708
3.89315
3.91926
3.94539
3.97156
3.99776
4.02399
4.05025
4.07655
4.10288
4.12924
4.15564
4.18207
4.20854
4.23505
4.26159
4.28818
4.3148
4.34145
4.36815
4.39489
4.42167
4.44849
4.47535
4.50225
4.52919
4.55617
4.58319
4.61023
4.63731
4.66442
4.69156
4.7187
4.74578
4.77279
4.79981
0.74931
0.773721
0.798216
0.822803
0.84747
0.872212
0.897028
0.92191
0.946849
0.971841
0.996879
1.02196
1.04708
1.07223
1.09741
1.12263
1.14787
1.17313
1.19841
1.22372
1.24905
1.2744
1.29977
1.32516
1.35057
1.37601
1.40146
1.42693
1.45242
1.47793
1.50346
1.52902
1.55459
1.58019
1.60581
1.63145
1.65712
1.6828
1.70852
1.73425
1.76001
1.78579
1.8116
1.83743
1.86329
1.88917
1.91507
1.941
1.96696
1.99294
2.01895
2.04498
2.07104
2.09713
2.12324
2.14937
2.17553
2.20172
2.22794
2.25418
2.28045
2.30674
2.33306
2.3594
2.38577
2.41217
2.43859
2.46504
2.49152
2.51802
2.54455
2.5711
2.59768
2.62428
2.65091
2.67757
2.70425
2.73096
2.75769
2.78445
2.81123
2.83804
2.86488
2.89174
2.91862
2.94553
2.97247
2.99943
3.02642
3.05344
3.08047
3.10754
3.13463
3.16174
3.18888
3.21605
3.24324
3.27045
3.2977
3.32497
3.35226
3.37958
3.40693
3.4343
3.46171
3.48913
3.51659
3.54407
3.57158
3.59912
3.62668
3.65428
3.6819
3.70955
3.73724
3.76495
3.79269
3.82046
3.84827
3.8761
3.90397
3.93187
3.95981
3.98778
4.01578
4.04382
4.0719
4.10001
4.12816
4.15635
4.18457
4.21284
4.24114
4.26949
4.29788
4.32631
4.35478
4.38329
4.41185
4.44045
4.4691
4.49779
4.52652
4.5553
4.58412
4.61299
4.64189
4.67083
4.69981
4.72881
4.75785
4.78688
4.81587
4.84481
4.87372
4.90259
0.563401
0.589285
0.61526
0.641332
0.667493
0.693736
0.720057
0.74645
0.772906
0.79942
0.825984
0.852598
0.879249
0.905942
0.932665
0.959421
0.986207
1.01302
1.03986
1.06672
1.0936
1.12051
1.14744
1.17439
1.20137
1.22837
1.25539
1.28243
1.30949
1.33657
1.36368
1.39081
1.41796
1.44514
1.47234
1.49957
1.52682
1.55409
1.58139
1.60872
1.63607
1.66345
1.69086
1.71829
1.74574
1.77323
1.80074
1.82828
1.85585
1.88344
1.91106
1.93871
1.96639
1.9941
2.02183
2.04959
2.07738
2.1052
2.13305
2.16092
2.18883
2.21676
2.24472
2.27271
2.30072
2.32877
2.35684
2.38494
2.41307
2.44123
2.46942
2.49763
2.52588
2.55415
2.58244
2.61077
2.63913
2.66751
2.69592
2.72436
2.75282
2.78131
2.80984
2.83838
2.86696
2.89556
2.9242
2.95286
2.98154
3.01026
3.039
3.06777
3.09656
3.12539
3.15424
3.18312
3.21203
3.24096
3.26993
3.29892
3.32794
3.35699
3.38607
3.41518
3.44431
3.47348
3.50267
3.5319
3.56115
3.59044
3.61975
3.6491
3.67848
3.70789
3.73733
3.7668
3.79631
3.82585
3.85543
3.88504
3.91468
3.94436
3.97408
4.00384
4.03363
4.06347
4.09334
4.12325
4.15321
4.1832
4.21324
4.24332
4.27344
4.30361
4.33382
4.36408
4.39439
4.42474
4.45514
4.48559
4.51608
4.54663
4.57722
4.60786
4.63855
4.66928
4.70005
4.73087
4.76172
4.79261
4.82352
4.85444
4.88531
4.91615
4.94695
4.97772
5.00841
0.379336
0.406678
0.434119
0.461662
0.489302
0.51703
0.544842
0.572731
0.60069
0.628711
0.656786
0.684916
0.713086
0.741302
0.769552
0.797837
0.826154
0.854499
0.882873
0.911274
0.9397
0.96815
0.996625
1.02512
1.05365
1.08219
1.11076
1.13936
1.16797
1.19661
1.22528
1.25397
1.28269
1.31143
1.3402
1.36899
1.39781
1.42666
1.45553
1.48443
1.51336
1.54232
1.57131
1.60032
1.62937
1.65844
1.68754
1.71667
1.74583
1.77502
1.80424
1.83349
1.86277
1.89208
1.92142
1.9508
1.9802
2.00963
2.0391
2.06859
2.09811
2.12767
2.15725
2.18687
2.21652
2.24619
2.2759
2.30564
2.3354
2.3652
2.39503
2.42489
2.45478
2.4847
2.51465
2.54463
2.57464
2.60468
2.63475
2.66485
2.69498
2.72514
2.75533
2.78555
2.8158
2.84608
2.87639
2.90673
2.9371
2.9675
2.99793
3.02839
3.05887
3.08939
3.11994
3.15052
3.18112
3.21176
3.24243
3.27313
3.30386
3.33462
3.36541
3.39623
3.42708
3.45797
3.48889
3.51984
3.55082
3.58183
3.61288
3.64396
3.67508
3.70623
3.73741
3.76863
3.79989
3.83118
3.86251
3.89387
3.92528
3.95672
3.98821
4.01973
4.0513
4.08291
4.11456
4.14625
4.17799
4.20978
4.24161
4.27348
4.30541
4.33738
4.3694
4.40147
4.43359
4.46576
4.49799
4.53026
4.56259
4.59497
4.6274
4.65988
4.69242
4.725
4.75763
4.7903
4.82301
4.85575
4.88852
4.9213
4.95405
4.98676
5.01943
5.05207
5.08464
5.11719
0.197267
0.226049
0.254941
0.283941
0.313043
0.342241
0.371528
0.400898
0.430342
0.459855
0.489425
0.519054
0.548727
0.578449
0.608208
0.638005
0.667837
0.6977
0.727594
0.757516
0.787466
0.817441
0.847444
0.877472
0.907527
0.937606
0.96771
0.997842
1.02799
1.05818
1.08838
1.11862
1.14888
1.17917
1.20948
1.23983
1.2702
1.3006
1.33103
1.36149
1.39198
1.4225
1.45305
1.48364
1.51425
1.54489
1.57556
1.60627
1.63701
1.66778
1.69858
1.72941
1.76028
1.79118
1.82211
1.85307
1.88407
1.9151
1.94616
1.97725
2.00838
2.03954
2.07073
2.10196
2.13321
2.16451
2.19583
2.22718
2.25857
2.28999
2.32145
2.35293
2.38445
2.416
2.44759
2.4792
2.51085
2.54253
2.57425
2.60599
2.63777
2.66958
2.70142
2.73329
2.76519
2.79713
2.8291
2.8611
2.89313
2.9252
2.9573
2.98942
3.02158
3.05378
3.086
3.11826
3.15054
3.18286
3.21522
3.2476
3.28002
3.31248
3.34496
3.37748
3.41003
3.44262
3.47524
3.5079
3.54059
3.57331
3.60607
3.63887
3.6717
3.70458
3.73748
3.77043
3.80341
3.83644
3.8695
3.9026
3.93575
3.96894
4.00217
4.03544
4.06876
4.10213
4.13554
4.16899
4.2025
4.23605
4.26966
4.30331
4.33701
4.37077
4.40458
4.43844
4.47236
4.50633
4.54036
4.57444
4.60858
4.64277
4.67702
4.71133
4.74568
4.78009
4.81455
4.84906
4.88361
4.91819
4.9528
4.98742
5.02201
5.05658
5.0911
5.1256
5.16002
5.19441
0.017345
0.0475515
0.0778765
0.108315
0.138863
0.169514
0.200259
0.231093
0.262005
0.292992
0.32404
0.355151
0.386309
0.417519
0.44877
0.480062
0.51139
0.542752
0.574148
0.605573
0.637029
0.668512
0.700023
0.731563
0.763131
0.794725
0.826345
0.857995
0.889667
0.921369
0.953102
0.984859
1.01665
1.04846
1.08031
1.11219
1.14409
1.17603
1.208
1.24
1.27203
1.3041
1.33619
1.36832
1.40048
1.43268
1.46491
1.49717
1.52946
1.56179
1.59416
1.62656
1.65899
1.69145
1.72396
1.75649
1.78906
1.82167
1.85431
1.88699
1.9197
1.95245
1.98523
2.01804
2.05089
2.08378
2.1167
2.14965
2.18264
2.21567
2.24873
2.28182
2.31495
2.34811
2.38131
2.41454
2.44781
2.48111
2.51445
2.54782
2.58122
2.61466
2.64813
2.68164
2.71518
2.74875
2.78236
2.816
2.84968
2.88339
2.91713
2.95091
2.98473
3.01857
3.05245
3.08637
3.12032
3.1543
3.18832
3.22237
3.25646
3.29059
3.32475
3.35894
3.39317
3.42744
3.46175
3.49609
3.53047
3.56488
3.59934
3.63383
3.66836
3.70293
3.73754
3.7722
3.80689
3.84162
3.8764
3.91122
3.94608
3.98099
4.01595
4.05095
4.086
4.1211
4.15625
4.19145
4.2267
4.262
4.29736
4.33277
4.36823
4.40375
4.43933
4.47496
4.51065
4.5464
4.58221
4.61808
4.65401
4.69
4.72604
4.76215
4.79831
4.83452
4.87079
4.90711
4.94347
4.97987
5.01629
5.05273
5.08915
5.12554
5.1619
5.19822
5.23449
5.2707
5.30685
-0.160278
-0.128666
-0.0969261
-0.065066
-0.0330904
-0.00100575
0.0311794
0.0634586
0.0958216
0.128263
0.16077
0.193344
0.225969
0.258648
0.291372
0.324139
0.356944
0.389787
0.422665
0.455573
0.488516
0.521487
0.554488
0.587519
0.620581
0.65367
0.686786
0.719935
0.753109
0.786311
0.819548
0.85281
0.886104
0.919432
0.952789
0.986177
1.0196
1.05305
1.08654
1.12006
1.15361
1.1872
1.22083
1.25448
1.28817
1.3219
1.35566
1.38946
1.42329
1.45716
1.49107
1.52501
1.55899
1.593
1.62706
1.66115
1.69527
1.72944
1.76364
1.79787
1.83215
1.86646
1.90081
1.93519
1.96962
2.00408
2.03857
2.07311
2.10768
2.14228
2.17693
2.21161
2.24633
2.28108
2.31587
2.3507
2.38556
2.42047
2.4554
2.49038
2.52539
2.56043
2.59552
2.63063
2.66579
2.70098
2.73621
2.77147
2.80677
2.84211
2.87748
2.91289
2.94833
2.98381
3.01933
3.05488
3.09047
3.12609
3.16176
3.19746
3.23319
3.26897
3.30478
3.34063
3.37652
3.41245
3.44841
3.48442
3.52046
3.55655
3.59267
3.62884
3.66505
3.7013
3.73759
3.77393
3.8103
3.84673
3.8832
3.91971
3.95627
3.99288
4.02954
4.06625
4.10301
4.13983
4.17669
4.21361
4.25058
4.28761
4.32469
4.36184
4.39904
4.4363
4.47362
4.511
4.54844
4.58595
4.62352
4.66115
4.69884
4.7366
4.77442
4.8123
4.85024
4.88824
4.92629
4.9644
5.00255
5.04074
5.07896
5.11719
5.15541
5.1936
5.23176
5.26989
5.30797
5.34598
5.38394
5.42182
-0.335451
-0.302451
-0.269317
-0.236054
-0.20267
-0.169171
-0.135565
-0.10186
-0.0680667
-0.0341896
-0.000243789
0.033773
0.0678443
0.101973
0.136148
0.170371
0.204633
0.238935
0.273275
0.307647
0.342055
0.376493
0.410964
0.445465
0.479999
0.514564
0.549155
0.583781
0.618435
0.653117
0.687836
0.722584
0.757364
0.792179
0.827026
0.861906
0.896821
0.931771
0.966755
1.00177
1.03683
1.07192
1.10705
1.14221
1.17741
1.21265
1.24792
1.28323
1.31858
1.35397
1.3894
1.42486
1.46037
1.49591
1.53149
1.56711
1.60277
1.63847
1.67421
1.70999
1.7458
1.78166
1.81755
1.85348
1.88946
1.92547
1.96152
1.99761
2.03374
2.06991
2.10611
2.14236
2.17864
2.21497
2.25133
2.28773
2.32417
2.36065
2.39717
2.43372
2.47032
2.50695
2.54362
2.58033
2.61708
2.65386
2.69069
2.72755
2.76445
2.80138
2.83836
2.87537
2.91243
2.94952
2.98665
3.02381
3.06102
3.09826
3.13555
3.17287
3.21024
3.24764
3.28508
3.32256
3.36009
3.39765
3.43525
3.4729
3.51059
3.54832
3.58609
3.62391
3.66177
3.69967
3.73762
3.77562
3.81366
3.85175
3.88989
3.92807
3.96631
4.0046
4.04294
4.08133
4.11977
4.15828
4.19683
4.23545
4.27412
4.31285
4.35164
4.39049
4.4294
4.46838
4.50742
4.54652
4.58569
4.62493
4.66423
4.7036
4.74304
4.78254
4.82211
4.86174
4.90144
4.94119
4.98101
5.02087
5.06079
5.10075
5.14073
5.18073
5.22072
5.2607
5.30064
5.34054
5.38041
5.4202
5.45994
5.4996
5.53919
-0.508021
-0.473653
-0.439145
-0.404501
-0.369729
-0.334836
-0.29983
-0.26472
-0.229517
-0.194226
-0.158862
-0.123424
-0.0879275
-0.0523713
-0.0167657
0.0188903
0.054588
0.0903267
0.126107
0.161921
0.197772
0.233655
0.269573
0.305524
0.341508
0.377525
0.413571
0.449651
0.485763
0.521904
0.558083
0.594293
0.630537
0.666817
0.703132
0.739481
0.775867
0.812289
0.848748
0.885243
0.921776
0.958347
0.994956
1.0316
1.06829
1.10501
1.14178
1.17858
1.21543
1.25231
1.28924
1.3262
1.36321
1.40025
1.43734
1.47447
1.51164
1.54885
1.5861
1.6234
1.66073
1.69811
1.73553
1.77298
1.81048
1.84802
1.88561
1.92323
1.96089
1.9986
2.03635
2.07413
2.11196
2.14983
2.18774
2.22569
2.26369
2.30172
2.33979
2.37791
2.41606
2.45425
2.49249
2.53076
2.56908
2.60743
2.64583
2.68427
2.72274
2.76126
2.79981
2.83841
2.87705
2.91573
2.95444
2.9932
3.032
3.07084
3.10972
3.14864
3.18761
3.22661
3.26566
3.30475
3.34388
3.38306
3.42228
3.46154
3.50084
3.5402
3.57959
3.61903
3.65852
3.69806
3.73764
3.77727
3.81695
3.85668
3.89646
3.9363
3.97618
4.01612
4.05611
4.09616
4.13627
4.17643
4.21666
4.25694
4.29728
4.33769
4.37816
4.4187
4.4593
4.49996
4.5407
4.5815
4.62237
4.66331
4.70432
4.7454
4.78655
4.82777
4.86907
4.91042
4.95185
4.99334
5.03488
5.07649
5.11814
5.15984
5.20156
5.2433
5.28504
5.32676
5.36846
5.41011
5.45173
5.49328
5.53478
5.57619
5.61753
-0.677836
-0.642122
-0.606262
-0.570259
-0.53412
-0.497854
-0.461471
-0.424978
-0.388387
-0.351704
-0.314944
-0.278108
-0.241209
-0.204248
-0.167235
-0.130169
-0.093058
-0.0559053
-0.0187084
0.0185238
0.0557954
0.0931007
0.130443
0.167819
0.205229
0.242676
0.280152
0.317663
0.355209
0.392786
0.430401
0.468051
0.505735
0.543457
0.581215
0.619011
0.656843
0.694714
0.732624
0.770572
0.808559
0.846587
0.884654
0.922761
0.96091
0.999099
1.03733
1.0756
1.11392
1.15227
1.19067
1.22911
1.26759
1.30612
1.34469
1.3833
1.42196
1.46066
1.4994
1.53819
1.57702
1.61589
1.6548
1.69376
1.73277
1.77181
1.8109
1.85003
1.88921
1.92842
1.96769
2.00699
2.04634
2.08573
2.12516
2.16464
2.20416
2.24372
2.28332
2.32297
2.36266
2.40239
2.44216
2.48198
2.52184
2.56174
2.60168
2.64167
2.68169
2.72176
2.76187
2.80203
2.84222
2.88246
2.92274
2.96306
3.00343
3.04384
3.08429
3.12479
3.16533
3.20591
3.24654
3.28721
3.32793
3.36869
3.40949
3.45035
3.49124
3.53219
3.57318
3.61423
3.65532
3.69646
3.73765
3.77889
3.82018
3.86152
3.90292
3.94437
3.98588
4.02744
4.06906
4.11074
4.15248
4.19429
4.23615
4.27807
4.32006
4.36212
4.40424
4.44644
4.48869
4.53102
4.57342
4.6159
4.65844
4.70106
4.74375
4.78652
4.82936
4.87227
4.91525
4.95831
5.00143
5.04462
5.08788
5.13119
5.17455
5.21796
5.26139
5.30485
5.3483
5.39175
5.43516
5.47854
5.52189
5.56516
5.60838
5.65152
5.69458
5.73754
-0.844743
-0.807707
-0.770516
-0.733177
-0.695695
-0.65808
-0.620342
-0.582489
-0.544534
-0.506483
-0.468351
-0.430139
-0.391863
-0.35352
-0.315123
-0.276672
-0.238173
-0.19963
-0.161041
-0.122415
-0.0837474
-0.0450445
-0.00630387
0.0324745
0.0712866
0.110137
0.149019
0.187937
0.226892
0.26588
0.304906
0.34397
0.38307
0.422208
0.461386
0.500602
0.539856
0.579151
0.618487
0.657863
0.697279
0.736738
0.776238
0.815781
0.855366
0.894994
0.934665
0.97438
1.01414
1.05394
1.09379
1.13368
1.17361
1.21359
1.25362
1.29369
1.33381
1.37397
1.41418
1.45443
1.49473
1.53507
1.57546
1.61589
1.65637
1.6969
1.73746
1.77808
1.81874
1.85944
1.90019
1.94099
1.98183
2.02271
2.06364
2.10462
2.14564
2.1867
2.22781
2.26896
2.31016
2.3514
2.39269
2.43402
2.4754
2.51682
2.55828
2.59979
2.64134
2.68293
2.72457
2.76626
2.80798
2.84976
2.89157
2.93343
2.97534
3.01729
3.05929
3.10133
3.14342
3.18555
3.22773
3.26996
3.31223
3.35455
3.39692
3.43933
3.48179
3.52431
3.56687
3.60949
3.65215
3.69487
3.73764
3.78046
3.82333
3.86626
3.90925
3.95229
3.99539
4.03855
4.08178
4.12506
4.1684
4.21181
4.25529
4.29883
4.34244
4.38611
4.42986
4.47368
4.51757
4.56153
4.60557
4.64969
4.69388
4.73814
4.78248
4.82691
4.8714
4.91598
4.96063
5.00535
5.05014
5.09501
5.13994
5.18492
5.22997
5.27505
5.32017
5.36531
5.41045
5.45559
5.50069
5.54577
5.5908
5.63578
5.68069
5.72553
5.77029
5.81493
5.8595
-1.00859
-0.970255
-0.931759
-0.893107
-0.854307
-0.815366
-0.776298
-0.737109
-0.697816
-0.658421
-0.618942
-0.57938
-0.53975
-0.500052
-0.460297
-0.420485
-0.380623
-0.340716
-0.300761
-0.260766
-0.220729
-0.180654
-0.140541
-0.100387
-0.0601982
-0.0199708
0.0202925
0.0605914
0.100928
0.141302
0.181713
0.222164
0.262654
0.303183
0.343753
0.384363
0.425014
0.465707
0.506442
0.547219
0.588038
0.628902
0.669809
0.71076
0.751755
0.792795
0.83388
0.875011
0.916188
0.95741
0.998678
1.03999
1.08135
1.12276
1.16422
1.20572
1.24727
1.28887
1.33051
1.37221
1.41395
1.45573
1.49756
1.53945
1.58137
1.62335
1.66537
1.70744
1.74956
1.79172
1.83393
1.87619
1.9185
1.96085
2.00325
2.04569
2.08819
2.13072
2.17331
2.21594
2.25862
2.30134
2.34412
2.38693
2.4298
2.47271
2.51566
2.55866
2.60171
2.6448
2.68794
2.73113
2.77436
2.81764
2.86096
2.90433
2.94775
2.99122
3.03473
3.07829
3.1219
3.16555
3.20925
3.25301
3.29681
3.34066
3.38456
3.4285
3.4725
3.51656
3.56066
3.60482
3.64903
3.69329
3.73761
3.78198
3.82641
3.8709
3.91545
3.96005
4.00472
4.04945
4.09424
4.13909
4.18401
4.229
4.27406
4.31918
4.36438
4.40965
4.45499
4.50041
4.5459
4.59146
4.63711
4.68283
4.72864
4.77452
4.82049
4.86653
4.91266
4.95886
5.00514
5.0515
5.09794
5.14444
5.19102
5.23765
5.28434
5.33108
5.37785
5.42464
5.47144
5.51822
5.56499
5.61173
5.65843
5.70507
5.75164
5.79815
5.84457
5.89088
5.9371
-1.16922
-1.12962
-1.08984
-1.0499
-1.00981
-0.969567
-0.929194
-0.888696
-0.848088
-0.807376
-0.766576
-0.72569
-0.684734
-0.643706
-0.602619
-0.561475
-0.520276
-0.479032
-0.437737
-0.396401
-0.355021
-0.313601
-0.272142
-0.230641
-0.189102
-0.147525
-0.105909
-0.0642558
-0.0225638
0.0191668
0.0609372
0.102748
0.1446
0.186492
0.228427
0.270404
0.312423
0.354486
0.396593
0.438743
0.480938
0.523178
0.565464
0.607796
0.650174
0.692598
0.735069
0.777588
0.820155
0.862769
0.90543
0.94814
0.9909
1.03371
1.07656
1.11947
1.16242
1.20543
1.24848
1.29159
1.33474
1.37794
1.42119
1.46449
1.50784
1.55124
1.59468
1.63818
1.68172
1.72532
1.76896
1.81266
1.8564
1.90019
1.94403
1.98791
2.03185
2.07584
2.11987
2.16395
2.20808
2.25226
2.29648
2.34076
2.38508
2.42945
2.47387
2.51834
2.56285
2.60741
2.65202
2.69668
2.74139
2.78614
2.83094
2.87579
2.92069
2.96564
3.01064
3.05569
3.10078
3.14593
3.19113
3.23637
3.28167
3.32702
3.37242
3.41788
3.46338
3.50894
3.55455
3.60022
3.64595
3.69173
3.73757
3.78346
3.82942
3.87543
3.9215
3.96764
4.01384
4.06011
4.10644
4.15283
4.1993
4.24583
4.29244
4.33912
4.38587
4.4327
4.4796
4.52659
4.57365
4.62078
4.66801
4.71531
4.7627
4.81017
4.85772
4.90535
4.95308
5.00088
5.04876
5.09673
5.14477
5.19288
5.24107
5.28931
5.33762
5.38597
5.43436
5.48277
5.53119
5.5796
5.628
5.67636
5.72469
5.77296
5.82117
5.86931
5.91736
5.9653
6.01315
6.06086
-1.32649
-1.28564
-1.24461
-1.20341
-1.16205
-1.12053
-1.07888
-1.0371
-0.995209
-0.953207
-0.911113
-0.868931
-0.826676
-0.784346
-0.741956
-0.699506
-0.657
-0.614446
-0.57184
-0.529191
-0.486496
-0.44376
-0.400984
-0.358163
-0.315303
-0.272404
-0.229464
-0.186485
-0.143467
-0.100408
-0.0573074
-0.0141652
0.0290193
0.0722467
0.115517
0.158832
0.202191
0.245594
0.289044
0.332539
0.37608
0.419669
0.463304
0.506987
0.550718
0.594498
0.638326
0.682203
0.726131
0.770107
0.814133
0.858209
0.902336
0.946513
0.990742
1.03502
1.07935
1.12373
1.16817
1.21265
1.25719
1.30177
1.34641
1.3911
1.43584
1.48063
1.52547
1.57036
1.61531
1.6603
1.70535
1.75044
1.79559
1.84079
1.88604
1.93134
1.97669
2.02209
2.06754
2.11304
2.15859
2.20419
2.24984
2.29554
2.34129
2.38709
2.43294
2.47884
2.52479
2.57079
2.61684
2.66294
2.70909
2.75529
2.80154
2.84784
2.89419
2.94059
2.98704
3.03355
3.0801
3.12671
3.17337
3.22008
3.26684
3.31366
3.36053
3.40745
3.45443
3.50147
3.54856
3.59571
3.64292
3.69018
3.73751
3.78489
3.83234
3.87985
3.92742
3.97505
4.02275
4.07052
4.11836
4.16627
4.21424
4.26229
4.31042
4.35862
4.40689
4.45525
4.50368
4.5522
4.60079
4.64947
4.69823
4.74708
4.79602
4.84504
4.89415
4.94334
4.99262
5.04199
5.09144
5.14098
5.19059
5.24028
5.29004
5.33987
5.38975
5.43969
5.48966
5.53965
5.58966
5.63966
5.68965
5.73961