/*--------------------------------*- C++ -*----------------------------------*\
| =========                 |                                                 |
| \\      /  F ield         | OpenFOAM: The Open Source CFD Toolbox           |
|  \\    /   O peration     | Version:  2512                                  |
|   \\  /    A nd           | Website:  www.openfoam.com                      |
|    \\/     M anipulation  |                                                 |
\*---------------------------------------------------------------------------*/
FoamFile
{
    version     2.0;
    format      ascii;
    arch        "LSB;label=32;scalar=64";
    class       surfaceScalarField;
    location    "0.1";
    object      phi;
}
// * * * * * * * * * * * * * * * * * * * * * * * * * * * * * * * * * * * * * //

dimensions      [1 0 -1 0 0 0 0];

oriented        oriented;

internalField   nonuniform List<scalar> 
16431
(
-9.73949e-08
0.00266964
-5.94389e-08
0.00266979
-2.09179e-08
0.00267
-3.71156e-08
0.00267019
-2.47197e-08
0.00267036
-3.52026e-08
0.00267054
-4.37975e-08
0.00267071
-4.51992e-08
0.00267088
-4.72217e-08
0.00267106
-5.01843e-08
0.00267123
-5.28846e-08
0.00267139
-5.53352e-08
0.00267156
-5.77394e-08
0.00267172
-6.00906e-08
0.00267189
-6.24554e-08
0.00267205
-6.48066e-08
0.00267221
-6.71285e-08
0.00267236
-6.94251e-08
0.00267252
-7.17062e-08
0.00267268
-7.4017e-08
0.00267283
-7.62826e-08
0.00267298
-7.85217e-08
0.00267313
-8.07475e-08
0.00267328
-8.29514e-08
0.00267342
-8.51324e-08
0.00267357
-8.73192e-08
0.00267371
-8.9494e-08
0.00267385
-9.16426e-08
0.00267399
-9.3774e-08
0.00267413
-9.58688e-08
0.00267427
-9.79728e-08
0.0026744
-1.0009e-07
0.00267454
-1.02207e-07
0.00267467
-1.04332e-07
0.0026748
-1.0646e-07
0.00267493
-1.08581e-07
0.00267505
-1.10701e-07
0.00267518
-1.12824e-07
0.0026753
-1.14945e-07
0.00267542
-1.17069e-07
0.00267554
-1.19208e-07
0.00267566
-1.21347e-07
0.00267577
-1.23481e-07
0.00267589
-1.25612e-07
0.002676
-1.27742e-07
0.00267611
-1.29874e-07
0.00267622
-1.32007e-07
0.00267633
-1.34142e-07
0.00267644
-1.36278e-07
0.00267654
-1.38415e-07
0.00267664
-1.40551e-07
0.00267674
-1.42694e-07
0.00267684
-1.44838e-07
0.00267694
-1.46985e-07
0.00267703
-1.49136e-07
0.00267713
-1.51286e-07
0.00267722
-1.53439e-07
0.00267731
-1.55594e-07
0.0026774
-1.57753e-07
0.00267749
-1.59915e-07
0.00267757
-1.62078e-07
0.00267765
-1.64243e-07
0.00267774
-1.66412e-07
0.00267781
-1.68583e-07
0.00267789
-1.70757e-07
0.00267797
-1.72932e-07
0.00267804
-1.7511e-07
0.00267812
-1.77291e-07
0.00267819
-1.79475e-07
0.00267826
-1.81661e-07
0.00267832
-1.8385e-07
0.00267839
-1.86043e-07
0.00267845
-1.88235e-07
0.00267851
-1.90432e-07
0.00267857
-1.92633e-07
0.00267863
-1.94834e-07
0.00267869
-1.97039e-07
0.00267874
-1.99245e-07
0.0026788
-2.01454e-07
0.00267885
-2.03666e-07
0.0026789
-2.0588e-07
0.00267894
-2.08098e-07
0.00267899
-2.10316e-07
0.00267903
-2.12539e-07
0.00267907
-2.14766e-07
0.00267911
-2.16993e-07
0.00267915
-2.19222e-07
0.00267919
-2.21454e-07
0.00267922
-2.23691e-07
0.00267926
-2.2593e-07
0.00267929
-2.28169e-07
0.00267932
-2.30411e-07
0.00267934
-2.32654e-07
0.00267937
-2.34901e-07
0.00267939
-2.37151e-07
0.00267942
-2.39404e-07
0.00267944
-2.41659e-07
0.00267945
-2.43918e-07
0.00267947
-2.4618e-07
0.00267948
-2.48445e-07
0.0026795
-2.50712e-07
0.00267951
-2.52984e-07
0.00267952
-2.55259e-07
0.00267952
-2.57537e-07
0.00267953
-2.59819e-07
0.00267953
-2.62104e-07
0.00267953
-2.64393e-07
0.00267953
-2.66686e-07
0.00267953
-2.68985e-07
0.00267953
-2.7129e-07
0.00267952
-2.736e-07
0.00267951
-2.75916e-07
0.0026795
-2.7824e-07
0.00267949
-2.80571e-07
0.00267948
-2.8291e-07
0.00267946
-2.85256e-07
0.00267944
-2.87612e-07
0.00267942
-2.89978e-07
0.0026794
-2.92355e-07
0.00267938
-2.94744e-07
0.00267935
-2.97147e-07
0.00267933
-2.99564e-07
0.0026793
-3.01996e-07
0.00267927
-3.04447e-07
0.00267924
-3.06916e-07
0.0026792
-3.09406e-07
0.00267916
-3.1192e-07
0.00267913
-3.1446e-07
0.00267909
-3.17028e-07
0.00267904
-3.19628e-07
0.002679
-3.22261e-07
0.00267895
-3.2493e-07
0.00267891
-3.2764e-07
0.00267886
-3.30392e-07
0.0026788
-3.33191e-07
0.00267875
-3.36037e-07
0.00267869
-3.38938e-07
0.00267864
-3.41887e-07
0.00267858
-3.44904e-07
0.00267852
-3.47931e-07
0.00267845
-3.51126e-07
0.00267839
-3.5403e-07
0.00267832
-3.57835e-07
0.00267825
-3.59396e-07
0.00267818
-3.66251e-07
0.0026781
-3.60624e-07
0.00267804
-3.81252e-07
0.00267794
-3.49563e-07
0.00267794
-4.14992e-07
-3.07389e-07
0.00266964
-2.29151e-08
0.00266982
5.69482e-09
0.00267001
-2.16101e-08
0.00267019
-4.05954e-09
0.00267036
-9.81977e-09
0.00267054
-2.03744e-08
0.00267071
-2.24919e-08
0.00267088
-2.41764e-08
0.00267106
-2.70216e-08
0.00267122
-2.97196e-08
0.00267139
-3.21033e-08
0.00267156
-3.44431e-08
0.00267172
-3.67174e-08
0.00267189
-3.90455e-08
0.00267205
-4.13637e-08
0.00267221
-4.36448e-08
0.00267236
-4.59002e-08
0.00267252
-4.81347e-08
0.00267268
-5.04343e-08
0.00267283
-5.26629e-08
0.00267298
-5.48663e-08
0.00267313
-5.70634e-08
0.00267328
-5.92324e-08
0.00267342
-6.1372e-08
0.00267357
-6.35317e-08
0.00267371
-6.5678e-08
0.00267385
-6.77902e-08
0.00267399
-6.98888e-08
0.00267413
-7.19329e-08
0.00267427
-7.39975e-08
0.0026744
-7.60813e-08
0.00267454
-7.81613e-08
0.00267467
-8.02501e-08
0.0026748
-8.23464e-08
0.00267492
-8.44286e-08
0.00267505
-8.65077e-08
0.00267518
-8.85998e-08
0.0026753
-9.06808e-08
0.00267542
-9.27632e-08
0.00267554
-9.4871e-08
0.00267566
-9.69762e-08
0.00267577
-9.90737e-08
0.00267589
-1.01165e-07
0.002676
-1.03257e-07
0.00267611
-1.05349e-07
0.00267622
-1.07444e-07
0.00267633
-1.09539e-07
0.00267644
-1.11638e-07
0.00267654
-1.13736e-07
0.00267664
-1.15834e-07
0.00267674
-1.17936e-07
0.00267684
-1.20041e-07
0.00267694
-1.22147e-07
0.00267703
-1.24256e-07
0.00267713
-1.26369e-07
0.00267722
-1.28483e-07
0.00267731
-1.30598e-07
0.0026774
-1.32716e-07
0.00267749
-1.34838e-07
0.00267757
-1.3696e-07
0.00267765
-1.39085e-07
0.00267773
-1.41213e-07
0.00267781
-1.43344e-07
0.00267789
-1.45477e-07
0.00267797
-1.47613e-07
0.00267804
-1.4975e-07
0.00267812
-1.5189e-07
0.00267819
-1.54032e-07
0.00267826
-1.56176e-07
0.00267832
-1.58324e-07
0.00267839
-1.60475e-07
0.00267845
-1.62627e-07
0.00267851
-1.64783e-07
0.00267857
-1.66941e-07
0.00267863
-1.69102e-07
0.00267869
-1.71265e-07
0.00267874
-1.73429e-07
0.0026788
-1.75598e-07
0.00267885
-1.77768e-07
0.0026789
-1.7994e-07
0.00267894
-1.82116e-07
0.00267899
-1.84292e-07
0.00267903
-1.86473e-07
0.00267907
-1.88656e-07
0.00267911
-1.90842e-07
0.00267915
-1.93029e-07
0.00267919
-1.95219e-07
0.00267922
-1.97412e-07
0.00267926
-1.99606e-07
0.00267929
-2.01803e-07
0.00267932
-2.04003e-07
0.00267934
-2.06205e-07
0.00267937
-2.08409e-07
0.00267939
-2.10616e-07
0.00267942
-2.12825e-07
0.00267944
-2.15036e-07
0.00267945
-2.17253e-07
0.00267947
-2.19471e-07
0.00267948
-2.21692e-07
0.0026795
-2.23915e-07
0.00267951
-2.26142e-07
0.00267952
-2.28373e-07
0.00267952
-2.30605e-07
0.00267953
-2.32843e-07
0.00267953
-2.35084e-07
0.00267953
-2.37329e-07
0.00267953
-2.39578e-07
0.00267953
-2.41833e-07
0.00267953
-2.44093e-07
0.00267952
-2.46358e-07
0.00267951
-2.48627e-07
0.0026795
-2.50905e-07
0.00267949
-2.53189e-07
0.00267948
-2.5548e-07
0.00267946
-2.5778e-07
0.00267944
-2.60088e-07
0.00267942
-2.62407e-07
0.0026794
-2.64736e-07
0.00267938
-2.67076e-07
0.00267935
-2.6943e-07
0.00267933
-2.71797e-07
0.0026793
-2.74179e-07
0.00267927
-2.76579e-07
0.00267923
-2.78998e-07
0.0026792
-2.81436e-07
0.00267916
-2.83898e-07
0.00267913
-2.86385e-07
0.00267909
-2.88899e-07
0.00267904
-2.91443e-07
0.002679
-2.9402e-07
0.00267895
-2.96633e-07
0.0026789
-2.99286e-07
0.00267885
-3.01981e-07
0.0026788
-3.04723e-07
0.00267875
-3.07511e-07
0.00267869
-3.10356e-07
0.00267864
-3.13242e-07
0.00267858
-3.16223e-07
0.00267852
-3.19145e-07
0.00267845
-3.22439e-07
0.00267839
-3.2492e-07
0.00267832
-3.29676e-07
0.00267825
-3.28903e-07
0.00267818
-3.41262e-07
0.0026781
-3.24481e-07
0.00267804
-3.68997e-07
0.00267794
-2.96359e-07
0.00267791
-4.28218e-07
0.0026778
-2.44593e-07
-3.67085e-07
0.00266964
1.07179e-08
0.00266982
2.94981e-08
0.00267
3.21138e-09
0.00267018
1.11779e-08
0.00267036
1.23021e-08
0.00267054
4.22013e-09
0.00267071
3.99106e-10
0.00267088
-1.44703e-09
0.00267106
-3.94604e-09
0.00267122
-6.55115e-09
0.00267139
-8.86893e-09
0.00267156
-1.11575e-08
0.00267172
-1.33177e-08
0.00267189
-1.56217e-08
0.00267205
-1.79139e-08
0.00267221
-2.01508e-08
0.00267236
-2.23655e-08
0.00267252
-2.45449e-08
0.00267268
-2.68524e-08
0.00267283
-2.90422e-08
0.00267298
-3.12076e-08
0.00267313
-3.33752e-08
0.00267328
-3.55115e-08
0.00267342
-3.76066e-08
0.00267357
-3.97399e-08
0.00267371
-4.18623e-08
0.00267385
-4.39364e-08
0.00267399
-4.60066e-08
0.00267413
-4.79905e-08
0.00267427
-5.0016e-08
0.0026744
-5.20686e-08
0.00267454
-5.41098e-08
0.00267467
-5.61649e-08
0.0026748
-5.82317e-08
0.00267492
-6.0275e-08
0.00267505
-6.23148e-08
0.00267518
-6.43747e-08
0.0026753
-6.6414e-08
0.00267542
-6.84531e-08
0.00267554
-7.05326e-08
0.00267566
-7.26049e-08
0.00267577
-7.46646e-08
0.00267589
-7.67174e-08
0.002676
-7.87689e-08
0.00267611
-8.08233e-08
0.00267622
-8.288e-08
0.00267633
-8.49354e-08
0.00267644
-8.69954e-08
0.00267654
-8.90555e-08
0.00267664
-9.11122e-08
0.00267674
-9.31753e-08
0.00267684
-9.52416e-08
0.00267694
-9.73084e-08
0.00267703
-9.93783e-08
0.00267713
-1.0145e-07
0.00267722
-1.03526e-07
0.00267731
-1.05599e-07
0.0026774
-1.07677e-07
0.00267749
-1.09759e-07
0.00267757
-1.11841e-07
0.00267765
-1.13926e-07
0.00267773
-1.16013e-07
0.00267781
-1.18104e-07
0.00267789
-1.20196e-07
0.00267797
-1.22291e-07
0.00267804
-1.24387e-07
0.00267812
-1.26485e-07
0.00267819
-1.28588e-07
0.00267825
-1.30691e-07
0.00267832
-1.32798e-07
0.00267839
-1.34908e-07
0.00267845
-1.37018e-07
0.00267851
-1.39132e-07
0.00267857
-1.41249e-07
0.00267863
-1.43368e-07
0.00267869
-1.45489e-07
0.00267874
-1.47613e-07
0.0026788
-1.49739e-07
0.00267885
-1.51868e-07
0.0026789
-1.53998e-07
0.00267894
-1.56131e-07
0.00267899
-1.58267e-07
0.00267903
-1.60404e-07
0.00267907
-1.62546e-07
0.00267911
-1.6469e-07
0.00267915
-1.66834e-07
0.00267919
-1.68981e-07
0.00267922
-1.71132e-07
0.00267926
-1.73284e-07
0.00267929
-1.75438e-07
0.00267932
-1.77595e-07
0.00267934
-1.79753e-07
0.00267937
-1.81915e-07
0.00267939
-1.84079e-07
0.00267941
-1.86246e-07
0.00267943
-1.88414e-07
0.00267945
-1.90587e-07
0.00267947
-1.92761e-07
0.00267948
-1.94939e-07
0.0026795
-1.97118e-07
0.00267951
-1.99301e-07
0.00267952
-2.01488e-07
0.00267952
-2.03677e-07
0.00267953
-2.0587e-07
0.00267953
-2.08066e-07
0.00267953
-2.10267e-07
0.00267953
-2.12471e-07
0.00267953
-2.1468e-07
0.00267952
-2.16894e-07
0.00267952
-2.19113e-07
0.00267951
-2.21337e-07
0.0026795
-2.23568e-07
0.00267949
-2.25806e-07
0.00267948
-2.28051e-07
0.00267946
-2.30303e-07
0.00267944
-2.32564e-07
0.00267942
-2.34834e-07
0.0026794
-2.37115e-07
0.00267938
-2.39406e-07
0.00267935
-2.4171e-07
0.00267933
-2.44028e-07
0.0026793
-2.4636e-07
0.00267927
-2.48708e-07
0.00267923
-2.51075e-07
0.0026792
-2.53461e-07
0.00267916
-2.5587e-07
0.00267913
-2.58303e-07
0.00267908
-2.60763e-07
0.00267904
-2.63252e-07
0.002679
-2.65773e-07
0.00267895
-2.6833e-07
0.0026789
-2.70925e-07
0.00267885
-2.73562e-07
0.0026788
-2.76246e-07
0.00267875
-2.78975e-07
0.00267869
-2.81764e-07
0.00267864
-2.84589e-07
0.00267858
-2.87528e-07
0.00267851
-2.90363e-07
0.00267845
-2.93712e-07
0.00267839
-2.95906e-07
0.00267832
-3.01237e-07
0.00267825
-2.99186e-07
0.00267818
-3.14091e-07
0.0026781
-2.93283e-07
0.00267803
-3.43214e-07
0.00267796
-2.70086e-07
0.00267787
-3.89973e-07
0.00267785
-2.70646e-07
-2.91752e-07
0.00266964
3.23438e-08
0.00266982
5.12302e-08
0.00267
2.80604e-08
0.00267018
3.1244e-08
0.00267036
3.44589e-08
0.00267054
2.7943e-08
0.00267071
2.35393e-08
0.00267088
2.1508e-08
0.00267105
1.91871e-08
0.00267122
1.66801e-08
0.00267139
1.43602e-08
0.00267156
1.20855e-08
0.00267172
1.00362e-08
0.00267188
7.75023e-09
0.00267205
5.53628e-09
0.00267221
3.29865e-09
0.00267236
1.1159e-09
0.00267252
-9.71716e-10
0.00267267
-3.30757e-09
0.00267283
-5.44264e-09
0.00267298
-7.5638e-09
0.00267313
-9.70596e-09
0.00267328
-1.18118e-08
0.00267342
-1.38461e-08
0.00267357
-1.59597e-08
0.00267371
-1.80616e-08
0.00267385
-2.00909e-08
0.00267399
-2.21429e-08
0.00267413
-2.40496e-08
0.00267427
-2.60372e-08
0.0026744
-2.80634e-08
0.00267454
-3.00622e-08
0.00267467
-3.20828e-08
0.0026748
-3.41245e-08
0.00267492
-3.61253e-08
0.00267505
-3.81211e-08
0.00267518
-4.01556e-08
0.0026753
-4.21508e-08
0.00267542
-4.41408e-08
0.00267554
-4.61973e-08
0.00267566
-4.8238e-08
0.00267577
-5.02593e-08
0.00267589
-5.22721e-08
0.002676
-5.42839e-08
0.00267611
-5.62989e-08
0.00267622
-5.83181e-08
0.00267633
-6.0333e-08
0.00267643
-6.23554e-08
0.00267654
-6.43778e-08
0.00267664
-6.63927e-08
0.00267674
-6.84166e-08
0.00267684
-7.04445e-08
0.00267694
-7.24704e-08
0.00267703
-7.45e-08
0.00267713
-7.65328e-08
0.00267722
-7.857e-08
0.00267731
-8.06026e-08
0.0026774
-8.26398e-08
0.00267748
-8.46811e-08
0.00267757
-8.67235e-08
0.00267765
-8.87672e-08
0.00267773
-9.08144e-08
0.00267781
-9.28643e-08
0.00267789
-9.49162e-08
0.00267797
-9.69724e-08
0.00267804
-9.90255e-08
0.00267811
-1.01083e-07
0.00267819
-1.03144e-07
0.00267825
-1.05206e-07
0.00267832
-1.07272e-07
0.00267839
-1.0934e-07
0.00267845
-1.1141e-07
0.00267851
-1.13483e-07
0.00267857
-1.15558e-07
0.00267863
-1.17636e-07
0.00267869
-1.19715e-07
0.00267874
-1.21797e-07
0.00267879
-1.23881e-07
0.00267885
-1.25968e-07
0.0026789
-1.28057e-07
0.00267894
-1.30148e-07
0.00267899
-1.32241e-07
0.00267903
-1.34337e-07
0.00267907
-1.36436e-07
0.00267911
-1.38538e-07
0.00267915
-1.4064e-07
0.00267919
-1.42745e-07
0.00267922
-1.44853e-07
0.00267926
-1.46962e-07
0.00267929
-1.49074e-07
0.00267932
-1.51187e-07
0.00267934
-1.53304e-07
0.00267937
-1.55422e-07
0.00267939
-1.57543e-07
0.00267941
-1.59666e-07
0.00267943
-1.61791e-07
0.00267945
-1.6392e-07
0.00267947
-1.66051e-07
0.00267948
-1.68185e-07
0.0026795
-1.70321e-07
0.00267951
-1.7246e-07
0.00267952
-1.74603e-07
0.00267952
-1.76747e-07
0.00267953
-1.78896e-07
0.00267953
-1.81048e-07
0.00267953
-1.83204e-07
0.00267953
-1.85363e-07
0.00267953
-1.87527e-07
0.00267952
-1.89696e-07
0.00267952
-1.91869e-07
0.00267951
-1.94047e-07
0.0026795
-1.96232e-07
0.00267949
-1.98424e-07
0.00267948
-2.00621e-07
0.00267946
-2.02826e-07
0.00267944
-2.05039e-07
0.00267942
-2.07261e-07
0.0026794
-2.09493e-07
0.00267938
-2.11736e-07
0.00267935
-2.1399e-07
0.00267933
-2.16258e-07
0.0026793
-2.18539e-07
0.00267927
-2.20837e-07
0.00267923
-2.23152e-07
0.0026792
-2.25486e-07
0.00267916
-2.27841e-07
0.00267912
-2.3022e-07
0.00267908
-2.32625e-07
0.00267904
-2.35059e-07
0.002679
-2.37524e-07
0.00267895
-2.40023e-07
0.0026789
-2.42561e-07
0.00267885
-2.4514e-07
0.0026788
-2.47765e-07
0.00267875
-2.50436e-07
0.00267869
-2.53168e-07
0.00267864
-2.55933e-07
0.00267858
-2.58826e-07
0.00267851
-2.61587e-07
0.00267845
-2.64946e-07
0.00267839
-2.66979e-07
0.00267832
-2.72555e-07
0.00267825
-2.70078e-07
0.00267818
-2.85568e-07
0.00267811
-2.65279e-07
0.00267803
-3.11585e-07
0.00267796
-2.53053e-07
0.00267786
-3.35196e-07
0.00267783
-2.90224e-07
0.00267774
-2.52088e-07
-3.7486e-07
0.00266964
5.50576e-08
0.00266982
7.21786e-08
0.00267
5.40259e-08
0.00267018
5.19749e-08
0.00267036
5.56988e-08
0.00267054
5.13264e-08
0.00267071
4.67047e-08
0.00267088
4.4419e-08
0.00267105
4.22613e-08
0.00267122
3.98682e-08
0.00267139
3.75547e-08
0.00267156
3.53523e-08
0.00267172
3.33029e-08
0.00267188
3.11004e-08
0.00267205
2.89182e-08
0.00267221
2.67348e-08
0.00267236
2.46044e-08
0.00267252
2.25216e-08
0.00267267
2.02539e-08
0.00267283
1.81893e-08
0.00267298
1.61112e-08
0.00267313
1.39693e-08
0.00267328
1.19013e-08
0.00267342
9.93509e-09
0.00267357
7.81204e-09
0.00267371
5.74755e-09
0.00267385
3.77797e-09
0.00267399
1.71118e-09
0.00267413
-9.40751e-11
0.00267427
-2.04873e-09
0.0026744
-4.05409e-09
0.00267454
-6.00924e-09
0.00267467
-7.99591e-09
0.0026748
-1.00193e-08
0.00267492
-1.1974e-08
0.00267505
-1.39216e-08
0.00267518
-1.59401e-08
0.0026753
-1.78861e-08
0.00267542
-1.98189e-08
0.00267554
-2.18633e-08
0.00267566
-2.38728e-08
0.00267577
-2.5854e-08
0.00267589
-2.78262e-08
0.002676
-2.97974e-08
0.00267611
-3.17733e-08
0.00267622
-3.37561e-08
0.00267633
-3.5729e-08
0.00267643
-3.77146e-08
0.00267654
-3.97004e-08
0.00267664
-4.16714e-08
0.00267674
-4.36568e-08
0.00267684
-4.56468e-08
0.00267694
-4.76319e-08
0.00267703
-4.96216e-08
0.00267713
-5.16146e-08
0.00267722
-5.36144e-08
0.00267731
-5.56045e-08
0.0026774
-5.76016e-08
0.00267748
-5.96029e-08
0.00267757
-6.16052e-08
0.00267765
-6.36086e-08
0.00267773
-6.56154e-08
0.00267781
-6.76243e-08
0.00267789
-6.96352e-08
0.00267797
-7.1653e-08
0.00267804
-7.36629e-08
0.00267811
-7.56796e-08
0.00267819
-7.76997e-08
0.00267825
-7.97217e-08
0.00267832
-8.17461e-08
0.00267839
-8.37731e-08
0.00267845
-8.58019e-08
0.00267851
-8.78331e-08
0.00267857
-8.98669e-08
0.00267863
-9.19028e-08
0.00267869
-9.39407e-08
0.00267874
-9.59809e-08
0.00267879
-9.80233e-08
0.00267885
-1.00069e-07
0.00267889
-1.02115e-07
0.00267894
-1.04165e-07
0.00267899
-1.06216e-07
0.00267903
-1.0827e-07
0.00267907
-1.10326e-07
0.00267911
-1.12385e-07
0.00267915
-1.14445e-07
0.00267919
-1.16508e-07
0.00267922
-1.18573e-07
0.00267926
-1.2064e-07
0.00267929
-1.22709e-07
0.00267932
-1.2478e-07
0.00267934
-1.26853e-07
0.00267937
-1.28929e-07
0.00267939
-1.31007e-07
0.00267941
-1.33087e-07
0.00267943
-1.35169e-07
0.00267945
-1.37254e-07
0.00267947
-1.39342e-07
0.00267948
-1.41432e-07
0.0026795
-1.43524e-07
0.00267951
-1.45619e-07
0.00267951
-1.47718e-07
0.00267952
-1.49818e-07
0.00267953
-1.51922e-07
0.00267953
-1.5403e-07
0.00267953
-1.56141e-07
0.00267953
-1.58255e-07
0.00267953
-1.60374e-07
0.00267952
-1.62497e-07
0.00267952
-1.64625e-07
0.00267951
-1.66757e-07
0.0026795
-1.68896e-07
0.00267949
-1.71041e-07
0.00267947
-1.73191e-07
0.00267946
-1.75349e-07
0.00267944
-1.77514e-07
0.00267942
-1.79688e-07
0.0026794
-1.81872e-07
0.00267938
-1.84065e-07
0.00267935
-1.8627e-07
0.00267933
-1.88487e-07
0.0026793
-1.90718e-07
0.00267927
-1.92964e-07
0.00267923
-1.95227e-07
0.0026792
-1.97509e-07
0.00267916
-1.9981e-07
0.00267912
-2.02136e-07
0.00267908
-2.04485e-07
0.00267904
-2.06863e-07
0.002679
-2.09272e-07
0.00267895
-2.11715e-07
0.0026789
-2.14195e-07
0.00267885
-2.16715e-07
0.0026788
-2.19282e-07
0.00267875
-2.21893e-07
0.00267869
-2.24567e-07
0.00267864
-2.27274e-07
0.00267858
-2.30114e-07
0.00267851
-2.32818e-07
0.00267845
-2.36144e-07
0.00267839
-2.38132e-07
0.00267832
-2.43667e-07
0.00267825
-2.41434e-07
0.00267818
-2.56103e-07
0.00267811
-2.38786e-07
0.00267803
-2.78009e-07
0.00267796
-2.35828e-07
0.00267787
-2.88787e-07
0.00267781
-2.81243e-07
0.00267772
-2.19035e-07
0.00267764
-3.49908e-07
-3.50146e-07
0.00266964
7.78074e-08
0.00266982
9.21955e-08
0.00267
7.88188e-08
0.00267018
7.40162e-08
0.00267036
7.73185e-08
0.00267054
7.43723e-08
0.00267071
6.98854e-08
0.00267088
6.73954e-08
0.00267105
6.53711e-08
0.00267122
6.30557e-08
0.00267139
6.07811e-08
0.00267156
5.85912e-08
0.00267172
5.65404e-08
0.00267188
5.44273e-08
0.00267205
5.23291e-08
0.00267221
5.02008e-08
0.00267236
4.80413e-08
0.00267252
4.5977e-08
0.00267267
4.38375e-08
0.00267283
4.18234e-08
0.00267298
3.97745e-08
0.00267313
3.76386e-08
0.00267328
3.55938e-08
0.00267342
3.36935e-08
0.00267357
3.16459e-08
0.00267371
2.9597e-08
0.00267385
2.76045e-08
0.00267399
2.56589e-08
0.00267413
2.38413e-08
0.00267427
2.19074e-08
0.0026744
1.98945e-08
0.00267453
1.80543e-08
0.00267467
1.60947e-08
0.0026748
1.40599e-08
0.00267492
1.21656e-08
0.00267505
1.02906e-08
0.00267518
8.26134e-09
0.0026753
6.36926e-09
0.00267542
4.51301e-09
0.00267554
2.46311e-09
0.00267566
4.85987e-10
0.00267577
-1.45216e-09
0.00267589
-3.38271e-09
0.002676
-5.31242e-09
0.00267611
-7.24865e-09
0.00267622
-9.19707e-09
0.00267633
-1.11249e-08
0.00267643
-1.30752e-08
0.00267654
-1.50263e-08
0.00267664
-1.69496e-08
0.00267674
-1.88976e-08
0.00267684
-2.08509e-08
0.00267694
-2.2794e-08
0.00267703
-2.47437e-08
0.00267713
-2.66965e-08
0.00267722
-2.8661e-08
0.00267731
-3.06065e-08
0.0026774
-3.2564e-08
0.00267748
-3.45257e-08
0.00267757
-3.64874e-08
0.00267765
-3.84502e-08
0.00267773
-4.04169e-08
0.00267781
-4.23846e-08
0.00267789
-4.43542e-08
0.00267797
-4.63356e-08
0.00267804
-4.83004e-08
0.00267811
-5.02768e-08
0.00267819
-5.22561e-08
0.00267825
-5.42371e-08
0.00267832
-5.62205e-08
0.00267839
-5.82062e-08
0.00267845
-6.01938e-08
0.00267851
-6.21836e-08
0.00267857
-6.41758e-08
0.00267863
-6.61702e-08
0.00267869
-6.81666e-08
0.00267874
-7.01651e-08
0.00267879
-7.21658e-08
0.00267885
-7.41692e-08
0.00267889
-7.61741e-08
0.00267894
-7.81815e-08
0.00267899
-8.01909e-08
0.00267903
-8.22024e-08
0.00267907
-8.42168e-08
0.00267911
-8.62334e-08
0.00267915
-8.82513e-08
0.00267919
-9.02711e-08
0.00267922
-9.2294e-08
0.00267926
-9.43185e-08
0.00267929
-9.63446e-08
0.00267932
-9.83727e-08
0.00267934
-1.00403e-07
0.00267937
-1.02436e-07
0.00267939
-1.04471e-07
0.00267941
-1.06508e-07
0.00267943
-1.08547e-07
0.00267945
-1.10588e-07
0.00267947
-1.12632e-07
0.00267948
-1.14679e-07
0.0026795
-1.16728e-07
0.00267951
-1.18779e-07
0.00267951
-1.20833e-07
0.00267952
-1.2289e-07
0.00267953
-1.24949e-07
0.00267953
-1.27012e-07
0.00267953
-1.29078e-07
0.00267953
-1.31148e-07
0.00267953
-1.33221e-07
0.00267952
-1.35299e-07
0.00267952
-1.37381e-07
0.00267951
-1.39468e-07
0.0026795
-1.4156e-07
0.00267949
-1.43658e-07
0.00267947
-1.45761e-07
0.00267946
-1.47872e-07
0.00267944
-1.49989e-07
0.00267942
-1.52115e-07
0.0026794
-1.5425e-07
0.00267938
-1.56394e-07
0.00267935
-1.58549e-07
0.00267933
-1.60717e-07
0.0026793
-1.62897e-07
0.00267927
-1.65091e-07
0.00267923
-1.67302e-07
0.0026792
-1.69531e-07
0.00267916
-1.71779e-07
0.00267912
-1.7405e-07
0.00267908
-1.76345e-07
0.00267904
-1.78667e-07
0.002679
-1.81019e-07
0.00267895
-1.83404e-07
0.0026789
-1.85826e-07
0.00267885
-1.88287e-07
0.0026788
-1.90795e-07
0.00267875
-1.93347e-07
0.00267869
-1.95962e-07
0.00267863
-1.98611e-07
0.00267858
-2.01395e-07
0.00267851
-2.04052e-07
0.00267845
-2.07314e-07
0.00267838
-2.09338e-07
0.00267832
-2.14641e-07
0.00267825
-2.13053e-07
0.00267818
-2.26132e-07
0.00267811
-2.12909e-07
0.00267803
-2.43804e-07
0.00267796
-2.17123e-07
0.00267787
-2.46555e-07
0.0026778
-2.64837e-07
0.00267772
-1.95462e-07
0.00267763
-3.14436e-07
0.00267751
-2.74884e-07
-3.3152e-07
0.00266964
1.00972e-07
0.00266982
1.12266e-07
0.00267
1.0301e-07
0.00267018
9.69704e-08
0.00267036
9.90122e-08
0.00267054
9.70979e-08
0.00267071
9.30764e-08
0.00267088
9.04409e-08
0.00267105
8.84128e-08
0.00267122
8.62026e-08
0.00267139
8.39353e-08
0.00267156
8.18695e-08
0.00267172
7.98225e-08
0.00267188
7.77546e-08
0.00267205
7.56956e-08
0.0026722
7.36235e-08
0.00267236
7.14863e-08
0.00267252
6.94848e-08
0.00267267
6.74188e-08
0.00267283
6.54136e-08
0.00267298
6.33978e-08
0.00267313
6.13477e-08
0.00267328
5.93117e-08
0.00267342
5.7426e-08
0.00267357
5.5437e-08
0.00267371
5.34403e-08
0.00267385
5.14949e-08
0.00267399
4.95925e-08
0.00267413
4.77154e-08
0.00267427
4.58709e-08
0.0026744
4.39229e-08
0.00267453
4.20616e-08
0.00267467
4.01582e-08
0.0026748
3.81714e-08
0.00267492
3.63237e-08
0.00267505
3.44513e-08
0.00267517
3.25065e-08
0.0026753
3.06069e-08
0.00267542
2.87752e-08
0.00267554
2.68052e-08
0.00267566
2.48727e-08
0.00267577
2.29559e-08
0.00267589
2.10662e-08
0.002676
1.9176e-08
0.00267611
1.72797e-08
0.00267622
1.53586e-08
0.00267633
1.34831e-08
0.00267643
1.15654e-08
0.00267654
9.64311e-09
0.00267664
7.77577e-09
0.00267674
5.86208e-09
0.00267684
3.94359e-09
0.00267694
2.04468e-09
0.00267703
1.34388e-10
0.00267713
-1.77719e-09
0.00267722
-3.71036e-09
0.00267731
-5.60718e-09
0.0026774
-7.52622e-09
0.00267748
-9.44876e-09
0.00267757
-1.13697e-08
0.00267765
-1.32917e-08
0.00267773
-1.52188e-08
0.00267781
-1.7145e-08
0.00267789
-1.90719e-08
0.00267797
-2.10206e-08
0.00267804
-2.29368e-08
0.00267811
-2.48739e-08
0.00267818
-2.68124e-08
0.00267825
-2.87526e-08
0.00267832
-3.06949e-08
0.00267839
-3.26393e-08
0.00267845
-3.45857e-08
0.00267851
-3.65342e-08
0.00267857
-3.84849e-08
0.00267863
-4.04377e-08
0.00267869
-4.23926e-08
0.00267874
-4.43494e-08
0.00267879
-4.63084e-08
0.00267885
-4.827e-08
0.00267889
-5.0233e-08
0.00267894
-5.21984e-08
0.00267899
-5.41658e-08
0.00267903
-5.61353e-08
0.00267907
-5.81073e-08
0.00267911
-6.00817e-08
0.00267915
-6.20573e-08
0.00267919
-6.40348e-08
0.00267922
-6.60149e-08
0.00267926
-6.79969e-08
0.00267929
-6.99804e-08
0.00267932
-7.19658e-08
0.00267934
-7.39535e-08
0.00267937
-7.59432e-08
0.00267939
-7.7935e-08
0.00267941
-7.99287e-08
0.00267943
-8.19245e-08
0.00267945
-8.3923e-08
0.00267947
-8.59235e-08
0.00267948
-8.79263e-08
0.00267949
-8.99312e-08
0.00267951
-9.19385e-08
0.00267951
-9.39486e-08
0.00267952
-9.5961e-08
0.00267953
-9.79762e-08
0.00267953
-9.99946e-08
0.00267953
-1.02016e-07
0.00267953
-1.04041e-07
0.00267953
-1.06069e-07
0.00267952
-1.08101e-07
0.00267952
-1.10138e-07
0.00267951
-1.12178e-07
0.0026795
-1.14224e-07
0.00267949
-1.16275e-07
0.00267947
-1.18332e-07
0.00267946
-1.20395e-07
0.00267944
-1.22464e-07
0.00267942
-1.24542e-07
0.0026794
-1.26628e-07
0.00267938
-1.28723e-07
0.00267935
-1.30829e-07
0.00267933
-1.32946e-07
0.0026793
-1.35075e-07
0.00267927
-1.37218e-07
0.00267923
-1.39377e-07
0.0026792
-1.41553e-07
0.00267916
-1.43747e-07
0.00267912
-1.45964e-07
0.00267908
-1.48203e-07
0.00267904
-1.50469e-07
0.002679
-1.52764e-07
0.00267895
-1.55091e-07
0.0026789
-1.57455e-07
0.00267885
-1.59857e-07
0.0026788
-1.62305e-07
0.00267875
-1.64798e-07
0.00267869
-1.67354e-07
0.00267863
-1.69946e-07
0.00267857
-1.72669e-07
0.00267851
-1.75288e-07
0.00267845
-1.78464e-07
0.00267838
-1.80571e-07
0.00267832
-1.85537e-07
0.00267825
-1.84766e-07
0.00267818
-1.96028e-07
0.00267811
-1.86825e-07
0.00267803
-2.10349e-07
0.00267796
-1.9528e-07
0.00267787
-2.10454e-07
0.00267779
-2.36781e-07
0.00267772
-1.78155e-07
0.00267762
-2.67927e-07
0.00267756
-2.71049e-07
-2.76058e-07
0.00266964
1.24441e-07
0.00266982
1.32698e-07
0.00267
1.26525e-07
0.00267018
1.20195e-07
0.00267036
1.21015e-07
0.00267053
1.19735e-07
0.00267071
1.16179e-07
0.00267088
1.13498e-07
0.00267105
1.11453e-07
0.00267122
1.09329e-07
0.00267139
1.0715e-07
0.00267156
1.05095e-07
0.00267172
1.03099e-07
0.00267188
1.0107e-07
0.00267204
9.90619e-08
0.0026722
9.70199e-08
0.00267236
9.49706e-08
0.00267252
9.29776e-08
0.00267267
9.09778e-08
0.00267283
8.90015e-08
0.00267298
8.70233e-08
0.00267313
8.50271e-08
0.00267328
8.30494e-08
0.00267342
8.11612e-08
0.00267357
7.92215e-08
0.00267371
7.72721e-08
0.00267385
7.53708e-08
0.00267399
7.34968e-08
0.00267413
7.16479e-08
0.00267427
6.98167e-08
0.0026744
6.79348e-08
0.00267453
6.60669e-08
0.00267467
6.42201e-08
0.0026748
6.2301e-08
0.00267492
6.04641e-08
0.00267505
5.8619e-08
0.00267517
5.67377e-08
0.0026753
5.48487e-08
0.00267542
5.30502e-08
0.00267554
5.11387e-08
0.00267566
4.9249e-08
0.00267577
4.73754e-08
0.00267589
4.55077e-08
0.002676
4.36625e-08
0.00267611
4.18013e-08
0.00267622
3.9929e-08
0.00267633
3.80859e-08
0.00267643
3.6187e-08
0.00267654
3.43398e-08
0.00267664
3.24892e-08
0.00267674
3.06209e-08
0.00267684
2.87386e-08
0.00267694
2.68821e-08
0.00267703
2.50119e-08
0.00267713
2.31445e-08
0.00267722
2.12348e-08
0.00267731
1.93945e-08
0.0026774
1.75115e-08
0.00267748
1.56275e-08
0.00267757
1.37477e-08
0.00267765
1.18671e-08
0.00267773
9.9788e-09
0.00267781
8.09435e-09
0.00267789
6.21281e-09
0.00267797
4.28959e-09
0.00267804
2.42907e-09
0.00267811
5.28811e-10
0.00267818
-1.36903e-09
0.00267825
-3.2682e-09
0.00267832
-5.16958e-09
0.00267839
-7.07252e-09
0.00267845
-8.97763e-09
0.00267851
-1.08849e-08
0.00267857
-1.2794e-08
0.00267863
-1.47052e-08
0.00267869
-1.66188e-08
0.00267874
-1.85337e-08
0.00267879
-2.0451e-08
0.00267884
-2.23709e-08
0.00267889
-2.4292e-08
0.00267894
-2.62155e-08
0.00267899
-2.81409e-08
0.00267903
-3.00683e-08
0.00267907
-3.19981e-08
0.00267911
-3.393e-08
0.00267915
-3.58634e-08
0.00267919
-3.77986e-08
0.00267922
-3.97361e-08
0.00267926
-4.16754e-08
0.00267929
-4.36163e-08
0.00267932
-4.5559e-08
0.00267934
-4.75039e-08
0.00267937
-4.94507e-08
0.00267939
-5.13995e-08
0.00267941
-5.33501e-08
0.00267943
-5.53026e-08
0.00267945
-5.72577e-08
0.00267947
-5.92147e-08
0.00267948
-6.11739e-08
0.00267949
-6.31351e-08
0.00267951
-6.50985e-08
0.00267951
-6.70645e-08
0.00267952
-6.90328e-08
0.00267953
-7.10037e-08
0.00267953
-7.29775e-08
0.00267953
-7.49542e-08
0.00267953
-7.69337e-08
0.00267953
-7.89168e-08
0.00267952
-8.09037e-08
0.00267952
-8.28944e-08
0.00267951
-8.48889e-08
0.0026795
-8.68883e-08
0.00267949
-8.88929e-08
0.00267947
-9.09026e-08
0.00267946
-9.29181e-08
0.00267944
-9.49402e-08
0.00267942
-9.69694e-08
0.0026794
-9.90068e-08
0.00267938
-1.01053e-07
0.00267935
-1.03109e-07
0.00267933
-1.05175e-07
0.0026793
-1.07253e-07
0.00267927
-1.09345e-07
0.00267923
-1.11451e-07
0.0026792
-1.13574e-07
0.00267916
-1.15715e-07
0.00267912
-1.17877e-07
0.00267908
-1.20061e-07
0.00267904
-1.22271e-07
0.002679
-1.24509e-07
0.00267895
-1.26777e-07
0.0026789
-1.29083e-07
0.00267885
-1.31426e-07
0.0026788
-1.33814e-07
0.00267875
-1.36247e-07
0.00267869
-1.38742e-07
0.00267863
-1.41278e-07
0.00267857
-1.43939e-07
0.00267851
-1.46524e-07
0.00267845
-1.49602e-07
0.00267838
-1.51808e-07
0.00267832
-1.56412e-07
0.00267825
-1.56452e-07
0.00267818
-1.6598e-07
0.00267811
-1.60235e-07
0.00267803
-1.77916e-07
0.00267795
-1.70688e-07
0.00267787
-1.78378e-07
0.00267779
-2.03645e-07
0.00267772
-1.65023e-07
0.00267762
-2.18409e-07
0.00267754
-2.52757e-07
0.00267747
-2.53916e-07
-2.389e-07
0.00266964
1.48012e-07
0.00266982
1.53587e-07
0.00267
1.49545e-07
0.00267018
1.43539e-07
0.00267036
1.4331e-07
0.00267053
1.4231e-07
0.00267071
1.39218e-07
0.00267088
1.3656e-07
0.00267105
1.34504e-07
0.00267122
1.32447e-07
0.00267139
1.30343e-07
0.00267156
1.28328e-07
0.00267172
1.26362e-07
0.00267188
1.24385e-07
0.00267204
1.22415e-07
0.0026722
1.20427e-07
0.00267236
1.18435e-07
0.00267252
1.16479e-07
0.00267267
1.14527e-07
0.00267283
1.12585e-07
0.00267298
1.10647e-07
0.00267313
1.08701e-07
0.00267328
1.06772e-07
0.00267342