/*--------------------------------*- C++ -*----------------------------------*\
| =========                 |                                                 |
| \\      /  F ield         | OpenFOAM: The Open Source CFD Toolbox           |
|  \\    /   O peration     | Version:  2512                                  |
|   \\  /    A nd           | Website:  www.openfoam.com                      |
|    \\/     M anipulation  |                                                 |
\*---------------------------------------------------------------------------*/
FoamFile
{
    version     2.0;
    format      ascii;
    arch        "LSB;label=32;scalar=64";
    class       surfaceScalarField;
    location    "0.1";
    object      phiB;
}
// * * * * * * * * * * * * * * * * * * * * * * * * * * * * * * * * * * * * * //

dimensions      [1 2 -2 0 0 -1 0];

oriented        oriented;

internalField   nonuniform List<scalar> 
16431
(
0.00192
-2.01743e-10
0.00192
-2.01679e-10
0.00192
-2.01662e-10
0.00192
-2.01711e-10
0.00192
-2.01716e-10
0.00192
-2.01687e-10
0.00192
-2.01653e-10
0.00192
-2.01614e-10
0.00192
-2.0157e-10
0.00192
-2.0152e-10
0.00192
-2.01465e-10
0.00192
-2.0141e-10
0.00192
-2.01355e-10
0.00192
-2.01298e-10
0.00192
-2.0124e-10
0.00192
-2.01185e-10
0.00192
-2.0113e-10
0.00192
-2.01075e-10
0.00192
-2.01022e-10
0.00192
-2.00969e-10
0.00192
-2.00917e-10
0.00192
-2.00867e-10
0.00192
-2.00817e-10
0.00192
-2.00768e-10
0.00192
-2.0072e-10
0.00192
-2.00671e-10
0.00192
-2.00624e-10
0.00192
-2.00577e-10
0.00192
-2.0053e-10
0.00192
-2.00484e-10
0.00192
-2.00438e-10
0.00192
-2.00392e-10
0.00192
-2.00347e-10
0.00192
-2.00302e-10
0.00192
-2.00256e-10
0.00192
-2.00211e-10
0.00192
-2.00166e-10
0.00192
-2.00122e-10
0.00192
-2.00077e-10
0.00192
-2.00032e-10
0.00192
-1.99988e-10
0.00192
-1.99943e-10
0.00192
-1.99899e-10
0.00192
-1.99855e-10
0.00192
-1.9981e-10
0.00192
-1.99766e-10
0.00192
-1.99722e-10
0.00192
-1.99678e-10
0.00192
-1.99634e-10
0.00192
-1.99589e-10
0.00192
-1.99545e-10
0.00192
-1.99501e-10
0.00192
-1.99457e-10
0.00192
-1.99413e-10
0.00192
-1.99368e-10
0.00192
-1.99324e-10
0.00192
-1.9928e-10
0.00192
-1.99236e-10
0.00192
-1.99191e-10
0.00192
-1.99147e-10
0.00192
-1.99103e-10
0.00192
-1.99059e-10
0.00192
-1.99015e-10
0.00192
-1.9897e-10
0.00192
-1.98926e-10
0.00192
-1.98881e-10
0.00192
-1.98836e-10
0.00192
-1.98792e-10
0.00192
-1.98747e-10
0.00192
-1.98702e-10
0.00192
-1.98658e-10
0.00192
-1.98613e-10
0.00192
-1.98568e-10
0.00192
-1.98524e-10
0.00192
-1.98479e-10
0.00192
-1.98435e-10
0.00192
-1.9839e-10
0.00192
-1.98345e-10
0.00192
-1.98301e-10
0.00192
-1.98256e-10
0.00192
-1.98211e-10
0.00192
-1.98166e-10
0.00192
-1.98121e-10
0.00192
-1.98076e-10
0.00192
-1.9803e-10
0.00192
-1.97985e-10
0.00192
-1.9794e-10
0.00192
-1.97895e-10
0.00192
-1.97849e-10
0.00192
-1.97804e-10
0.00192
-1.97759e-10
0.00192
-1.97713e-10
0.00192
-1.97668e-10
0.00192
-1.97623e-10
0.00192
-1.97578e-10
0.00192
-1.97533e-10
0.00192
-1.97488e-10
0.00192
-1.97442e-10
0.00192
-1.97397e-10
0.00192
-1.97352e-10
0.00192
-1.97307e-10
0.00192
-1.97261e-10
0.00192
-1.97216e-10
0.00192
-1.9717e-10
0.00192
-1.97125e-10
0.00192
-1.97079e-10
0.00192
-1.97033e-10
0.00192
-1.96986e-10
0.00192
-1.96941e-10
0.00192
-1.96895e-10
0.00192
-1.96851e-10
0.00192
-1.96807e-10
0.00192
-1.96763e-10
0.00192
-1.96718e-10
0.00192
-1.96674e-10
0.00192
-1.9663e-10
0.00192
-1.96586e-10
0.00192
-1.96541e-10
0.00192
-1.96497e-10
0.00192
-1.96452e-10
0.00192
-1.96407e-10
0.00192
-1.96365e-10
0.00192
-1.96321e-10
0.00192
-1.96278e-10
0.00192
-1.96235e-10
0.00192
-1.96191e-10
0.00192
-1.96148e-10
0.00192
-1.96104e-10
0.00192
-1.96059e-10
0.00192
-1.96017e-10
0.00192
-1.95975e-10
0.00192
-1.95932e-10
0.00192
-1.9589e-10
0.00192
-1.95847e-10
0.00192
-1.95804e-10
0.00192
-1.95759e-10
0.00192
-1.95717e-10
0.00192
-1.95671e-10
0.00192
-1.95624e-10
0.00192
-1.95574e-10
0.00192
-1.95521e-10
0.00192
-1.95463e-10
0.00192
-1.95398e-10
0.00192
-1.95326e-10
0.00192
-1.95241e-10
0.00192
-1.95146e-10
0.00192
-1.95037e-10
0.00192
-1.94916e-10
0.00192
0.00192
-5.69157e-10
0.00192
-5.69106e-10
0.00192
-5.69016e-10
0.00192
-5.68981e-10
0.00192
-5.68924e-10
0.00192
-5.68826e-10
0.00192
-5.68718e-10
0.00192
-5.68604e-10
0.00192
-5.68484e-10
0.00192
-5.68358e-10
0.00192
-5.68226e-10
0.00192
-5.68091e-10
0.00192
-5.67955e-10
0.00192
-5.67817e-10
0.00192
-5.67679e-10
0.00192
-5.67539e-10
0.00192
-5.67401e-10
0.00192
-5.67263e-10
0.00192
-5.67125e-10
0.00192
-5.66989e-10
0.00192
-5.66852e-10
0.00192
-5.66716e-10
0.00192
-5.66583e-10
0.00192
-5.66447e-10
0.00192
-5.66313e-10
0.00192
-5.66181e-10
0.00192
-5.66046e-10
0.00192
-5.65913e-10
0.00192
-5.65783e-10
0.00192
-5.65649e-10
0.00192
-5.65516e-10
0.00192
-5.65387e-10
0.00192
-5.65255e-10
0.00192
-5.65122e-10
0.00192
-5.64991e-10
0.00192
-5.64862e-10
0.00192
-5.64729e-10
0.00192
-5.64597e-10
0.00192
-5.64468e-10
0.00192
-5.64337e-10
0.00192
-5.64205e-10
0.00192
-5.64074e-10
0.00192
-5.63945e-10
0.00192
-5.63814e-10
0.00192
-5.63682e-10
0.00192
-5.63551e-10
0.00192
-5.63421e-10
0.00192
-5.6329e-10
0.00192
-5.63159e-10
0.00192
-5.63028e-10
0.00192
-5.62897e-10
0.00192
-5.62766e-10
0.00192
-5.62634e-10
0.00192
-5.62503e-10
0.00192
-5.62372e-10
0.00192
-5.6224e-10
0.00192
-5.62108e-10
0.00192
-5.61977e-10
0.00192
-5.61845e-10
0.00192
-5.61713e-10
0.00192
-5.61581e-10
0.00192
-5.61449e-10
0.00192
-5.61317e-10
0.00192
-5.61184e-10
0.00192
-5.61051e-10
0.00192
-5.60919e-10
0.00192
-5.60786e-10
0.00192
-5.60652e-10
0.00192
-5.60519e-10
0.00192
-5.60386e-10
0.00192
-5.60252e-10
0.00192
-5.60119e-10
0.00192
-5.59985e-10
0.00192
-5.59851e-10
0.00192
-5.59717e-10
0.00192
-5.59583e-10
0.00192
-5.59449e-10
0.00192
-5.59315e-10
0.00192
-5.5918e-10
0.00192
-5.59045e-10
0.00192
-5.5891e-10
0.00192
-5.58775e-10
0.00192
-5.5864e-10
0.00192
-5.58505e-10
0.00192
-5.58369e-10
0.00192
-5.58233e-10
0.00192
-5.58097e-10
0.00192
-5.57961e-10
0.00192
-5.57825e-10
0.00192
-5.57689e-10
0.00192
-5.57552e-10
0.00192
-5.57416e-10
0.00192
-5.57279e-10
0.00192
-5.57143e-10
0.00192
-5.57006e-10
0.00192
-5.56869e-10
0.00192
-5.56732e-10
0.00192
-5.56595e-10
0.00192
-5.56458e-10
0.00192
-5.56321e-10
0.00192
-5.56184e-10
0.00192
-5.56046e-10
0.00192
-5.55909e-10
0.00192
-5.55771e-10
0.00192
-5.55633e-10
0.00192
-5.55495e-10
0.00192
-5.55356e-10
0.00192
-5.55217e-10
0.00192
-5.55079e-10
0.00192
-5.54941e-10
0.00192
-5.54804e-10
0.00192
-5.54667e-10
0.00192
-5.5453e-10
0.00192
-5.54392e-10
0.00192
-5.54255e-10
0.00192
-5.54118e-10
0.00192
-5.5398e-10
0.00192
-5.53843e-10
0.00192
-5.53705e-10
0.00192
-5.53567e-10
0.00192
-5.5343e-10
0.00192
-5.53294e-10
0.00192
-5.53157e-10
0.00192
-5.53021e-10
0.00192
-5.52885e-10
0.00192
-5.52748e-10
0.00192
-5.52611e-10
0.00192
-5.52474e-10
0.00192
-5.52336e-10
0.00192
-5.522e-10
0.00192
-5.52064e-10
0.00192
-5.51928e-10
0.00192
-5.51792e-10
0.00192
-5.51655e-10
0.00192
-5.51517e-10
0.00192
-5.5138e-10
0.00192
-5.51242e-10
0.00192
-5.51102e-10
0.00192
-5.5096e-10
0.00192
-5.50816e-10
0.00192
-5.50668e-10
0.00192
-5.50516e-10
0.00192
-5.50356e-10
0.00192
-5.50188e-10
0.00192
-5.50014e-10
0.00192
-5.49813e-10
0.00192
-5.49646e-10
0.00192
-5.49331e-10
0.00192
-5.49296e-10
0.00192
0.00192
-9.36614e-10
0.00192
-9.36532e-10
0.00192
-9.36376e-10
0.00192
-9.36249e-10
0.00192
-9.36124e-10
0.00192
-9.35959e-10
0.00192
-9.35777e-10
0.00192
-9.35589e-10
0.00192
-9.35393e-10
0.00192
-9.3519e-10
0.00192
-9.34981e-10
0.00192
-9.34766e-10
0.00192
-9.34551e-10
0.00192
-9.3433e-10
0.00192
-9.34112e-10
0.00192
-9.33888e-10
0.00192
-9.33666e-10
0.00192
-9.33446e-10
0.00192
-9.33223e-10
0.00192
-9.33003e-10
0.00192
-9.32781e-10
0.00192
-9.32559e-10
0.00192
-9.32344e-10
0.00192
-9.32121e-10
0.00192
-9.319e-10
0.00192
-9.31686e-10
0.00192
-9.31463e-10
0.00192
-9.31242e-10
0.00192
-9.3103e-10
0.00192
-9.3081e-10
0.00192
-9.30589e-10
0.00192
-9.30375e-10
0.00192
-9.30158e-10
0.00192
-9.29938e-10
0.00192
-9.2972e-10
0.00192
-9.29505e-10
0.00192
-9.29287e-10
0.00192
-9.29068e-10
0.00192
-9.28853e-10
0.00192
-9.28636e-10
0.00192
-9.28417e-10
0.00192
-9.282e-10
0.00192
-9.27984e-10
0.00192
-9.27767e-10
0.00192
-9.27549e-10
0.00192
-9.27331e-10
0.00192
-9.27114e-10
0.00192
-9.26897e-10
0.00192
-9.26679e-10
0.00192
-9.2646e-10
0.00192
-9.26242e-10
0.00192
-9.26025e-10
0.00192
-9.25807e-10
0.00192
-9.25587e-10
0.00192
-9.25369e-10
0.00192
-9.25151e-10
0.00192
-9.24931e-10
0.00192
-9.24712e-10
0.00192
-9.24493e-10
0.00192
-9.24274e-10
0.00192
-9.24053e-10
0.00192
-9.23833e-10
0.00192
-9.23613e-10
0.00192
-9.23392e-10
0.00192
-9.23171e-10
0.00192
-9.2295e-10
0.00192
-9.22729e-10
0.00192
-9.22507e-10
0.00192
-9.22285e-10
0.00192
-9.22063e-10
0.00192
-9.21841e-10
0.00192
-9.21618e-10
0.00192
-9.21395e-10
0.00192
-9.21172e-10
0.00192
-9.20949e-10
0.00192
-9.20725e-10
0.00192
-9.20502e-10
0.00192
-9.20278e-10
0.00192
-9.20053e-10
0.00192
-9.19829e-10
0.00192
-9.19604e-10
0.00192
-9.19378e-10
0.00192
-9.19153e-10
0.00192
-9.18927e-10
0.00192
-9.18701e-10
0.00192
-9.18475e-10
0.00192
-9.18248e-10
0.00192
-9.18022e-10
0.00192
-9.17795e-10
0.00192
-9.17567e-10
0.00192
-9.1734e-10
0.00192
-9.17112e-10
0.00192
-9.16884e-10
0.00192
-9.16656e-10
0.00192
-9.16428e-10
0.00192
-9.16199e-10
0.00192
-9.1597e-10
0.00192
-9.15742e-10
0.00192
-9.15513e-10
0.00192
-9.15284e-10
0.00192
-9.15054e-10
0.00192
-9.14825e-10
0.00192
-9.14595e-10
0.00192
-9.14365e-10
0.00192
-9.14134e-10
0.00192
-9.13903e-10
0.00192
-9.13672e-10
0.00192
-9.13441e-10
0.00192
-9.1321e-10
0.00192
-9.1298e-10
0.00192
-9.1275e-10
0.00192
-9.1252e-10
0.00192
-9.1229e-10
0.00192
-9.12059e-10
0.00192
-9.11829e-10
0.00192
-9.11598e-10
0.00192
-9.11368e-10
0.00192
-9.11137e-10
0.00192
-9.10906e-10
0.00192
-9.10675e-10
0.00192
-9.10445e-10
0.00192
-9.10216e-10
0.00192
-9.09986e-10
0.00192
-9.09757e-10
0.00192
-9.09528e-10
0.00192
-9.09298e-10
0.00192
-9.09068e-10
0.00192
-9.08837e-10
0.00192
-9.08606e-10
0.00192
-9.08376e-10
0.00192
-9.08146e-10
0.00192
-9.07916e-10
0.00192
-9.07686e-10
0.00192
-9.07456e-10
0.00192
-9.07224e-10
0.00192
-9.06993e-10
0.00192
-9.0676e-10
0.00192
-9.06526e-10
0.00192
-9.0629e-10
0.00192
-9.06051e-10
0.00192
-9.05808e-10
0.00192
-9.05562e-10
0.00192
-9.05307e-10
0.00192
-9.05045e-10
0.00192
-9.0478e-10
0.00192
-9.04475e-10
0.00192
-9.04234e-10
0.00192
-9.03778e-10
0.00192
-9.03661e-10
0.00192
0.00192
-1.30408e-09
0.00192
-1.30394e-09
0.00192
-1.30372e-09
0.00192
-1.30351e-09
0.00192
-1.30332e-09
0.00192
-1.30308e-09
0.00192
-1.30283e-09
0.00192
-1.30257e-09
0.00192
-1.30229e-09
0.00192
-1.30201e-09
0.00192
-1.30173e-09
0.00192
-1.30143e-09
0.00192
-1.30114e-09
0.00192
-1.30084e-09
0.00192
-1.30054e-09
0.00192
-1.30023e-09
0.00192
-1.29992e-09
0.00192
-1.29962e-09
0.00192
-1.29931e-09
0.00192
-1.29901e-09
0.00192
-1.2987e-09
0.00192
-1.29839e-09
0.00192
-1.2981e-09
0.00192
-1.29779e-09
0.00192
-1.29748e-09
0.00192
-1.29718e-09
0.00192
-1.29688e-09
0.00192
-1.29657e-09
0.00192
-1.29627e-09
0.00192
-1.29596e-09
0.00192
-1.29566e-09
0.00192
-1.29535e-09
0.00192
-1.29505e-09
0.00192
-1.29475e-09
0.00192
-1.29444e-09
0.00192
-1.29414e-09
0.00192
-1.29384e-09
0.00192
-1.29353e-09
0.00192
-1.29323e-09
0.00192
-1.29293e-09
0.00192
-1.29262e-09
0.00192
-1.29232e-09
0.00192
-1.29202e-09
0.00192
-1.29171e-09
0.00192
-1.29141e-09
0.00192
-1.2911e-09
0.00192
-1.2908e-09
0.00192
-1.2905e-09
0.00192
-1.29019e-09
0.00192
-1.28989e-09
0.00192
-1.28958e-09
0.00192
-1.28928e-09
0.00192
-1.28897e-09
0.00192
-1.28867e-09
0.00192
-1.28836e-09
0.00192
-1.28805e-09
0.00192
-1.28775e-09
0.00192
-1.28744e-09
0.00192
-1.28713e-09
0.00192
-1.28683e-09
0.00192
-1.28652e-09
0.00192
-1.28621e-09
0.00192
-1.2859e-09
0.00192
-1.28559e-09
0.00192
-1.28528e-09
0.00192
-1.28497e-09
0.00192
-1.28466e-09
0.00192
-1.28435e-09
0.00192
-1.28404e-09
0.00192
-1.28373e-09
0.00192
-1.28342e-09
0.00192
-1.28311e-09
0.00192
-1.2828e-09
0.00192
-1.28249e-09
0.00192
-1.28217e-09
0.00192
-1.28186e-09
0.00192
-1.28155e-09
0.00192
-1.28123e-09
0.00192
-1.28092e-09
0.00192
-1.2806e-09
0.00192
-1.28029e-09
0.00192
-1.27997e-09
0.00192
-1.27966e-09
0.00192
-1.27934e-09
0.00192
-1.27903e-09
0.00192
-1.27871e-09
0.00192
-1.27839e-09
0.00192
-1.27807e-09
0.00192
-1.27776e-09
0.00192
-1.27744e-09
0.00192
-1.27712e-09
0.00192
-1.2768e-09
0.00192
-1.27648e-09
0.00192
-1.27616e-09
0.00192
-1.27584e-09
0.00192
-1.27552e-09
0.00192
-1.2752e-09
0.00192
-1.27488e-09
0.00192
-1.27456e-09
0.00192
-1.27424e-09
0.00192
-1.27392e-09
0.00192
-1.2736e-09
0.00192
-1.27327e-09
0.00192
-1.27295e-09
0.00192
-1.27263e-09
0.00192
-1.2723e-09
0.00192
-1.27198e-09
0.00192
-1.27166e-09
0.00192
-1.27133e-09
0.00192
-1.27101e-09
0.00192
-1.27069e-09
0.00192
-1.27037e-09
0.00192
-1.27004e-09
0.00192
-1.26972e-09
0.00192
-1.26939e-09
0.00192
-1.26907e-09
0.00192
-1.26875e-09
0.00192
-1.26842e-09
0.00192
-1.2681e-09
0.00192
-1.26778e-09
0.00192
-1.26745e-09
0.00192
-1.26713e-09
0.00192
-1.26681e-09
0.00192
-1.26649e-09
0.00192
-1.26616e-09
0.00192
-1.26584e-09
0.00192
-1.26552e-09
0.00192
-1.26519e-09
0.00192
-1.26487e-09
0.00192
-1.26454e-09
0.00192
-1.26422e-09
0.00192
-1.2639e-09
0.00192
-1.26357e-09
0.00192
-1.26325e-09
0.00192
-1.26292e-09
0.00192
-1.2626e-09
0.00192
-1.26227e-09
0.00192
-1.26194e-09
0.00192
-1.26161e-09
0.00192
-1.26128e-09
0.00192
-1.26094e-09
0.00192
-1.2606e-09
0.00192
-1.26025e-09
0.00192
-1.25989e-09
0.00192
-1.25954e-09
0.00192
-1.25914e-09
0.00192
-1.2588e-09
0.00192
-1.25827e-09
0.00192
-1.25799e-09
0.00192
-1.25766e-09
0.00192
0.00192
-1.67156e-09
0.00192
-1.67135e-09
0.00192
-1.67107e-09
0.00192
-1.67077e-09
0.00192
-1.6705e-09
0.00192
-1.6702e-09
0.00192
-1.66987e-09
0.00192
-1.66953e-09
0.00192
-1.66919e-09
0.00192
-1.66883e-09
0.00192
-1.66846e-09
0.00192
-1.66809e-09
0.00192
-1.66772e-09
0.00192
-1.66733e-09
0.00192
-1.66695e-09
0.00192
-1.66656e-09
0.00192
-1.66617e-09
0.00192
-1.66579e-09
0.00192
-1.66539e-09
0.00192
-1.66501e-09
0.00192
-1.66462e-09
0.00192
-1.66422e-09
0.00192
-1.66384e-09
0.00192
-1.66345e-09
0.00192
-1.66305e-09
0.00192
-1.66267e-09
0.00192
-1.66228e-09
0.00192
-1.66188e-09
0.00192
-1.6615e-09
0.00192
-1.66111e-09
0.00192
-1.66071e-09
0.00192
-1.66033e-09
0.00192
-1.65994e-09
0.00192
-1.65955e-09
0.00192
-1.65916e-09
0.00192
-1.65877e-09
0.00192
-1.65838e-09
0.00192
-1.65799e-09
0.00192
-1.6576e-09
0.00192
-1.65721e-09
0.00192
-1.65682e-09
0.00192
-1.65643e-09
0.00192
-1.65604e-09
0.00192
-1.65565e-09
0.00192
-1.65526e-09
0.00192
-1.65487e-09
0.00192
-1.65448e-09
0.00192
-1.65409e-09
0.00192
-1.6537e-09
0.00192
-1.6533e-09
0.00192
-1.65291e-09
0.00192
-1.65252e-09
0.00192
-1.65213e-09
0.00192
-1.65173e-09
0.00192
-1.65134e-09
0.00192
-1.65095e-09
0.00192
-1.65055e-09
0.00192
-1.65016e-09
0.00192
-1.64977e-09
0.00192
-1.64937e-09
0.00192
-1.64897e-09
0.00192
-1.64858e-09
0.00192
-1.64818e-09
0.00192
-1.64779e-09
0.00192
-1.64739e-09
0.00192
-1.64699e-09
0.00192
-1.64659e-09
0.00192
-1.64619e-09
0.00192
-1.64579e-09
0.00192
-1.64539e-09
0.00192
-1.64499e-09
0.00192
-1.64459e-09
0.00192
-1.64419e-09
0.00192
-1.64379e-09
0.00192
-1.64339e-09
0.00192
-1.64299e-09
0.00192
-1.64258e-09
0.00192
-1.64218e-09
0.00192
-1.64178e-09
0.00192
-1.64137e-09
0.00192
-1.64097e-09
0.00192
-1.64056e-09
0.00192
-1.64015e-09
0.00192
-1.63975e-09
0.00192
-1.63934e-09
0.00192
-1.63893e-09
0.00192
-1.63853e-09
0.00192
-1.63812e-09
0.00192
-1.63771e-09
0.00192
-1.6373e-09
0.00192
-1.63689e-09
0.00192
-1.63648e-09
0.00192
-1.63607e-09
0.00192
-1.63566e-09
0.00192
-1.63525e-09
0.00192
-1.63483e-09
0.00192
-1.63442e-09
0.00192
-1.63401e-09
0.00192
-1.6336e-09
0.00192
-1.63318e-09
0.00192
-1.63277e-09
0.00192
-1.63236e-09
0.00192
-1.63194e-09
0.00192
-1.63153e-09
0.00192
-1.63111e-09
0.00192
-1.6307e-09
0.00192
-1.63028e-09
0.00192
-1.62986e-09
0.00192
-1.62945e-09
0.00192
-1.62903e-09
0.00192
-1.62862e-09
0.00192
-1.6282e-09
0.00192
-1.62778e-09
0.00192
-1.62737e-09
0.00192
-1.62695e-09
0.00192
-1.62653e-09
0.00192
-1.62612e-09
0.00192
-1.6257e-09
0.00192
-1.62528e-09
0.00192
-1.62487e-09
0.00192
-1.62445e-09
0.00192
-1.62403e-09
0.00192
-1.62362e-09
0.00192
-1.6232e-09
0.00192
-1.62279e-09
0.00192
-1.62237e-09
0.00192
-1.62195e-09
0.00192
-1.62154e-09
0.00192
-1.62112e-09
0.00192
-1.6207e-09
0.00192
-1.62028e-09
0.00192
-1.61987e-09
0.00192
-1.61945e-09
0.00192
-1.61903e-09
0.00192
-1.61861e-09
0.00192
-1.61819e-09
0.00192
-1.61777e-09
0.00192
-1.61735e-09
0.00192
-1.61692e-09
0.00192
-1.6165e-09
0.00192
-1.61606e-09
0.00192
-1.61563e-09
0.00192
-1.61518e-09
0.00192
-1.61473e-09
0.00192
-1.61428e-09
0.00192
-1.61379e-09
0.00192
-1.61335e-09
0.00192
-1.61276e-09
0.00192
-1.61232e-09
0.00192
-1.61194e-09
0.00192
-1.61109e-09
0.00192
0.00192
-2.03903e-09
0.00192
-2.03874e-09
0.00192
-2.0384e-09
0.00192
-2.03803e-09
0.00192
-2.03768e-09
0.00192
-2.0373e-09
0.00192
-2.0369e-09
0.00192
-2.03649e-09
0.00192
-2.03607e-09
0.00192
-2.03563e-09
0.00192
-2.03519e-09
0.00192
-2.03474e-09
0.00192
-2.03428e-09
0.00192
-2.03382e-09
0.00192
-2.03336e-09
0.00192
-2.03288e-09
0.00192
-2.03241e-09
0.00192
-2.03195e-09
0.00192
-2.03147e-09
0.00192
-2.031e-09
0.00192
-2.03052e-09
0.00192
-2.03004e-09
0.00192
-2.02957e-09
0.00192
-2.0291e-09
0.00192
-2.02861e-09
0.00192
-2.02815e-09
0.00192
-2.02767e-09
0.00192
-2.02719e-09
0.00192
-2.02672e-09
0.00192
-2.02624e-09
0.00192
-2.02576e-09
0.00192
-2.02529e-09
0.00192
-2.02481e-09
0.00192
-2.02434e-09
0.00192
-2.02386e-09
0.00192
-2.02339e-09
0.00192
-2.02291e-09
0.00192
-2.02243e-09
0.00192
-2.02196e-09
0.00192
-2.02148e-09
0.00192
-2.021e-09
0.00192
-2.02053e-09
0.00192
-2.02005e-09
0.00192
-2.01958e-09
0.00192
-2.0191e-09
0.00192
-2.01862e-09
0.00192
-2.01814e-09
0.00192
-2.01767e-09
0.00192
-2.01719e-09
0.00192
-2.01671e-09
0.00192
-2.01623e-09
0.00192
-2.01575e-09
0.00192
-2.01527e-09
0.00192
-2.01479e-09
0.00192
-2.01431e-09
0.00192
-2.01383e-09
0.00192
-2.01335e-09
0.00192
-2.01287e-09
0.00192
-2.01239e-09
0.00192
-2.0119e-09
0.00192
-2.01142e-09
0.00192
-2.01094e-09
0.00192
-2.01045e-09
0.00192
-2.00997e-09
0.00192
-2.00948e-09
0.00192
-2.00899e-09
0.00192
-2.00851e-09
0.00192
-2.00802e-09
0.00192
-2.00753e-09
0.00192
-2.00704e-09
0.00192
-2.00655e-09
0.00192
-2.00607e-09
0.00192
-2.00558e-09
0.00192
-2.00508e-09
0.00192
-2.00459e-09
0.00192
-2.0041e-09
0.00192
-2.00361e-09
0.00192
-2.00312e-09
0.00192
-2.00262e-09
0.00192
-2.00213e-09
0.00192
-2.00163e-09
0.00192
-2.00114e-09
0.00192
-2.00064e-09
0.00192
-2.00014e-09
0.00192
-1.99965e-09
0.00192
-1.99915e-09
0.00192
-1.99865e-09
0.00192
-1.99815e-09
0.00192
-1.99765e-09
0.00192
-1.99715e-09
0.00192
-1.99665e-09
0.00192
-1.99615e-09
0.00192
-1.99565e-09
0.00192
-1.99514e-09
0.00192
-1.99464e-09
0.00192
-1.99414e-09
0.00192
-1.99363e-09
0.00192
-1.99313e-09
0.00192
-1.99262e-09
0.00192
-1.99212e-09
0.00192
-1.99161e-09
0.00192
-1.99111e-09
0.00192
-1.9906e-09
0.00192
-1.99009e-09
0.00192
-1.98959e-09
0.00192
-1.98908e-09
0.00192
-1.98857e-09
0.00192
-1.98806e-09
0.00192
-1.98755e-09
0.00192
-1.98704e-09
0.00192
-1.98653e-09
0.00192
-1.98603e-09
0.00192
-1.98552e-09
0.00192
-1.98501e-09
0.00192
-1.9845e-09
0.00192
-1.98399e-09
0.00192
-1.98348e-09
0.00192
-1.98297e-09
0.00192
-1.98246e-09
0.00192
-1.98195e-09
0.00192
-1.98144e-09
0.00192
-1.98093e-09
0.00192
-1.98042e-09
0.00192
-1.97991e-09
0.00192
-1.9794e-09
0.00192
-1.97889e-09
0.00192
-1.97838e-09
0.00192
-1.97787e-09
0.00192
-1.97736e-09
0.00192
-1.97685e-09
0.00192
-1.97634e-09
0.00192
-1.97583e-09
0.00192
-1.97531e-09
0.00192
-1.9748e-09
0.00192
-1.97429e-09
0.00192
-1.97378e-09
0.00192
-1.97326e-09
0.00192
-1.97274e-09
0.00192
-1.97222e-09
0.00192
-1.9717e-09
0.00192
-1.97117e-09
0.00192
-1.97064e-09
0.00192
-1.97011e-09
0.00192
-1.96956e-09
0.00192
-1.96901e-09
0.00192
-1.96843e-09
0.00192
-1.96788e-09
0.00192
-1.96723e-09
0.00192
-1.96665e-09
0.00192
-1.96617e-09
0.00192
-1.96528e-09
0.00192
-1.96431e-09
0.00192
0.00192
-2.4065e-09
0.00192
-2.40612e-09
0.00192
-2.40572e-09
0.00192
-2.40527e-09
0.00192
-2.40484e-09
0.00192
-2.4044e-09
0.00192
-2.40393e-09
0.00192
-2.40344e-09
0.00192
-2.40294e-09
0.00192
-2.40242e-09
0.00192
-2.40191e-09
0.00192
-2.40137e-09
0.00192
-2.40084e-09
0.00192
-2.40029e-09
0.00192
-2.39975e-09
0.00192
-2.39919e-09
0.00192
-2.39864e-09
0.00192
-2.39809e-09
0.00192
-2.39753e-09
0.00192
-2.39697e-09
0.00192
-2.39642e-09
0.00192
-2.39585e-09
0.00192
-2.39529e-09
0.00192
-2.39474e-09
0.00192
-2.39416e-09
0.00192
-2.39361e-09
0.00192
-2.39305e-09
0.00192
-2.39248e-09
0.00192
-2.39193e-09
0.00192
-2.39136e-09
0.00192
-2.3908e-09
0.00192
-2.39024e-09
0.00192
-2.38968e-09
0.00192
-2.38912e-09
0.00192
-2.38855e-09
0.00192
-2.38799e-09
0.00192
-2.38743e-09
0.00192
-2.38687e-09
0.00192
-2.3863e-09
0.00192
-2.38574e-09
0.00192
-2.38518e-09
0.00192
-2.38462e-09
0.00192
-2.38406e-09
0.00192
-2.38349e-09
0.00192
-2.38292e-09
0.00192
-2.38236e-09
0.00192
-2.3818e-09
0.00192
-2.38123e-09
0.00192
-2.38067e-09
0.00192
-2.3801e-09
0.00192
-2.37954e-09
0.00192
-2.37897e-09
0.00192
-2.37841e-09
0.00192
-2.37784e-09
0.00192
-2.37727e-09
0.00192
-2.3767e-09
0.00192
-2.37614e-09
0.00192
-2.37557e-09
0.00192
-2.375e-09
0.00192
-2.37442e-09
0.00192
-2.37385e-09
0.00192
-2.37328e-09
0.00192
-2.37271e-09
0.00192
-2.37214e-09
0.00192
-2.37156e-09
0.00192
-2.37099e-09
0.00192
-2.37041e-09
0.00192
-2.36984e-09
0.00192
-2.36926e-09
0.00192
-2.36868e-09
0.00192
-2.3681e-09
0.00192
-2.36753e-09
0.00192
-2.36695e-09
0.00192
-2.36637e-09
0.00192
-2.36579e-09
0.00192
-2.3652e-09
0.00192
-2.36462e-09
0.00192
-2.36404e-09
0.00192
-2.36346e-09
0.00192
-2.36287e-09
0.00192
-2.36229e-09
0.00192
-2.3617e-09
0.00192
-2.36111e-09
0.00192
-2.36053e-09
0.00192
-2.35994e-09
0.00192
-2.35935e-09
0.00192
-2.35876e-09
0.00192
-2.35817e-09
0.00192
-2.35758e-09
0.00192
-2.35699e-09
0.00192
-2.3564e-09
0.00192
-2.3558e-09
0.00192
-2.35521e-09
0.00192
-2.35462e-09
0.00192
-2.35402e-09
0.00192
-2.35343e-09
0.00192
-2.35283e-09
0.00192
-2.35223e-09
0.00192
-2.35164e-09
0.00192
-2.35104e-09
0.00192
-2.35044e-09
0.00192
-2.34984e-09
0.00192
-2.34924e-09
0.00192
-2.34865e-09
0.00192
-2.34805e-09
0.00192
-2.34744e-09
0.00192
-2.34684e-09
0.00192
-2.34624e-09
0.00192
-2.34564e-09
0.00192
-2.34504e-09
0.00192
-2.34444e-09
0.00192
-2.34384e-09
0.00192
-2.34323e-09
0.00192
-2.34263e-09
0.00192
-2.34203e-09
0.00192
-2.34143e-09
0.00192
-2.34082e-09
0.00192
-2.34022e-09
0.00192
-2.33961e-09
0.00192
-2.33901e-09
0.00192
-2.33841e-09
0.00192
-2.33781e-09
0.00192
-2.33721e-09
0.00192
-2.3366e-09
0.00192
-2.336e-09
0.00192
-2.3354e-09
0.00192
-2.33479e-09
0.00192
-2.33419e-09
0.00192
-2.33358e-09
0.00192
-2.33298e-09
0.00192
-2.33238e-09
0.00192
-2.33177e-09
0.00192
-2.33116e-09
0.00192
-2.33056e-09
0.00192
-2.32995e-09
0.00192
-2.32934e-09
0.00192
-2.32873e-09
0.00192
-2.32812e-09
0.00192
-2.32751e-09
0.00192
-2.32689e-09
0.00192
-2.32627e-09
0.00192
-2.32565e-09
0.00192
-2.32501e-09
0.00192
-2.32438e-09
0.00192
-2.32373e-09
0.00192
-2.32306e-09
0.00192
-2.3224e-09
0.00192
-2.32168e-09
0.00192
-2.32097e-09
0.00192
-2.32038e-09
0.00192
-2.31943e-09
0.00192
-2.31838e-09
0.00192
0.00192
-2.77395e-09
0.00192
-2.77349e-09
0.00192
-2.77302e-09
0.00192
-2.77251e-09
0.00192
-2.772e-09
0.00192
-2.77148e-09
0.00192
-2.77093e-09
0.00192
-2.77037e-09
0.00192
-2.76979e-09
0.00192
-2.7692e-09
0.00192
-2.76861e-09
0.00192
-2.76799e-09
0.00192
-2.76738e-09
0.00192
-2.76675e-09
0.00192
-2.76613e-09
0.00192
-2.76549e-09
0.00192
-2.76485e-09
0.00192
-2.76422e-09
0.00192
-2.76358e-09
0.00192
-2.76293e-09
0.00192
-2.76229e-09
0.00192
-2.76164e-09
0.00192
-2.761e-09
0.00192
-2.76036e-09
0.00192
-2.7597e-09
0.00192
-2.75906e-09
0.00192
-2.75842e-09
0.00192
-2.75776e-09
0.00192
-2.75712e-09
0.00192
-2.75647e-09
0.00192
-2.75582e-09
0.00192
-2.75518e-09
0.00192
-2.75453e-09
0.00192
-2.75388e-09
0.00192
-2.75323e-09
0.00192
-2.75258e-09
0.00192
-2.75194e-09
0.00192
-2.75129e-09
0.00192
-2.75064e-09
0.00192
-2.74999e-09
0.00192
-2.74934e-09
0.00192
-2.74869e-09
0.00192
-2.74804e-09
0.00192
-2.74739e-09
0.00192
-2.74674e-09
0.00192
-2.74609e-09
0.00192
-2.74544e-09
0.00192
-2.74479e-09
0.00192
-2.74414e-09
0.00192
-2.74349e-09
0.00192
-2.74283e-09
0.00192
-2.74218e-09
0.00192
-2.74153e-09
0.00192
-2.74087e-09
0.00192
-2.74021e-09
0.00192
-2.73956e-09
0.00192
-2.73891e-09
0.00192
-2.73825e-09
0.00192
-2.73759e-09
0.00192
-2.73693e-09
0.00192
-2.73627e-09
0.00192
-2.73561e-09
0.00192
-2.73495e-09
0.00192
-2.73429e-09
0.00192
-2.73363e-09
0.00192
-2.73297e-09
0.00192
-2.7323e-09
0.00192
-2.73164e-09
0.00192
-2.73097e-09
0.00192
-2.73031e-09
0.00192
-2.72964e-09
0.00192
-2.72897e-09
0.00192
-2.7283e-09
0.00192
-2.72763e-09
0.00192
-2.72696e-09
0.00192
-2.72629e-09
0.00192
-2.72562e-09
0.00192
-2.72495e-09
0.00192
-2.72427e-09
0.00192
-2.7236e-09
0.00192
-2.72292e-09
0.00192
-2.72225e-09
0.00192
-2.72157e-09
0.00192
-2.72089e-09
0.00192
-2.72022e-09
0.00192
-2.71954e-09
0.00192
-2.71886e-09
0.00192
-2.71818e-09
0.00192
-2.71749e-09
0.00192
-2.71681e-09
0.00192
-2.71613e-09
0.00192
-2.71544e-09
0.00192
-2.71476e-09
0.00192
-2.71407e-09
0.00192
-2.71339e-09
0.00192
-2.7127e-09
0.00192
-2.71201e-09
0.00192
-2.71132e-09
0.00192
-2.71064e-09
0.00192
-2.70995e-09
0.00192
-2.70926e-09
0.00192
-2.70857e-09
0.00192
-2.70788e-09
0.00192
-2.70718e-09
0.00192
-2.70649e-09
0.00192
-2.7058e-09
0.00192
-2.7051e-09
0.00192
-2.70441e-09
0.00192
-2.70372e-09
0.00192
-2.70302e-09
0.00192
-2.70233e-09
0.00192
-2.70163e-09
0.00192
-2.70094e-09
0.00192
-2.70024e-09
0.00192
-2.69955e-09
0.00192
-2.69885e-09
0.00192
-2.69815e-09
0.00192
-2.69746e-09
0.00192
-2.69676e-09
0.00192
-2.69606e-09
0.00192
-2.69537e-09
0.00192
-2.69467e-09
0.00192
-2.69398e-09
0.00192
-2.69328e-09
0.00192
-2.69258e-09
0.00192
-2.69189e-09
0.00192
-2.69119e-09
0.00192
-2.69049e-09
0.00192
-2.68979e-09
0.00192
-2.6891e-09
0.00192
-2.6884e-09
0.00192
-2.6877e-09
0.00192
-2.687e-09
0.00192
-2.6863e-09
0.00192
-2.6856e-09
0.00192
-2.6849e-09
0.00192
-2.68419e-09
0.00192
-2.68349e-09
0.00192
-2.68278e-09
0.00192
-2.68207e-09
0.00192
-2.68135e-09
0.00192
-2.68063e-09
0.00192
-2.67991e-09
0.00192
-2.67917e-09
0.00192
-2.67843e-09
0.00192
-2.67767e-09
0.00192
-2.6769e-09
0.00192
-2.67611e-09
0.00192
-2.67529e-09
0.00192
-2.67457e-09
0.00192
-2.67358e-09
0.00192
-2.67242e-09
0.00192
-2.67133e-09
0.00192
0.00192
-3.1414e-09
0.00192
-3.14085e-09
0.00192
-3.14031e-09
0.00192
-3.13973e-09
0.00192
-3.13914e-09
0.00192
-3.13855e-09
0.00192
-3.13793e-09
0.00192
-3.13729e-09
0.00192
-3.13664e-09
0.00192
-3.13597e-09
0.00192
-3.13529e-09
0.00192
-3.1346e-09
0.00192
-3.13391e-09
0.00192
-3.1332e-09
0.00192
-3.13249e-09
0.00192
-3.13178e-09
0.00192
-3.13105e-09
0.00192
-3.13034e-09
0.00192
-3.12961e-09
0.00192
-3.12888e-09
0.00192
-3.12816e-09
0.00192
-3.12742e-09
0.00192
-3.12669e-09
0.00192
-3.12597e-09
0.00192
-3.12523e-09
0.00192
-3.1245e-09
0.00192
-3.12377e-09
0.00192
-3.12302e-09
0.00192
-3.1223e-09
0.00192
-3.12157e-09
0.00192
-3.12083e-09
0.00192
-3.1201e-09
0.00192
-3.11936e-09
0.00192
-3.11863e-09
0.00192
-3.11789e-09
0.00192
-3.11716e-09
0.00192
-3.11643e-09
0.00192
-3.11569e-09
0.00192
-3.11495e-09
0.00192
-3.11422e-09
0.00192
-3.11349e-09
0.00192
-3.11275e-09
0.00192
-3.11202e-09
0.00192
-3.11128e-09
0.00192
-3.11054e-09
0.00192
-3.1098e-09
0.00192
-3.10907e-09
0.00192
-3.10833e-09
0.00192
-3.10759e-09
0.00192
-3.10685e-09
0.00192
-3.10611e-09
0.00192
-3.10537e-09
0.00192
-3.10463e-09
0.00192
-3.10389e-09
0.00192
-3.10315e-09
0.00192
-3.1024e-09
0.00192
-3.10166e-09
0.00192
-3.10092e-09
0.00192
-3.10017e-09
0.00192
-3.09942e-09
0.00192
-3.09868e-09
0.00192
-3.09793e-09
0.00192
-3.09718e-09
0.00192
-3.09643e-09
0.00192
-3.09568e-09
0.00192
-3.09493e-09
0.00192
-3.09418e-09
0.00192
-3.09342e-09
0.00192
-3.09267e-09
0.00192
-3.09191e-09
0.00192
-3.09116e-09
0.00192
-3.0904e-09
0.00192
-3.08964e-09
0.00192
-3.08889e-09
0.00192
-3.08813e-09
0.00192
-3.08737e-09
0.00192
-3.0866e-09
0.00192
-3.08584e-09
0.00192
-3.08508e-09
0.00192
-3.08431e-09
0.00192
-3.08355e-09
0.00192
-3.08278e-09
0.00192
-3.08202e-09
0.00192
-3.08125e-09
0.00192
-3.08048e-09
0.00192
-3.07971e-09
0.00192
-3.07894e-09
0.00192
-3.07817e-09
0.00192
-3.07739e-09
0.00192
-3.07662e-09
0.00192
-3.07584e-09
0.00192
-3.07507e-09
0.00192
-3.07429e-09
0.00192
-3.07352e-09
0.00192
-3.07274e-09
0.00192
-3.07196e-09
0.00192
-3.07118e-09
0.00192
-3.0704e-09
0.00192
-3.06962e-09
0.00192
-3.06884e-09
0.00192
-3.06806e-09
0.00192
-3.06727e-09
0.00192
-3.06649e-09
0.00192
-3.0657e-09
0.00192
-3.06492e-09
0.00192
-3.06413e-09
0.00192
-3.06335e-09
0.00192
-3.06256e-09
0.00192
-3.06177e-09
0.00192
-3.06099e-09
0.00192
-3.0602e-09
0.00192
-3.05941e-09
0.00192
-3.05862e-09
0.00192
-3.05783e-09
0.00192
-3.05705e-09
0.00192
-3.05626e-09
0.00192
-3.05547e-09
0.00192
-3.05468e-09
0.00192
-3.05389e-09
0.00192
-3.0531e-09
0.00192
-3.05231e-09
0.00192
-3.05152e-09
0.00192
-3.05073e-09
0.00192
-3.04994e-09
0.00192
-3.04915e-09
0.00192
-3.04836e-09
0.00192
-3.04757e-09
0.00192
-3.04678e-09
0.00192
-3.04599e-09
0.00192
-3.0452e-09
0.00192
-3.04441e-09
0.00192
-3.04361e-09
0.00192
-3.04282e-09
0.00192
-3.04203e-09
0.00192
-3.04123e-09
0.00192
-3.04043e-09
0.00192
-3.03963e-09
0.00192
-3.03883e-09
0.00192
-3.03803e-09
0.00192
-3.03723e-09
0.00192
-3.03642e-09
0.00192
-3.0356e-09
0.00192
-3.03478e-09
0.00192
-3.03395e-09
0.00192
-3.03311e-09
0.00192
-3.03226e-09
0.00192
-3.03139e-09
0.00192
-3.03051e-09
0.00192
-3.02959e-09
0.00192
-3.02874e-09
0.00192
-3.0277e-09
0.00192
-3.02644e-09
0.00192
-3.02524e-09
0.00192
-3.02418e-09
0.00192
0.00192
-3.50883e-09
0.00192
-3.5082e-09
0.00192
-3.50759e-09
0.00192
-3.50693e-09
0.00192
-3.50627e-09
0.00192
-3.5056e-09
0.00192
-3.50491e-09
0.00192
-3.50419e-09
0.00192
-3.50346e-09
0.00192
-3.50272e-09
0.00192
-3.50197e-09
0.00192
-3.50119e-09
0.00192
-3.50042e-09
0.00192
-3.49963e-09
0.00192
-3.49884e-09
0.00192
-3.49804e-09
0.00192
-3.49723e-09
0.00192
-3.49644e-09
0.00192
-3.49563e-09
0.00192
-3.49481e-09
0.00192
-3.494e-09
0.00192
-3.49318e-09
0.00192
-3.49237e-09
0.00192
-3.49156e-09
0.00192
-3.49073e-09
0.00192
-3.48992e-09
0.00192
-3.4891e-09
0.00192
-3.48827e-09
0.00192
-3.48746e-09
0.00192
-3.48664e-09