/*--------------------------------*- C++ -*----------------------------------*\
| =========                 |                                                 |
| \\      /  F ield         | OpenFOAM: The Open Source CFD Toolbox           |
|  \\    /   O peration     | Version:  2512                                  |
|   \\  /    A nd           | Website:  www.openfoam.com                      |
|    \\/     M anipulation  |                                                 |
\*---------------------------------------------------------------------------*/
FoamFile
{
    version     2.0;
    format      ascii;
    arch        "LSB;label=32;scalar=64";
    class       volVectorField;
    location    "0.1";
    object      U;
}
// * * * * * * * * * * * * * * * * * * * * * * * * * * * * * * * * * * * * * //

dimensions      [0 1 -1 0 0 0 0];

internalField   nonuniform List<vector> 
8333
(
(0.0643702 -1.22523e-06 3.66163e-18)
(0.0643703 -8.61631e-07 -5.84688e-18)
(0.0643741 -9.09182e-07 -1.36198e-18)
(0.064378 -1.22543e-06 -1.92037e-18)
(0.0643827 -1.23867e-06 -2.69612e-18)
(0.0643875 -1.40358e-06 3.94447e-18)
(0.0643917 -1.47749e-06 -1.36265e-18)
(0.0643958 -1.49041e-06 -7.77856e-18)
(0.0644 -1.51646e-06 7.17225e-18)
(0.0644042 -1.54789e-06 -9.91149e-18)
(0.0644083 -1.57501e-06 9.31629e-18)
(0.0644123 -1.59971e-06 1.93812e-17)
(0.0644164 -1.6238e-06 2.9609e-18)
(0.0644204 -1.64721e-06 1.70971e-17)
(0.0644243 -1.67036e-06 2.59239e-17)
(0.0644282 -1.69309e-06 -1.47848e-18)
(0.0644321 -1.71546e-06 1.71989e-17)
(0.0644359 -1.73755e-06 -8.5303e-18)
(0.0644397 -1.75939e-06 1.4261e-17)
(0.0644434 -1.78129e-06 1.40676e-17)
(0.0644471 -1.80277e-06 1.83419e-17)
(0.0644508 -1.82393e-06 5.10343e-18)
(0.0644544 -1.84488e-06 1.03352e-17)
(0.064458 -1.86562e-06 -3.31218e-18)
(0.0644616 -1.88613e-06 2.86835e-18)
(0.0644651 -1.90657e-06 1.6207e-17)
(0.0644686 -1.92695e-06 -3.13412e-18)
(0.064472 -1.9471e-06 8.18535e-18)
(0.0644754 -1.96695e-06 -9.30971e-18)
(0.0644787 -1.98637e-06 9.57422e-18)
(0.0644821 -2.0058e-06 1.61127e-17)
(0.0644853 -2.02532e-06 2.5978e-18)
(0.0644886 -2.04486e-06 5.52877e-18)
(0.0644918 -2.06448e-06 1.69042e-18)
(0.0644949 -2.08405e-06 2.34096e-18)
(0.064498 -2.10356e-06 -1.62122e-18)
(0.0645011 -2.12309e-06 4.35306e-18)
(0.0645041 -2.14241e-06 -4.14014e-18)
(0.0645071 -2.16164e-06 6.51915e-18)
(0.06451 -2.18092e-06 -4.79585e-18)
(0.0645129 -2.20028e-06 4.65545e-18)
(0.0645158 -2.21958e-06 1.36502e-17)
(0.0645186 -2.23882e-06 2.55461e-18)
(0.0645214 -2.25804e-06 -2.73012e-19)
(0.0645241 -2.27724e-06 3.76996e-19)
(0.0645268 -2.29642e-06 -1.78683e-18)
(0.0645295 -2.31558e-06 -1.25934e-18)
(0.0645321 -2.33474e-06 7.24892e-19)
(0.0645347 -2.3538e-06 -1.97535e-18)
(0.0645372 -2.37278e-06 4.25278e-18)
(0.0645397 -2.39168e-06 -2.14473e-18)
(0.0645422 -2.41068e-06 2.19326e-18)
(0.0645446 -2.42971e-06 2.98789e-17)
(0.0645469 -2.44885e-06 6.55054e-18)
(0.0645493 -2.46812e-06 1.434e-17)
(0.0645515 -2.48724e-06 -1.425e-18)
(0.0645538 -2.50628e-06 4.90883e-18)
(0.064556 -2.52534e-06 1.33666e-17)
(0.0645581 -2.54443e-06 2.42071e-18)
(0.0645602 -2.56341e-06 1.11049e-19)
(0.0645623 -2.5823e-06 -7.69033e-19)
(0.0645643 -2.60114e-06 -2.46574e-19)
(0.0645663 -2.61999e-06 -3.59427e-18)
(0.0645683 -2.63888e-06 2.34976e-18)
(0.0645702 -2.65774e-06 -2.07998e-18)
(0.064572 -2.6765e-06 2.70952e-18)
(0.0645738 -2.69519e-06 -5.26793e-18)
(0.0645756 -2.71393e-06 7.12145e-19)
(0.0645773 -2.73278e-06 2.58516e-17)
(0.064579 -2.75168e-06 1.02601e-17)
(0.0645807 -2.77061e-06 8.60123e-18)
(0.0645823 -2.78951e-06 4.00543e-18)
(0.0645838 -2.80827e-06 1.18846e-18)
(0.0645853 -2.82701e-06 1.78819e-18)
(0.0645868 -2.84576e-06 -1.45787e-18)
(0.0645882 -2.86437e-06 2.45924e-18)
(0.0645896 -2.88291e-06 -1.64148e-18)
(0.0645909 -2.90119e-06 -2.00652e-20)
(0.0645922 -2.9194e-06 2.63485e-18)
(0.0645935 -2.93768e-06 1.39338e-18)
(0.0645947 -2.95605e-06 4.18942e-18)
(0.0645959 -2.97438e-06 -1.30762e-17)
(0.064597 -2.99271e-06 9.71218e-18)
(0.0645981 -3.01105e-06 1.48629e-17)
(0.0645991 -3.02949e-06 7.12192e-18)
(0.0646001 -3.04786e-06 1.16255e-17)
(0.064601 -3.06618e-06 7.93075e-19)
(0.0646019 -3.08446e-06 -1.50661e-18)
(0.0646028 -3.10268e-06 4.43115e-18)
(0.0646036 -3.12082e-06 -6.08677e-18)
(0.0646044 -3.13862e-06 -6.02643e-18)
(0.0646051 -3.15623e-06 -1.14934e-18)
(0.0646058 -3.17365e-06 -2.04863e-18)
(0.0646064 -3.19101e-06 -2.76287e-18)
(0.064607 -3.20842e-06 4.51947e-18)
(0.0646076 -3.22588e-06 -1.24464e-18)
(0.0646081 -3.24337e-06 -7.94092e-18)
(0.0646085 -3.26087e-06 8.1564e-18)
(0.0646089 -3.27841e-06 -1.29358e-17)
(0.0646093 -3.29594e-06 1.51089e-17)
(0.0646096 -3.31341e-06 1.02188e-17)
(0.0646099 -3.33084e-06 1.59313e-17)
(0.0646101 -3.34815e-06 9.46716e-19)
(0.0646103 -3.36528e-06 1.19926e-18)
(0.0646105 -3.38217e-06 -2.289e-18)
(0.0646106 -3.39889e-06 1.38643e-18)
(0.0646106 -3.41539e-06 -1.9213e-18)
(0.0646106 -3.43173e-06 -9.61016e-19)
(0.0646106 -3.44797e-06 5.3135e-18)
(0.0646105 -3.46422e-06 1.18631e-17)
(0.0646104 -3.48051e-06 -5.54124e-20)
(0.0646102 -3.49687e-06 2.65874e-18)
(0.06461 -3.51326e-06 -3.46412e-19)
(0.0646098 -3.52965e-06 2.83743e-18)
(0.0646094 -3.54607e-06 -1.19727e-18)
(0.0646091 -3.56247e-06 -7.30465e-19)
(0.0646087 -3.57886e-06 5.64101e-18)
(0.0646083 -3.59529e-06 1.17414e-17)
(0.0646078 -3.61176e-06 5.85762e-19)
(0.0646072 -3.62833e-06 1.32049e-18)
(0.0646067 -3.64499e-06 2.12201e-18)
(0.064606 -3.66166e-06 -1.3931e-18)
(0.0646054 -3.6784e-06 5.75708e-18)
(0.0646046 -3.69527e-06 4.30255e-18)
(0.0646039 -3.71226e-06 7.57255e-18)
(0.0646031 -3.7295e-06 1.44949e-17)
(0.0646022 -3.74711e-06 -2.2773e-19)
(0.0646013 -3.76509e-06 4.14342e-18)
(0.0646004 -3.78349e-06 -3.68012e-19)
(0.0645994 -3.8023e-06 4.39486e-19)
(0.0645983 -3.8215e-06 4.16209e-18)
(0.0645972 -3.84108e-06 1.29935e-17)
(0.0645961 -3.86108e-06 2.37982e-18)
(0.0645949 -3.88154e-06 2.58371e-17)
(0.0645937 -3.90247e-06 1.94359e-17)
(0.0645924 -3.92396e-06 1.72206e-17)
(0.0645911 -3.94607e-06 9.31501e-18)
(0.0645897 -3.96877e-06 6.52846e-18)
(0.0645883 -3.99199e-06 1.18955e-18)
(0.0645869 -4.01565e-06 1.4294e-18)
(0.0645853 -4.03987e-06 -6.19071e-19)
(0.0645838 -4.06408e-06 2.12309e-18)
(0.0645822 -4.08946e-06 -1.05765e-19)
(0.0645806 -4.11191e-06 1.29944e-18)
(0.0645788 -4.14081e-06 -5.3532e-19)
(0.0645773 -4.15248e-06 2.19071e-18)
(0.0645752 -4.18638e-06 -8.16904e-20)
(0.0645737 -4.14967e-06 1.29669e-18)
(0.0645718 -4.0948e-06 -5.44704e-19)
(0.0645691 -3.87166e-06 2.18229e-18)
(0.0643701 -6.85392e-09 -1.6091e-18)
(0.0643743 3.95008e-07 -1.4126e-18)
(0.0643782 3.29443e-07 -1.11834e-19)
(0.0643828 5.57644e-07 -1.75797e-18)
(0.0643875 5.00919e-07 6.87777e-19)
(0.0643917 4.2533e-07 3.37623e-18)
(0.0643958 4.18613e-07 -3.93215e-18)
(0.0644 4.09826e-07 4.80817e-18)
(0.0644042 3.89976e-07 -4.71299e-18)
(0.0644083 3.70785e-07 5.69232e-19)
(0.0644123 3.52934e-07 3.70967e-18)
(0.0644164 3.34686e-07 5.6757e-18)
(0.0644203 3.16701e-07 -1.48659e-18)
(0.0644243 2.97696e-07 1.27869e-17)
(0.0644282 2.78242e-07 1.13757e-18)
(0.0644321 2.58867e-07 1.37144e-17)
(0.0644359 2.39496e-07 -1.23822e-18)
(0.0644397 2.20033e-07 4.27699e-18)
(0.0644434 1.9999e-07 2.69756e-18)
(0.0644471 1.80274e-07 1.31423e-17)
(0.0644508 1.60665e-07 3.44858e-18)
(0.0644544 1.41034e-07 9.77016e-18)
(0.064458 1.21536e-07 1.16731e-18)
(0.0644616 1.02185e-07 2.28817e-18)
(0.0644651 8.2625e-08 5.19679e-18)
(0.0644686 6.31652e-08 5.43757e-18)
(0.064472 4.39456e-08 5.02883e-18)
(0.0644754 2.47189e-08 3.22384e-18)
(0.0644787 5.77899e-09 -2.97991e-18)
(0.064482 -1.33178e-08 8.70216e-18)
(0.0644853 -3.25705e-08 4.01798e-18)
(0.0644885 -5.18389e-08 8.65674e-18)
(0.0644917 -7.11607e-08 1.04993e-18)
(0.0644949 -9.0582e-08 5.31722e-18)
(0.064498 -1.09952e-07 -1.18559e-18)
(0.0645011 -1.29295e-07 6.68144e-18)
(0.0645041 -1.48881e-07 -2.11152e-18)
(0.0645071 -1.68471e-07 6.92348e-18)
(0.06451 -1.88098e-07 -2.82641e-19)
(0.0645129 -2.07932e-07 3.01299e-18)
(0.0645158 -2.27789e-07 3.54173e-18)
(0.0645186 -2.4763e-07 8.57035e-18)
(0.0645214 -2.67426e-07 1.25646e-18)
(0.0645241 -2.8725e-07 5.05457e-18)
(0.0645268 -3.07119e-07 -1.02752e-18)
(0.0645295 -3.27016e-07 3.33589e-18)
(0.0645321 -3.46947e-07 4.77247e-19)
(0.0645347 -3.66964e-07 3.42054e-18)
(0.0645372 -3.87032e-07 1.40498e-18)
(0.0645397 -4.07159e-07 5.96647e-18)
(0.0645422 -4.27293e-07 -4.80849e-18)
(0.0645446 -4.47445e-07 1.18434e-17)
(0.0645469 -4.67554e-07 5.27219e-18)
(0.0645492 -4.87641e-07 1.2828e-17)
(0.0645515 -5.0785e-07 2.51507e-18)
(0.0645538 -5.28158e-07 3.58536e-18)
(0.064556 -5.48476e-07 3.46502e-18)
(0.0645581 -5.68828e-07 8.48338e-18)
(0.0645602 -5.89299e-07 1.28126e-18)
(0.0645623 -6.0982e-07 4.46185e-18)
(0.0645643 -6.304e-07 -5.48133e-19)
(0.0645663 -6.51034e-07 2.56366e-18)
(0.0645683 -6.71696e-07 6.43445e-19)
(0.0645702 -6.92404e-07 3.6584e-18)
(0.064572 -7.13206e-07 1.31842e-18)
(0.0645738 -7.34079e-07 4.94807e-18)
(0.0645756 -7.54944e-07 -5.10517e-18)
(0.0645773 -7.75764e-07 9.96556e-18)
(0.064579 -7.96567e-07 7.6079e-18)
(0.0645807 -8.17427e-07 9.69785e-18)
(0.0645822 -8.38365e-07 4.73289e-18)
(0.0645838 -8.59396e-07 3.12168e-18)
(0.0645853 -8.80495e-07 3.6922e-18)
(0.0645868 -9.01635e-07 1.60261e-18)
(0.0645882 -9.22872e-07 1.75757e-18)
(0.0645896 -9.44192e-07 -4.19644e-19)
(0.0645909 -9.65686e-07 -1.34831e-19)
(0.0645922 -9.87265e-07 9.37397e-19)
(0.0645935 -1.00882e-06 -5.57849e-19)
(0.0645947 -1.03034e-06 5.41043e-18)
(0.0645959 -1.05193e-06 -2.83982e-18)
(0.064597 -1.07351e-06 -2.21683e-18)
(0.0645981 -1.09518e-06 4.66203e-18)
(0.0645991 -1.11683e-06 3.88602e-18)
(0.0646001 -1.13852e-06 5.58985e-18)
(0.064601 -1.16026e-06 4.72932e-18)
(0.0646019 -1.18207e-06 7.47815e-20)
(0.0646028 -1.20396e-06 1.63929e-18)
(0.0646036 -1.22591e-06 1.88327e-20)
(0.0646044 -1.24811e-06 -1.74872e-18)
(0.0646051 -1.27048e-06 -1.30956e-18)
(0.0646058 -1.29301e-06 -1.27209e-19)
(0.0646064 -1.31563e-06 -1.86844e-18)
(0.064607 -1.33825e-06 1.18853e-18)
(0.0646075 -1.36086e-06 3.07946e-18)
(0.0646081 -1.38349e-06 -3.46599e-18)
(0.0646085 -1.4062e-06 4.09659e-18)
(0.0646089 -1.42888e-06 -4.36683e-18)
(0.0646093 -1.45162e-06 9.62133e-19)
(0.0646096 -1.47445e-06 2.44811e-18)
(0.0646099 -1.49735e-06 7.67207e-18)
(0.0646101 -1.5204e-06 5.13003e-18)
(0.0646103 -1.54362e-06 2.38491e-18)
(0.0646105 -1.56711e-06 -5.47638e-20)
(0.0646106 -1.59081e-06 6.80665e-21)
(0.0646106 -1.61474e-06 1.59715e-19)
(0.0646106 -1.63888e-06 2.94946e-19)
(0.0646106 -1.6632e-06 -5.86643e-19)
(0.0646105 -1.6876e-06 4.24658e-18)
(0.0646104 -1.71201e-06 3.48801e-18)
(0.0646102 -1.73646e-06 2.44981e-18)
(0.06461 -1.76101e-06 5.94689e-19)
(0.0646097 -1.78566e-06 6.34337e-19)
(0.0646094 -1.81042e-06 4.8876e-19)
(0.0646091 -1.83531e-06 4.12439e-19)
(0.0646087 -1.86037e-06 -3.83143e-19)
(0.0646082 -1.88557e-06 4.05416e-18)
(0.0646078 -1.9109e-06 4.04247e-18)
(0.0646072 -1.93633e-06 1.30691e-18)
(0.0646066 -1.96191e-06 2.20208e-18)
(0.064606 -1.98767e-06 -8.43562e-19)
(0.0646053 -2.01359e-06 7.71208e-19)
(0.0646046 -2.03968e-06 2.15578e-18)
(0.0646039 -2.06595e-06 1.31035e-18)
(0.064603 -2.0923e-06 6.05847e-18)
(0.0646022 -2.11871e-06 4.33215e-18)
(0.0646013 -2.14517e-06 2.59318e-18)
(0.0646003 -2.17169e-06 1.44834e-18)
(0.0645993 -2.19833e-06 8.66211e-20)
(0.0645983 -2.22513e-06 -1.23479e-18)
(0.0645972 -2.25214e-06 6.06239e-18)
(0.0645961 -2.27938e-06 -2.11279e-19)
(0.0645949 -2.30685e-06 7.06281e-18)
(0.0645937 -2.33461e-06 5.64611e-18)
(0.0645924 -2.36259e-06 1.31965e-17)
(0.0645911 -2.39085e-06 3.50378e-18)
(0.0645897 -2.41933e-06 5.59422e-18)
(0.0645883 -2.4484e-06 -1.89858e-18)
(0.0645869 -2.4771e-06 3.1864e-18)
(0.0645853 -2.50813e-06 -1.31294e-18)
(0.0645838 -2.53395e-06 5.34058e-18)
(0.0645822 -2.57443e-06 -2.41327e-19)
(0.0645806 -2.57825e-06 4.88955e-18)
(0.0645788 -2.66963e-06 -3.17325e-19)
(0.0645773 -2.55739e-06 5.82953e-18)
(0.0645752 -2.8855e-06 -4.17323e-20)
(0.0645736 -2.34207e-06 4.96946e-18)
(0.0645718 -3.52431e-06 -2.9614e-19)
(0.0645689 -1.86201e-06 5.79653e-18)
(0.0645685 -3.66633e-06 2.49155e-20)
(0.0643703 -2.5233e-07 2.27116e-18)
(0.0643742 -2.10836e-07 1.90859e-18)
(0.0643781 -4.46397e-07 2.54415e-18)
(0.0643827 -4.43861e-07 1.92724e-18)
(0.0643874 -4.6641e-07 2.24143e-18)
(0.0643917 -5.15294e-07 4.45074e-18)
(0.0643958 -5.3598e-07 3.65291e-19)
(0.0644 -5.49414e-07 6.53253e-18)
(0.0644042 -5.68224e-07 -3.70681e-18)
(0.0644083 -5.88757e-07 1.10533e-17)
(0.0644123 -6.10801e-07 -1.11791e-17)
(0.0644164 -6.33247e-07 7.59418e-18)
(0.0644203 -6.54717e-07 -7.10203e-18)
(0.0644243 -6.76056e-07 1.89754e-17)
(0.0644282 -6.9648e-07 5.82988e-19)
(0.0644321 -7.17523e-07 1.62316e-17)
(0.0644359 -7.37777e-07 -2.038e-18)
(0.0644397 -7.56831e-07 1.77335e-17)
(0.0644434 -7.76153e-07 4.73812e-19)
(0.0644471 -7.94411e-07 1.57327e-17)
(0.0644508 -8.12185e-07 -1.31208e-18)
(0.0644544 -8.29715e-07 2.03778e-17)
(0.064458 -8.46898e-07 1.53472e-18)
(0.0644616 -8.6356e-07 1.19897e-17)
(0.0644651 -8.8032e-07 -1.45316e-18)
(0.0644686 -8.96939e-07 1.86463e-17)
(0.064472 -9.13149e-07 2.34958e-18)
(0.0644754 -9.29174e-07 1.34521e-17)
(0.0644787 -9.44523e-07 -4.2239e-18)
(0.064482 -9.60133e-07 1.91121e-17)
(0.0644853 -9.75931e-07 1.77839e-18)
(0.0644885 -9.91665e-07 1.47749e-17)
(0.0644917 -1.0075e-06 -1.87638e-18)
(0.0644949 -1.02339e-06 1.87945e-17)
(0.064498 -1.03912e-06 -8.53721e-20)
(0.0645011 -1.05483e-06 1.39641e-17)
(0.0645041 -1.07059e-06 -3.29002e-18)
(0.0645071 -1.08617e-06 1.92042e-17)
(0.06451 -1.10177e-06 8.5674e-19)
(0.0645129 -1.11765e-06 1.23127e-17)
(0.0645158 -1.13347e-06 -1.87361e-18)
(0.0645186 -1.1492e-06 1.9784e-17)
(0.0645214 -1.16489e-06 1.09741e-18)
(0.0645241 -1.18057e-06 1.33927e-17)
(0.0645268 -1.19626e-06 -2.78689e-18)
(0.0645295 -1.21199e-06 1.80019e-17)
(0.0645321 -1.2277e-06 5.99284e-19)
(0.0645347 -1.24344e-06 1.28045e-17)
(0.0645372 -1.25918e-06 -2.28585e-18)
(0.0645397 -1.27489e-06 1.95943e-17)
(0.0645421 -1.29069e-06 -1.70275e-18)
(0.0645446 -1.30654e-06 1.4178e-17)
(0.0645469 -1.32243e-06 -8.76422e-19)
(0.0645492 -1.3384e-06 2.1721e-17)
(0.0645515 -1.35434e-06 2.21737e-18)
(0.0645538 -1.37026e-06 1.26967e-17)
(0.064556 -1.3862e-06 -1.92014e-18)
(0.0645581 -1.40218e-06 1.98957e-17)
(0.0645602 -1.41818e-06 9.29352e-19)
(0.0645623 -1.4342e-06 1.30524e-17)
(0.0645643 -1.45023e-06 -2.76807e-18)
(0.0645663 -1.46629e-06 1.78225e-17)
(0.0645683 -1.48239e-06 4.71476e-19)
(0.0645701 -1.4985e-06 1.26943e-17)
(0.064572 -1.51463e-06 -2.24776e-18)
(0.0645738 -1.53077e-06 1.94833e-17)
(0.0645756 -1.54699e-06 -1.49253e-18)
(0.0645773 -1.56331e-06 1.35178e-17)
(0.064579 -1.57968e-06 6.0355e-19)
(0.0645806 -1.59607e-06 1.89696e-17)
(0.0645822 -1.61245e-06 5.33425e-18)
(0.0645838 -1.62882e-06 7.21488e-18)
(0.0645853 -1.64523e-06 7.61859e-18)
(0.0645868 -1.66168e-06 4.85807e-18)
(0.0645882 -1.67815e-06 2.06339e-18)
(0.0645896 -1.69463e-06 2.5002e-20)
(0.0645909 -1.71109e-06 3.99078e-19)
(0.0645922 -1.72757e-06 1.66343e-18)
(0.0645935 -1.74413e-06 1.3466e-18)
(0.0645947 -1.76075e-06 4.32035e-18)
(0.0645959 -1.77742e-06 2.33305e-18)
(0.064597 -1.79414e-06 1.01626e-18)
(0.0645981 -1.81086e-06 3.4047e-18)
(0.0645991 -1.82765e-06 3.73588e-18)
(0.0646001 -1.84448e-06 4.31166e-18)
(0.064601 -1.86132e-06 4.75937e-18)
(0.0646019 -1.87819e-06 2.87059e-18)
(0.0646028 -1.89513e-06 2.89876e-18)
(0.0646036 -1.91209e-06 2.86645e-18)
(0.0646044 -1.929e-06 2.26463e-18)
(0.0646051 -1.94587e-06 1.98535e-18)
(0.0646058 -1.96272e-06 2.59844e-18)
(0.0646064 -1.97961e-06 1.80488e-18)
(0.064607 -1.99655e-06 2.56973e-18)
(0.0646075 -2.01355e-06 4.04511e-18)
(0.064608 -2.03057e-06 1.46709e-18)
(0.0646085 -2.04762e-06 3.81428e-18)
(0.0646089 -2.06472e-06 1.52738e-18)
(0.0646093 -2.08184e-06 2.13987e-18)
(0.0646096 -2.09897e-06 2.69517e-18)
(0.0646099 -2.11614e-06 4.82174e-18)
(0.0646101 -2.13331e-06 4.86814e-18)
(0.0646103 -2.15045e-06 3.80258e-18)
(0.0646105 -2.16754e-06 2.82528e-18)
(0.0646106 -2.18458e-06 2.40974e-18)
(0.0646106 -2.20159e-06 2.6172e-18)
(0.0646106 -2.21859e-06 2.85014e-18)
(0.0646106 -2.23557e-06 1.93856e-18)
(0.0646105 -2.25262e-06 3.43379e-18)
(0.0646104 -2.26975e-06 4.029e-18)
(0.0646102 -2.28695e-06 3.62674e-18)
(0.06461 -2.30423e-06 2.88959e-18)
(0.0646097 -2.32158e-06 2.58736e-18)
(0.0646094 -2.33902e-06 2.68637e-18)
(0.0646091 -2.35651e-06 2.91131e-18)
(0.0646087 -2.37406e-06 2.02935e-18)
(0.0646082 -2.39169e-06 3.34689e-18)
(0.0646077 -2.40942e-06 4.29896e-18)
(0.0646072 -2.42729e-06 3.20433e-18)
(0.0646066 -2.44531e-06 3.48915e-18)
(0.064606 -2.46346e-06 2.32167e-18)
(0.0646053 -2.48176e-06 2.43131e-18)
(0.0646046 -2.50025e-06 3.23529e-18)
(0.0646039 -2.51891e-06 2.63714e-18)
(0.064603 -2.53781e-06 4.12658e-18)
(0.0646022 -2.55698e-06 4.55307e-18)
(0.0646013 -2.57647e-06 3.6343e-18)
(0.0646003 -2.59628e-06 3.30708e-18)
(0.0645993 -2.61645e-06 2.73041e-18)
(0.0645983 -2.63696e-06 1.53036e-18)
(0.0645972 -2.65786e-06 4.63154e-18)
(0.0645961 -2.67917e-06 1.73599e-18)
(0.0645949 -2.70092e-06 6.23777e-18)
(0.0645937 -2.72316e-06 -1.11262e-18)
(0.0645924 -2.74591e-06 1.61364e-17)
(0.0645911 -2.76928e-06 -1.0177e-17)
(0.0645897 -2.79309e-06 7.53261e-18)
(0.0645883 -2.81789e-06 -5.97124e-18)
(0.0645868 -2.842e-06 1.61035e-17)
(0.0645853 -2.87014e-06 -9.37448e-19)
(0.0645838 -2.88939e-06 1.32878e-17)
(0.0645822 -2.93329e-06 -2.4388e-18)
(0.0645806 -2.91788e-06 1.84159e-17)
(0.0645788 -3.04203e-06 6.43504e-23)
(0.0645772 -2.86254e-06 1.37306e-17)
(0.0645753 -3.31187e-06 -2.26871e-18)
(0.0645735 -2.59633e-06 1.8696e-17)
(0.064572 -3.83831e-06 1.20146e-19)
(0.064569 -2.25513e-06 1.36384e-17)
(0.0645682 -2.94523e-06 -2.17876e-18)
(0.0643702 3.79944e-07 9.15594e-18)
(0.0643742 5.78809e-07 8.95306e-18)
(0.0643781 3.86096e-07 9.24424e-18)
(0.0643828 4.97558e-07 8.9574e-18)
(0.0643874 5.3937e-07 9.12166e-18)
(0.0643917 4.56799e-07 9.6555e-18)
(0.0643958 4.09556e-07 8.61135e-18)
(0.0644 3.88291e-07 1.0896e-17)
(0.0644041 3.60031e-07 5.20133e-18)
(0.0644083 3.26989e-07 1.57347e-17)
(0.0644123 2.93438e-07 1.3826e-18)
(0.0644163 2.61242e-07 3.21779e-17)
(0.0644203 2.2912e-07 6.00106e-18)
(0.0644243 2.0099e-07 2.29467e-17)
(0.0644282 1.7489e-07 -7.15603e-18)
(0.064432 1.50678e-07 2.42128e-17)
(0.0644359 1.28115e-07 -3.47943e-19)
(0.0644397 1.06832e-07 1.73655e-17)
(0.0644434 8.8519e-08 -1.0541e-17)
(0.0644471 7.06628e-08 2.25457e-17)
(0.0644508 5.22504e-08 -8.35925e-19)
(0.0644544 3.31121e-08 1.77382e-17)
(0.064458 1.42482e-08 -1.01495e-17)
(0.0644616 -4.46096e-09 2.14778e-17)
(0.0644651 -2.38485e-08 -1.32436e-18)
(0.0644686 -4.26841e-08 1.72085e-17)
(0.064472 -6.13866e-08 -9.87485e-18)
(0.0644754 -8.07072e-08 2.17938e-17)
(0.0644787 -9.91809e-08 -1.6868e-18)
(0.064482 -1.18158e-07 1.74984e-17)
(0.0644853 -1.37445e-07 -1.04309e-17)
(0.0644885 -1.56698e-07 2.25425e-17)
(0.0644917 -1.76066e-07 -8.12777e-19)
(0.0644949 -1.95558e-07 1.77172e-17)
(0.064498 -2.1479e-07 -1.06939e-17)
(0.0645011 -2.33987e-07 2.22902e-17)
(0.0645041 -2.5346e-07 -1.09235e-18)
(0.0645071 -2.72679e-07 1.74822e-17)
(0.06451 -2.91866e-07 -1.06128e-17)
(0.0645129 -3.11495e-07 2.17757e-17)
(0.0645158 -3.31018e-07 -9.96932e-19)
(0.0645186 -3.50384e-07 1.76847e-17)
(0.0645214 -3.69658e-07 -1.03236e-17)
(0.0645241 -3.88911e-07 2.17581e-17)
(0.0645268 -4.08174e-07 -9.31635e-19)
(0.0645295 -4.2744e-07 1.71037e-17)
(0.0645321 -4.4667e-07 -1.08341e-17)
(0.0645347 -4.65936e-07 2.19229e-17)
(0.0645372 -4.8518e-07 -1.20318e-18)
(0.0645397 -5.04352e-07 1.7776e-17)
(0.0645421 -5.23561e-07 -1.14823e-17)
(0.0645445 -5.4278e-07 2.18585e-17)
(0.0645469 -5.61953e-07 -6.10274e-19)
(0.0645492 -5.81136e-07 1.83007e-17)
(0.0645515 -6.00366e-07 -1.01452e-17)
(0.0645538 -6.19634e-07 2.16737e-17)
(0.064556 -6.38856e-07 -1.17105e-18)
(0.0645581 -6.5809e-07 1.75452e-17)
(0.0645602 -6.77335e-07 -1.08179e-17)
(0.0645623 -6.96572e-07 2.15103e-17)
(0.0645643 -7.15815e-07 -1.3109e-18)
(0.0645663 -7.35083e-07 1.69277e-17)
(0.0645682 -7.54371e-07 -1.08184e-17)
(0.0645701 -7.73663e-07 2.12529e-17)
(0.064572 -7.92967e-07 -7.347e-19)
(0.0645738 -8.12229e-07 1.78773e-17)
(0.0645756 -8.31483e-07 -1.12852e-17)
(0.0645773 -8.50719e-07 2.16706e-17)
(0.064579 -8.6995e-07 8.45295e-21)
(0.0645806 -8.89217e-07 1.63538e-17)
(0.0645822 -9.0853e-07 -7.31976e-18)
(0.0645838 -9.27859e-07 1.63446e-17)
(0.0645853 -9.47196e-07 7.94978e-18)
(0.0645868 -9.66534e-07 5.77068e-18)
(0.0645882 -9.85871e-07 2.58324e-18)
(0.0645896 -1.0052e-06 1.4678e-18)
(0.0645909 -1.02455e-06 3.39538e-18)
(0.0645922 -1.04391e-06 6.13096e-18)
(0.0645935 -1.06326e-06 7.41709e-18)
(0.0645947 -1.0826e-06 9.05049e-18)
(0.0645958 -1.10193e-06 8.88218e-18)
(0.064597 -1.12126e-06 8.61984e-18)
(0.064598 -1.14063e-06 9.30906e-18)
(0.0645991 -1.16e-06 9.44435e-18)
(0.0646001 -1.17937e-06 9.80011e-18)
(0.064601 -1.19874e-06 9.97142e-18)
(0.0646019 -1.21811e-06 9.26738e-18)
(0.0646028 -1.23747e-06 9.19082e-18)
(0.0646036 -1.25681e-06 9.42917e-18)
(0.0646044 -1.27616e-06 9.29323e-18)
(0.0646051 -1.29555e-06 9.1213e-18)
(0.0646058 -1.31496e-06 9.37067e-18)
(0.0646064 -1.33437e-06 8.85035e-18)
(0.064607 -1.35378e-06 9.18101e-18)
(0.0646075 -1.37321e-06 9.75768e-18)
(0.064608 -1.39266e-06 8.88024e-18)
(0.0646085 -1.41216e-06 9.42798e-18)
(0.0646089 -1.43167e-06 9.07814e-18)
(0.0646093 -1.45121e-06 8.99499e-18)
(0.0646096 -1.47078e-06 9.11655e-18)
(0.0646099 -1.49038e-06 9.84481e-18)
(0.0646101 -1.51001e-06 9.89123e-18)
(0.0646103 -1.52967e-06 9.64012e-18)
(0.0646105 -1.54939e-06 9.45592e-18)
(0.0646106 -1.56917e-06 9.0935e-18)
(0.0646106 -1.58899e-06 9.26896e-18)
(0.0646106 -1.60885e-06 9.23957e-18)
(0.0646106 -1.62878e-06 8.89369e-18)
(0.0646105 -1.64875e-06 9.28972e-18)
(0.0646104 -1.66875e-06 9.5659e-18)
(0.0646102 -1.68878e-06 9.486e-18)
(0.06461 -1.70887e-06 9.18263e-18)
(0.0646097 -1.729e-06 9.14263e-18)
(0.0646094 -1.74918e-06 9.11373e-18)
(0.0646091 -1.76942e-06 9.34853e-18)
(0.0646087 -1.78975e-06 8.98336e-18)
(0.0646082 -1.81017e-06 9.29992e-18)
(0.0646077 -1.83068e-06 9.73722e-18)
(0.0646072 -1.85127e-06 9.52163e-18)
(0.0646066 -1.87194e-06 9.50565e-18)
(0.064606 -1.89271e-06 9.16787e-18)
(0.0646053 -1.91359e-06 9.07489e-18)
(0.0646046 -1.93461e-06 9.36171e-18)
(0.0646038 -1.95578e-06 9.15647e-18)
(0.064603 -1.97712e-06 9.46005e-18)
(0.0646022 -1.99862e-06 9.81387e-18)
(0.0646013 -2.02032e-06 9.59283e-18)
(0.0646003 -2.04222e-06 9.55072e-18)
(0.0645993 -2.06436e-06 9.23755e-18)
(0.0645983 -2.08676e-06 8.89709e-18)
(0.0645972 -2.10946e-06 9.58285e-18)
(0.0645961 -2.13248e-06 9.09909e-18)
(0.0645949 -2.15583e-06 1.04058e-17)
(0.0645937 -2.17957e-06 6.17709e-18)
(0.0645924 -2.20367e-06 1.67479e-17)
(0.0645911 -2.22827e-06 8.11108e-19)
(0.0645897 -2.25313e-06 3.28574e-17)
(0.0645883 -2.27904e-06 7.72928e-18)
(0.0645868 -2.30386e-06 2.1908e-17)
(0.0645853 -2.33365e-06 -9.22764e-18)
(0.0645838 -2.35226e-06 2.28002e-17)
(0.0645821 -2.4009e-06 1.25948e-20)
(0.0645806 -2.38017e-06 1.74057e-17)
(0.0645788 -2.51604e-06 -1.1713e-17)
(0.0645772 -2.33271e-06 2.21264e-17)
(0.0645753 -2.755e-06 -6.37903e-20)
(0.0645734 -2.19509e-06 1.73084e-17)
(0.0645719 -3.00695e-06 -1.16207e-17)
(0.0645692 -2.53722e-06 2.20841e-17)
(0.0645679 -2.07645e-06 -2.58788e-19)
(0.0645667 -3.73477e-06 1.70484e-17)
(0.0643703 2.71821e-07 2.49537e-17)
(0.0643742 4.30928e-07 2.47156e-17)
(0.0643781 2.37012e-07 2.50228e-17)
(0.0643828 2.04094e-07 2.44774e-17)
(0.0643874 2.24396e-07 2.50194e-17)
(0.0643917 1.77043e-07 2.46034e-17)
(0.0643958 1.36509e-07 2.50005e-17)
(0.0644 1.18114e-07 2.51536e-17)
(0.0644041 1.01105e-07 2.11837e-17)
(0.0644082 8.13047e-08 3.33216e-17)
(0.0644123 6.27692e-08 1.21181e-17)
(0.0644163 4.43882e-08 3.63683e-17)
(0.0644203 2.56727e-08 2.43929e-17)
(0.0644243 1.04127e-08 3.07719e-17)
(0.0644282 -3.7136e-09 4.29086e-18)
(0.064432 -1.68544e-08 2.46135e-17)
(0.0644359 -3.08712e-08 1.23055e-17)
(0.0644397 -4.37047e-08 2.16136e-17)
(0.0644434 -5.28215e-08 -1.74354e-18)
(0.0644471 -6.34549e-08 2.14558e-17)
(0.0644508 -7.54604e-08 1.10784e-17)
(0.0644544 -8.82966e-08 2.12473e-17)
(0.064458 -1.01323e-07 -1.72789e-18)
(0.0644616 -1.1426e-07 2.09144e-17)
(0.0644651 -1.27244e-07 1.12283e-17)
(0.0644685 -1.42152e-07 2.10569e-17)
(0.064472 -1.58829e-07 -1.60778e-18)
(0.0644754 -1.74968e-07 2.11786e-17)
(0.0644787 -1.93999e-07 1.08629e-17)
(0.064482 -2.12933e-07 2.1143e-17)
(0.0644853 -2.31213e-07 -2.04137e-18)
(0.0644885 -2.47687e-07 2.10936e-17)
(0.0644917 -2.64752e-07 1.14429e-17)
(0.0644949 -2.82186e-07 2.14468e-17)
(0.064498 -2.98753e-07 -1.75906e-18)
(0.064501 -3.1504e-07 2.1545e-17)
(0.0645041 -3.3201e-07 1.13964e-17)
(0.0645071 -3.48441e-07 2.10429e-17)
(0.06451 -3.64653e-07 -1.91489e-18)
(0.0645129 -3.81578e-07 2.10731e-17)
(0.0645158 -3.98254e-07 1.12342e-17)
(0.0645186 -4.1471e-07 2.12592e-17)
(0.0645214 -4.31097e-07 -1.83316e-18)
(0.0645241 -4.47472e-07 2.14464e-17)
(0.0645268 -4.63886e-07 1.14838e-17)
(0.0645295 -4.80356e-07 2.1016e-17)
(0.0645321 -4.96771e-07 -2.73085e-18)
(0.0645347 -5.1328e-07 2.14831e-17)
(0.0645372 -5.29807e-07 1.16213e-17)
(0.0645397 -5.46251e-07 2.15423e-17)
(0.0645421 -5.62809e-07 -2.41657e-18)
(0.0645445 -5.79411e-07 2.0956e-17)
(0.0645469 -5.96004e-07 1.17854e-17)
(0.0645492 -6.12639e-07 2.1765e-17)
(0.0645515 -6.29293e-07 -2.31507e-18)
(0.0645537 -6.45993e-07 2.11384e-17)
(0.0645559 -6.62644e-07 1.13833e-17)
(0.0645581 -6.79362e-07 2.12508e-17)
(0.0645602 -6.96137e-07 -2.6255e-18)
(0.0645623 -7.12934e-07 2.10324e-17)
(0.0645643 -7.29745e-07 1.16453e-17)
(0.0645663 -7.46584e-07 2.09556e-17)
(0.0645682 -7.63442e-07 -2.36971e-18)
(0.0645701 -7.80322e-07 2.07332e-17)
(0.064572 -7.97265e-07 1.14527e-17)
(0.0645738 -8.14182e-07 2.14915e-17)
(0.0645756 -8.31173e-07 -2.54994e-18)
(0.0645773 -8.48217e-07 2.10783e-17)
(0.064579 -8.65287e-07 1.21285e-17)
(0.0645806 -8.82374e-07 2.0366e-17)
(0.0645822 -8.99474e-07 -1.01388e-19)
(0.0645838 -9.1659e-07 1.65951e-17)
(0.0645853 -9.33737e-07 2.03918e-17)
(0.0645868 -9.50923e-07 9.49489e-18)
(0.0645882 -9.68144e-07 1.03865e-17)
(0.0645896 -9.85395e-07 1.18874e-17)
(0.0645909 -1.00267e-06 1.55657e-17)
(0.0645922 -1.01998e-06 2.00123e-17)
(0.0645935 -1.03734e-06 2.28553e-17)
(0.0645947 -1.05472e-06 2.3854e-17)
(0.0645958 -1.07214e-06 2.38173e-17)
(0.064597 -1.08958e-06 2.43059e-17)
(0.064598 -1.10705e-06 2.46961e-17)
(0.0645991 -1.12456e-06 2.45814e-17)
(0.0646001 -1.14211e-06 2.53005e-17)
(0.064601 -1.15967e-06 2.53502e-17)
(0.0646019 -1.17728e-06 2.45603e-17)
(0.0646028 -1.19493e-06 2.44949e-17)
(0.0646036 -1.21262e-06 2.49394e-17)
(0.0646043 -1.23034e-06 2.49693e-17)
(0.0646051 -1.24807e-06 2.50672e-17)
(0.0646058 -1.26583e-06 2.48882e-17)
(0.0646064 -1.28361e-06 2.44349e-17)
(0.064607 -1.30143e-06 2.49112e-17)
(0.0646075 -1.31926e-06 2.52061e-17)
(0.064608 -1.33712e-06 2.4474e-17)
(0.0646085 -1.35499e-06 2.47813e-17)
(0.0646089 -1.37289e-06 2.49514e-17)
(0.0646093 -1.3908e-06 2.44826e-17)
(0.0646096 -1.40872e-06 2.47058e-17)
(0.0646099 -1.42668e-06 2.51022e-17)
(0.0646101 -1.44465e-06 2.44899e-17)
(0.0646103 -1.46265e-06 2.45643e-17)
(0.0646104 -1.48066e-06 2.49978e-17)
(0.0646105 -1.49871e-06 2.42162e-17)
(0.0646106 -1.51678e-06 2.53354e-17)
(0.0646106 -1.53487e-06 2.45622e-17)
(0.0646106 -1.553e-06 2.43092e-17)
(0.0646105 -1.57118e-06 2.46837e-17)
(0.0646104 -1.58939e-06 2.42755e-17)
(0.0646102 -1.60765e-06 2.46369e-17)
(0.06461 -1.62598e-06 2.43794e-17)
(0.0646097 -1.64436e-06 2.44602e-17)
(0.0646094 -1.66281e-06 2.44429e-17)
(0.0646091 -1.68131e-06 2.48418e-17)
(0.0646087 -1.69988e-06 2.48464e-17)
(0.0646082 -1.71852e-06 2.46292e-17)
(0.0646077 -1.73725e-06 2.51692e-17)
(0.0646072 -1.75607e-06 2.48903e-17)
(0.0646066 -1.775e-06 2.49137e-17)
(0.064606 -1.79404e-06 2.46641e-17)
(0.0646053 -1.81321e-06 2.42073e-17)
(0.0646046 -1.83252e-06 2.48525e-17)
(0.0646038 -1.85197e-06 2.46617e-17)
(0.064603 -1.87159e-06 2.41654e-17)
(0.0646022 -1.89139e-06 2.49451e-17)
(0.0646013 -1.9114e-06 2.5122e-17)
(0.0646003 -1.93164e-06 2.53624e-17)
(0.0645993 -1.95213e-06 2.46503e-17)
(0.0645983 -1.97289e-06 2.47059e-17)
(0.0645972 -1.99395e-06 2.44175e-17)
(0.0645961 -2.01534e-06 2.51551e-17)
(0.0645949 -2.03708e-06 2.49166e-17)
(0.0645937 -2.05922e-06 2.115e-17)
(0.0645924 -2.08177e-06 3.28638e-17)
(0.0645911 -2.10485e-06 1.12028e-17)
(0.0645897 -2.12822e-06 3.79253e-17)
(0.0645883 -2.15273e-06 2.68417e-17)
(0.0645868 -2.17606e-06 3.05053e-17)
(0.0645853 -2.20477e-06 1.1676e-18)
(0.0645838 -2.22166e-06 2.33868e-17)
(0.0645821 -2.26999e-06 1.37254e-17)
(0.0645806 -2.24804e-06 2.14579e-17)
(0.0645788 -2.38093e-06 -3.70863e-18)
(0.0645772 -2.21305e-06 2.12378e-17)
(0.0645753 -2.59116e-06 1.29659e-17)
(0.0645734 -2.14698e-06 2.10328e-17)
(0.0645718 -2.74104e-06 -3.45184e-18)
(0.0645693 -2.51198e-06 2.09986e-17)
(0.0645678 -2.15904e-06 1.2561e-17)
(0.0645665 -3.02271e-06 2.08974e-17)
(0.0645638 -3.6286e-06 -4.00475e-18)
(0.0643703 6.23259e-07 9.38638e-18)
(0.0643742 7.54235e-07 9.32645e-18)
(0.064378 6.18931e-07 9.48824e-18)
(0.0643828 5.9846e-07 9.22526e-18)
(0.0643874 6.40568e-07 9.743e-18)
(0.0643917 6.14064e-07 8.72401e-18)
(0.0643958 5.76394e-07 1.04559e-17)
(0.0644 5.55561e-07 8.8638e-18)
(0.0644041 5.36435e-07 6.88835e-18)
(0.0644082 5.1553e-07 1.73053e-17)
(0.0644123 4.95248e-07 -2.29082e-18)
(0.0644163 4.76437e-07 3.63541e-17)
(0.0644203 4.57013e-07 1.2354e-17)
(0.0644243 4.36634e-07 3.33591e-17)
(0.0644282 4.16682e-07 -9.26306e-18)
(0.064432 3.96898e-07 2.20347e-17)
(0.0644359 3.77278e-07 -2.48649e-18)
(0.0644397 3.58831e-07 2.15275e-17)
(0.0644434 3.39682e-07 -1.64634e-17)
(0.0644471 3.19627e-07 1.88233e-17)
(0.0644508 3.00717e-07 -4.58894e-18)
(0.0644544 2.83392e-07 2.09249e-17)
(0.064458 2.64778e-07 -1.68756e-17)
(0.0644616 2.45809e-07 1.85618e-17)
(0.0644651 2.28332e-07 -4.05338e-18)
(0.0644685 2.10069e-07 2.08271e-17)
(0.064472 1.90547e-07 -1.67111e-17)
(0.0644754 1.70195e-07 1.86154e-17)
(0.0644787 1.4705e-07 -4.05726e-18)
(0.064482 1.26527e-07 2.08572e-17)
(0.0644853 1.06786e-07 -1.69774e-17)
(0.0644885 8.6299e-08 1.8247e-17)
(0.0644917 6.72464e-08 -3.80411e-18)
(0.0644949 4.8916e-08 2.14224e-17)
(0.064498 3.03057e-08 -1.70157e-17)
(0.064501 1.13955e-08 1.91899e-17)
(0.0645041 -6.28155e-09 -3.63884e-18)
(0.0645071 -2.50064e-08 2.09137e-17)
(0.06451 -4.28799e-08 -1.71508e-17)