/*--------------------------------*- C++ -*----------------------------------*\
| =========                 |                                                 |
| \\      /  F ield         | OpenFOAM: The Open Source CFD Toolbox           |
|  \\    /   O peration     | Version:  2512                                  |
|   \\  /    A nd           | Website:  www.openfoam.com                      |
|    \\/     M anipulation  |                                                 |
\*---------------------------------------------------------------------------*/
FoamFile
{
    version     2.0;
    format      ascii;
    arch        "LSB;label=32;scalar=64";
    class       volScalarField;
    location    "0.1";
    object      Uy;
}
// * * * * * * * * * * * * * * * * * * * * * * * * * * * * * * * * * * * * * //

dimensions      [0 1 -1 0 0 0 0];

internalField   nonuniform List<scalar> 
8333
(
-1.22523e-06
-8.61631e-07
-9.09182e-07
-1.22543e-06
-1.23867e-06
-1.40358e-06
-1.47749e-06
-1.49041e-06
-1.51646e-06
-1.54789e-06
-1.57501e-06
-1.59971e-06
-1.6238e-06
-1.64721e-06
-1.67036e-06
-1.69309e-06
-1.71546e-06
-1.73755e-06
-1.75939e-06
-1.78129e-06
-1.80277e-06
-1.82393e-06
-1.84488e-06
-1.86562e-06
-1.88613e-06
-1.90657e-06
-1.92695e-06
-1.9471e-06
-1.96695e-06
-1.98637e-06
-2.0058e-06
-2.02532e-06
-2.04486e-06
-2.06448e-06
-2.08405e-06
-2.10356e-06
-2.12309e-06
-2.14241e-06
-2.16164e-06
-2.18092e-06
-2.20028e-06
-2.21958e-06
-2.23882e-06
-2.25804e-06
-2.27724e-06
-2.29642e-06
-2.31558e-06
-2.33474e-06
-2.3538e-06
-2.37278e-06
-2.39168e-06
-2.41068e-06
-2.42971e-06
-2.44885e-06
-2.46812e-06
-2.48724e-06
-2.50628e-06
-2.52534e-06
-2.54443e-06
-2.56341e-06
-2.5823e-06
-2.60114e-06
-2.61999e-06
-2.63888e-06
-2.65774e-06
-2.6765e-06
-2.69519e-06
-2.71393e-06
-2.73278e-06
-2.75168e-06
-2.77061e-06
-2.78951e-06
-2.80827e-06
-2.82701e-06
-2.84576e-06
-2.86437e-06
-2.88291e-06
-2.90119e-06
-2.9194e-06
-2.93768e-06
-2.95605e-06
-2.97438e-06
-2.99271e-06
-3.01105e-06
-3.02949e-06
-3.04786e-06
-3.06618e-06
-3.08446e-06
-3.10268e-06
-3.12082e-06
-3.13862e-06
-3.15623e-06
-3.17365e-06
-3.19101e-06
-3.20842e-06
-3.22588e-06
-3.24337e-06
-3.26087e-06
-3.27841e-06
-3.29594e-06
-3.31341e-06
-3.33084e-06
-3.34815e-06
-3.36528e-06
-3.38217e-06
-3.39889e-06
-3.41539e-06
-3.43173e-06
-3.44797e-06
-3.46422e-06
-3.48051e-06
-3.49687e-06
-3.51326e-06
-3.52965e-06
-3.54607e-06
-3.56247e-06
-3.57886e-06
-3.59529e-06
-3.61176e-06
-3.62833e-06
-3.64499e-06
-3.66166e-06
-3.6784e-06
-3.69527e-06
-3.71226e-06
-3.7295e-06
-3.74711e-06
-3.76509e-06
-3.78349e-06
-3.8023e-06
-3.8215e-06
-3.84108e-06
-3.86108e-06
-3.88154e-06
-3.90247e-06
-3.92396e-06
-3.94607e-06
-3.96877e-06
-3.99199e-06
-4.01565e-06
-4.03987e-06
-4.06408e-06
-4.08946e-06
-4.11191e-06
-4.14081e-06
-4.15248e-06
-4.18638e-06
-4.14967e-06
-4.0948e-06
-3.87166e-06
-6.85392e-09
3.95008e-07
3.29443e-07
5.57644e-07
5.00919e-07
4.2533e-07
4.18613e-07
4.09826e-07
3.89976e-07
3.70785e-07
3.52934e-07
3.34686e-07
3.16701e-07
2.97696e-07
2.78242e-07
2.58867e-07
2.39496e-07
2.20033e-07
1.9999e-07
1.80274e-07
1.60665e-07
1.41034e-07
1.21536e-07
1.02185e-07
8.2625e-08
6.31652e-08
4.39456e-08
2.47189e-08
5.77899e-09
-1.33178e-08
-3.25705e-08
-5.18389e-08
-7.11607e-08
-9.0582e-08
-1.09952e-07
-1.29295e-07
-1.48881e-07
-1.68471e-07
-1.88098e-07
-2.07932e-07
-2.27789e-07
-2.4763e-07
-2.67426e-07
-2.8725e-07
-3.07119e-07
-3.27016e-07
-3.46947e-07
-3.66964e-07
-3.87032e-07
-4.07159e-07
-4.27293e-07
-4.47445e-07
-4.67554e-07
-4.87641e-07
-5.0785e-07
-5.28158e-07
-5.48476e-07
-5.68828e-07
-5.89299e-07
-6.0982e-07
-6.304e-07
-6.51034e-07
-6.71696e-07
-6.92404e-07
-7.13206e-07
-7.34079e-07
-7.54944e-07
-7.75764e-07
-7.96567e-07
-8.17427e-07
-8.38365e-07
-8.59396e-07
-8.80495e-07
-9.01635e-07
-9.22872e-07
-9.44192e-07
-9.65686e-07
-9.87265e-07
-1.00882e-06
-1.03034e-06
-1.05193e-06
-1.07351e-06
-1.09518e-06
-1.11683e-06
-1.13852e-06
-1.16026e-06
-1.18207e-06
-1.20396e-06
-1.22591e-06
-1.24811e-06
-1.27048e-06
-1.29301e-06
-1.31563e-06
-1.33825e-06
-1.36086e-06
-1.38349e-06
-1.4062e-06
-1.42888e-06
-1.45162e-06
-1.47445e-06
-1.49735e-06
-1.5204e-06
-1.54362e-06
-1.56711e-06
-1.59081e-06
-1.61474e-06
-1.63888e-06
-1.6632e-06
-1.6876e-06
-1.71201e-06
-1.73646e-06
-1.76101e-06
-1.78566e-06
-1.81042e-06
-1.83531e-06
-1.86037e-06
-1.88557e-06
-1.9109e-06
-1.93633e-06
-1.96191e-06
-1.98767e-06
-2.01359e-06
-2.03968e-06
-2.06595e-06
-2.0923e-06
-2.11871e-06
-2.14517e-06
-2.17169e-06
-2.19833e-06
-2.22513e-06
-2.25214e-06
-2.27938e-06
-2.30685e-06
-2.33461e-06
-2.36259e-06
-2.39085e-06
-2.41933e-06
-2.4484e-06
-2.4771e-06
-2.50813e-06
-2.53395e-06
-2.57443e-06
-2.57825e-06
-2.66963e-06
-2.55739e-06
-2.8855e-06
-2.34207e-06
-3.52431e-06
-1.86201e-06
-3.66633e-06
-2.5233e-07
-2.10836e-07
-4.46397e-07
-4.43861e-07
-4.6641e-07
-5.15294e-07
-5.3598e-07
-5.49414e-07
-5.68224e-07
-5.88757e-07
-6.10801e-07
-6.33247e-07
-6.54717e-07
-6.76056e-07
-6.9648e-07
-7.17523e-07
-7.37777e-07
-7.56831e-07
-7.76153e-07
-7.94411e-07
-8.12185e-07
-8.29715e-07
-8.46898e-07
-8.6356e-07
-8.8032e-07
-8.96939e-07
-9.13149e-07
-9.29174e-07
-9.44523e-07
-9.60133e-07
-9.75931e-07
-9.91665e-07
-1.0075e-06
-1.02339e-06
-1.03912e-06
-1.05483e-06
-1.07059e-06
-1.08617e-06
-1.10177e-06
-1.11765e-06
-1.13347e-06
-1.1492e-06
-1.16489e-06
-1.18057e-06
-1.19626e-06
-1.21199e-06
-1.2277e-06
-1.24344e-06
-1.25918e-06
-1.27489e-06
-1.29069e-06
-1.30654e-06
-1.32243e-06
-1.3384e-06
-1.35434e-06
-1.37026e-06
-1.3862e-06
-1.40218e-06
-1.41818e-06
-1.4342e-06
-1.45023e-06
-1.46629e-06
-1.48239e-06
-1.4985e-06
-1.51463e-06
-1.53077e-06
-1.54699e-06
-1.56331e-06
-1.57968e-06
-1.59607e-06
-1.61245e-06
-1.62882e-06
-1.64523e-06
-1.66168e-06
-1.67815e-06
-1.69463e-06
-1.71109e-06
-1.72757e-06
-1.74413e-06
-1.76075e-06
-1.77742e-06
-1.79414e-06
-1.81086e-06
-1.82765e-06
-1.84448e-06
-1.86132e-06
-1.87819e-06
-1.89513e-06
-1.91209e-06
-1.929e-06
-1.94587e-06
-1.96272e-06
-1.97961e-06
-1.99655e-06
-2.01355e-06
-2.03057e-06
-2.04762e-06
-2.06472e-06
-2.08184e-06
-2.09897e-06
-2.11614e-06
-2.13331e-06
-2.15045e-06
-2.16754e-06
-2.18458e-06
-2.20159e-06
-2.21859e-06
-2.23557e-06
-2.25262e-06
-2.26975e-06
-2.28695e-06
-2.30423e-06
-2.32158e-06
-2.33902e-06
-2.35651e-06
-2.37406e-06
-2.39169e-06
-2.40942e-06
-2.42729e-06
-2.44531e-06
-2.46346e-06
-2.48176e-06
-2.50025e-06
-2.51891e-06
-2.53781e-06
-2.55698e-06
-2.57647e-06
-2.59628e-06
-2.61645e-06
-2.63696e-06
-2.65786e-06
-2.67917e-06
-2.70092e-06
-2.72316e-06
-2.74591e-06
-2.76928e-06
-2.79309e-06
-2.81789e-06
-2.842e-06
-2.87014e-06
-2.88939e-06
-2.93329e-06
-2.91788e-06
-3.04203e-06
-2.86254e-06
-3.31187e-06
-2.59633e-06
-3.83831e-06
-2.25513e-06
-2.94523e-06
3.79944e-07
5.78809e-07
3.86096e-07
4.97558e-07
5.3937e-07
4.56799e-07
4.09556e-07
3.88291e-07
3.60031e-07
3.26989e-07
2.93438e-07
2.61242e-07
2.2912e-07
2.0099e-07
1.7489e-07
1.50678e-07
1.28115e-07
1.06832e-07
8.8519e-08
7.06628e-08
5.22504e-08
3.31121e-08
1.42482e-08
-4.46096e-09
-2.38485e-08
-4.26841e-08
-6.13866e-08
-8.07072e-08
-9.91809e-08
-1.18158e-07
-1.37445e-07
-1.56698e-07
-1.76066e-07
-1.95558e-07
-2.1479e-07
-2.33987e-07
-2.5346e-07
-2.72679e-07
-2.91866e-07
-3.11495e-07
-3.31018e-07
-3.50384e-07
-3.69658e-07
-3.88911e-07
-4.08174e-07
-4.2744e-07
-4.4667e-07
-4.65936e-07
-4.8518e-07
-5.04352e-07
-5.23561e-07
-5.4278e-07
-5.61953e-07
-5.81136e-07
-6.00366e-07
-6.19634e-07
-6.38856e-07
-6.5809e-07
-6.77335e-07
-6.96572e-07
-7.15815e-07
-7.35083e-07
-7.54371e-07
-7.73663e-07
-7.92967e-07
-8.12229e-07
-8.31483e-07
-8.50719e-07
-8.6995e-07
-8.89217e-07
-9.0853e-07
-9.27859e-07
-9.47196e-07
-9.66534e-07
-9.85871e-07
-1.0052e-06
-1.02455e-06
-1.04391e-06
-1.06326e-06
-1.0826e-06
-1.10193e-06
-1.12126e-06
-1.14063e-06
-1.16e-06
-1.17937e-06
-1.19874e-06
-1.21811e-06
-1.23747e-06
-1.25681e-06
-1.27616e-06
-1.29555e-06
-1.31496e-06
-1.33437e-06
-1.35378e-06
-1.37321e-06
-1.39266e-06
-1.41216e-06
-1.43167e-06
-1.45121e-06
-1.47078e-06
-1.49038e-06
-1.51001e-06
-1.52967e-06
-1.54939e-06
-1.56917e-06
-1.58899e-06
-1.60885e-06
-1.62878e-06
-1.64875e-06
-1.66875e-06
-1.68878e-06
-1.70887e-06
-1.729e-06
-1.74918e-06
-1.76942e-06
-1.78975e-06
-1.81017e-06
-1.83068e-06
-1.85127e-06
-1.87194e-06
-1.89271e-06
-1.91359e-06
-1.93461e-06
-1.95578e-06
-1.97712e-06
-1.99862e-06
-2.02032e-06
-2.04222e-06
-2.06436e-06
-2.08676e-06
-2.10946e-06
-2.13248e-06
-2.15583e-06
-2.17957e-06
-2.20367e-06
-2.22827e-06
-2.25313e-06
-2.27904e-06
-2.30386e-06
-2.33365e-06
-2.35226e-06
-2.4009e-06
-2.38017e-06
-2.51604e-06
-2.33271e-06
-2.755e-06
-2.19509e-06
-3.00695e-06
-2.53722e-06
-2.07645e-06
-3.73477e-06
2.71821e-07
4.30928e-07
2.37012e-07
2.04094e-07
2.24396e-07
1.77043e-07
1.36509e-07
1.18114e-07
1.01105e-07
8.13047e-08
6.27692e-08
4.43882e-08
2.56727e-08
1.04127e-08
-3.7136e-09
-1.68544e-08
-3.08712e-08
-4.37047e-08
-5.28215e-08
-6.34549e-08
-7.54604e-08
-8.82966e-08
-1.01323e-07
-1.1426e-07
-1.27244e-07
-1.42152e-07
-1.58829e-07
-1.74968e-07
-1.93999e-07
-2.12933e-07
-2.31213e-07
-2.47687e-07
-2.64752e-07
-2.82186e-07
-2.98753e-07
-3.1504e-07
-3.3201e-07
-3.48441e-07
-3.64653e-07
-3.81578e-07
-3.98254e-07
-4.1471e-07
-4.31097e-07
-4.47472e-07
-4.63886e-07
-4.80356e-07
-4.96771e-07
-5.1328e-07
-5.29807e-07
-5.46251e-07
-5.62809e-07
-5.79411e-07
-5.96004e-07
-6.12639e-07
-6.29293e-07
-6.45993e-07
-6.62644e-07
-6.79362e-07
-6.96137e-07
-7.12934e-07
-7.29745e-07
-7.46584e-07
-7.63442e-07
-7.80322e-07
-7.97265e-07
-8.14182e-07
-8.31173e-07
-8.48217e-07
-8.65287e-07
-8.82374e-07
-8.99474e-07
-9.1659e-07
-9.33737e-07
-9.50923e-07
-9.68144e-07
-9.85395e-07
-1.00267e-06
-1.01998e-06
-1.03734e-06
-1.05472e-06
-1.07214e-06
-1.08958e-06
-1.10705e-06
-1.12456e-06
-1.14211e-06
-1.15967e-06
-1.17728e-06
-1.19493e-06
-1.21262e-06
-1.23034e-06
-1.24807e-06
-1.26583e-06
-1.28361e-06
-1.30143e-06
-1.31926e-06
-1.33712e-06
-1.35499e-06
-1.37289e-06
-1.3908e-06
-1.40872e-06
-1.42668e-06
-1.44465e-06
-1.46265e-06
-1.48066e-06
-1.49871e-06
-1.51678e-06
-1.53487e-06
-1.553e-06
-1.57118e-06
-1.58939e-06
-1.60765e-06
-1.62598e-06
-1.64436e-06
-1.66281e-06
-1.68131e-06
-1.69988e-06
-1.71852e-06
-1.73725e-06
-1.75607e-06
-1.775e-06
-1.79404e-06
-1.81321e-06
-1.83252e-06
-1.85197e-06
-1.87159e-06
-1.89139e-06
-1.9114e-06
-1.93164e-06
-1.95213e-06
-1.97289e-06
-1.99395e-06
-2.01534e-06
-2.03708e-06
-2.05922e-06
-2.08177e-06
-2.10485e-06
-2.12822e-06
-2.15273e-06
-2.17606e-06
-2.20477e-06
-2.22166e-06
-2.26999e-06
-2.24804e-06
-2.38093e-06
-2.21305e-06
-2.59116e-06
-2.14698e-06
-2.74104e-06
-2.51198e-06
-2.15904e-06
-3.02271e-06
-3.6286e-06
6.23259e-07
7.54235e-07
6.18931e-07
5.9846e-07
6.40568e-07
6.14064e-07
5.76394e-07
5.55561e-07
5.36435e-07
5.1553e-07
4.95248e-07
4.76437e-07
4.57013e-07
4.36634e-07
4.16682e-07
3.96898e-07
3.77278e-07
3.58831e-07
3.39682e-07
3.19627e-07
3.00717e-07
2.83392e-07
2.64778e-07
2.45809e-07
2.28332e-07
2.10069e-07
1.90547e-07
1.70195e-07
1.4705e-07
1.26527e-07
1.06786e-07
8.6299e-08
6.72464e-08
4.8916e-08
3.03057e-08
1.13955e-08
-6.28155e-09
-2.50064e-08
-4.28799e-08
-5.88137e-08
-7.50684e-08
-9.20972e-08
-1.09265e-07
-1.26585e-07
-1.44019e-07
-1.61585e-07
-1.78982e-07
-1.96554e-07
-2.14153e-07
-2.31523e-07
-2.49073e-07
-2.66662e-07
-2.84177e-07
-3.0173e-07
-3.19308e-07
-3.36959e-07
-3.54477e-07
-3.72062e-07
-3.8967e-07
-4.07271e-07
-4.24874e-07
-4.42506e-07
-4.60149e-07
-4.77803e-07
-4.95527e-07
-5.13133e-07
-5.30804e-07
-5.48489e-07
-5.66179e-07
-5.83887e-07
-6.01616e-07
-6.19358e-07
-6.37113e-07
-6.54881e-07
-6.72659e-07
-6.90444e-07
-7.0824e-07
-7.26049e-07
-7.43871e-07
-7.61698e-07
-7.79541e-07
-7.97395e-07
-8.15266e-07
-8.33155e-07
-8.51056e-07
-8.68957e-07
-8.86868e-07
-9.04795e-07
-9.22729e-07
-9.40672e-07
-9.58631e-07
-9.7661e-07
-9.94604e-07
-1.01261e-06
-1.03064e-06
-1.04869e-06
-1.06676e-06
-1.08485e-06
-1.10296e-06
-1.12109e-06
-1.13924e-06
-1.15742e-06
-1.17562e-06
-1.19385e-06
-1.2121e-06
-1.23038e-06
-1.2487e-06
-1.26705e-06
-1.28544e-06
-1.30386e-06
-1.32232e-06
-1.34083e-06
-1.35939e-06
-1.378e-06
-1.39666e-06
-1.41539e-06
-1.43419e-06
-1.45307e-06
-1.47204e-06
-1.49111e-06
-1.51028e-06
-1.52956e-06
-1.54898e-06
-1.56854e-06
-1.58826e-06
-1.60814e-06
-1.62823e-06
-1.64853e-06
-1.66907e-06
-1.68987e-06
-1.71096e-06
-1.73238e-06
-1.75415e-06
-1.77632e-06
-1.79889e-06
-1.82199e-06
-1.84539e-06
-1.86997e-06
-1.89338e-06
-1.9222e-06
-1.93964e-06
-1.98716e-06
-1.97022e-06
-2.09162e-06
-1.95908e-06
-2.26158e-06
-1.97458e-06
-2.30851e-06
-2.40983e-06
-1.75331e-06
-2.90299e-06
-2.58725e-06
-3.41323e-06
7.59003e-07
8.7346e-07
7.81541e-07
7.32988e-07
7.4862e-07
7.26562e-07
6.89786e-07
6.66146e-07
6.46348e-07
6.27124e-07
6.09165e-07
5.91673e-07
5.74377e-07
5.55507e-07
5.36667e-07
5.19001e-07
5.03373e-07
4.85954e-07
4.66958e-07
4.48594e-07
4.31519e-07
4.15539e-07
3.99078e-07
3.80922e-07
3.63353e-07
3.47304e-07
3.31738e-07
3.14388e-07
2.98374e-07
2.82348e-07
2.66584e-07
2.48607e-07
2.32458e-07
2.17223e-07
2.00223e-07
1.83101e-07
1.67406e-07
1.50661e-07
1.34306e-07
1.19797e-07
1.04996e-07
8.95588e-08
7.34828e-08
5.74151e-08
4.12551e-08
2.51562e-08
8.62961e-09
-7.90105e-09
-2.38716e-08
-4.06352e-08
-5.71662e-08
-7.37204e-08
-9.02826e-08
-1.06862e-07
-1.23463e-07
-1.40219e-07
-1.56737e-07
-1.73408e-07
-1.90121e-07
-2.06833e-07
-2.2356e-07
-2.4033e-07
-2.57105e-07
-2.73897e-07
-2.90841e-07
-3.07575e-07
-3.24455e-07
-3.41358e-07
-3.5828e-07
-3.75225e-07
-3.92191e-07
-4.09177e-07
-4.26184e-07
-4.43214e-07
-4.60267e-07
-4.77342e-07
-4.94437e-07
-5.11555e-07
-5.28698e-07
-5.45857e-07
-5.6304e-07
-5.80241e-07
-5.97461e-07
-6.14706e-07
-6.31973e-07
-6.49253e-07
-6.66553e-07
-6.83879e-07
-7.01224e-07
-7.18584e-07
-7.35964e-07
-7.53365e-07
-7.70785e-07
-7.88224e-07
-8.05681e-07
-8.23158e-07
-8.40661e-07
-8.58183e-07
-8.75727e-07
-8.93291e-07
-9.10879e-07
-9.28493e-07
-9.46129e-07
-9.63791e-07
-9.81483e-07
-9.99203e-07
-1.01695e-06
-1.03474e-06
-1.05256e-06
-1.07041e-06
-1.08831e-06
-1.10625e-06
-1.12424e-06
-1.14228e-06
-1.16038e-06
-1.17855e-06
-1.19678e-06
-1.21509e-06
-1.23348e-06
-1.25197e-06
-1.27055e-06
-1.28925e-06
-1.30807e-06
-1.32703e-06
-1.34614e-06
-1.36541e-06
-1.38489e-06
-1.40456e-06
-1.42448e-06
-1.44465e-06
-1.46509e-06
-1.48587e-06
-1.50698e-06
-1.52849e-06
-1.55039e-06
-1.57284e-06
-1.59559e-06
-1.6195e-06
-1.6424e-06
-1.67037e-06
-1.68827e-06
-1.73293e-06
-1.72271e-06
-1.82792e-06
-1.73285e-06
-1.96254e-06
-1.80033e-06
-1.95959e-06
-2.2178e-06
-1.57502e-06
-2.64301e-06
-2.21746e-06
-2.66308e-06
9.81635e-07
1.0632e-06
9.98007e-07
9.41591e-07
9.53287e-07
9.41193e-07
9.08532e-07
8.85201e-07
8.67741e-07
8.49357e-07
8.31041e-07
8.11529e-07
7.93352e-07
7.755e-07
7.57775e-07
7.40217e-07
7.22917e-07
7.04673e-07
6.86391e-07
6.68913e-07
6.51492e-07
6.33848e-07
6.17196e-07
6.00211e-07
5.82862e-07
5.657e-07
5.48804e-07
5.32564e-07
5.17383e-07
5.0029e-07
4.83516e-07
4.67809e-07
4.51218e-07
4.34767e-07
4.18062e-07
4.01888e-07
3.85318e-07
3.69715e-07
3.53147e-07
3.36192e-07
3.19619e-07
3.0346e-07
2.87151e-07
2.70701e-07
2.54406e-07
2.38302e-07
2.21831e-07
2.05821e-07
1.89518e-07
1.72815e-07
1.56443e-07
1.40195e-07
1.23687e-07
1.0727e-07
9.09091e-08
7.47937e-08
5.8085e-08
4.16071e-08
2.51853e-08
8.70494e-09
-7.79105e-09
-2.42571e-08
-4.07836e-08
-5.72985e-08
-7.35896e-08
-9.04319e-08
-1.07067e-07
-1.23685e-07
-1.40313e-07
-1.56958e-07
-1.73616e-07
-1.90293e-07
-2.0699e-07
-2.23706e-07
-2.40442e-07
-2.57199e-07
-2.7397e-07
-2.90762e-07
-3.07576e-07
-3.24402e-07
-3.41249e-07
-3.58113e-07
-3.74995e-07
-3.91899e-07
-4.08825e-07
-4.25765e-07
-4.42721e-07
-4.597e-07
-4.76695e-07
-4.93705e-07
-5.1073e-07
-5.27776e-07
-5.44837e-07
-5.61917e-07
-5.79013e-07
-5.96127e-07
-6.13265e-07
-6.30421e-07
-6.47597e-07
-6.64791e-07
-6.82006e-07
-6.99244e-07
-7.16502e-07
-7.33785e-07
-7.51093e-07
-7.68428e-07
-7.85788e-07
-8.0318e-07
-8.20606e-07
-8.38067e-07
-8.55562e-07
-8.73103e-07
-8.90691e-07
-9.08325e-07
-9.26011e-07
-9.43755e-07
-9.61564e-07
-9.79446e-07
-9.97405e-07
-1.01545e-06
-1.03359e-06
-1.05184e-06
-1.0702e-06
-1.0887e-06
-1.10735e-06
-1.12614e-06
-1.14514e-06
-1.16432e-06
-1.18374e-06
-1.2034e-06
-1.22333e-06
-1.24358e-06
-1.26417e-06
-1.28515e-06
-1.30651e-06
-1.32842e-06
-1.35066e-06
-1.37402e-06
-1.39658e-06
-1.42371e-06
-1.44244e-06
-1.48391e-06
-1.48087e-06
-1.57049e-06
-1.50737e-06
-1.68275e-06
-1.59355e-06
-1.68954e-06
-1.90779e-06
-1.54384e-06
-2.00824e-06
-2.43106e-06
-2.03419e-06
-2.69173e-06
1.18294e-06
1.24063e-06
1.19837e-06
1.14507e-06
1.1471e-06
1.13744e-06
1.10902e-06
1.08577e-06
1.06795e-06
1.04973e-06
1.03115e-06
1.01372e-06
9.96237e-07
9.78926e-07
9.61549e-07
9.44387e-07
9.26721e-07
9.09673e-07
8.92227e-07
8.75103e-07
8.5805e-07
8.40902e-07
8.23918e-07
8.07572e-07
7.90944e-07
7.74333e-07
7.57812e-07
7.41654e-07
7.25697e-07
7.09875e-07
6.9374e-07
6.78178e-07
6.61755e-07
6.45294e-07
6.29434e-07
6.13534e-07
5.97408e-07
5.81803e-07
5.65609e-07
5.49223e-07
5.32991e-07
5.16896e-07
5.01085e-07
4.84974e-07
4.68937e-07
4.52858e-07
4.36992e-07
4.2131e-07
4.04827e-07
3.8888e-07
3.72837e-07
3.56865e-07
3.40732e-07
3.24632e-07
3.08578e-07
2.9277e-07
2.76363e-07
2.60193e-07
2.44068e-07
2.27887e-07
2.11691e-07
1.95529e-07
1.79309e-07
1.63098e-07
1.47113e-07
1.30582e-07
1.14259e-07
9.79481e-08
8.16324e-08
6.53077e-08
4.89551e-08
3.25897e-08
1.62116e-08
-1.87916e-10
-1.66043e-08
-3.30296e-08
-4.94828e-08
-6.59482e-08
-8.24289e-08
-9.89343e-08
-1.15453e-07
-1.31987e-07
-1.48538e-07
-1.65109e-07
-1.81698e-07
-1.983e-07
-2.14916e-07
-2.31552e-07
-2.48203e-07
-2.64867e-07
-2.81546e-07
-2.98244e-07
-3.14956e-07
-3.31687e-07
-3.48433e-07
-3.65195e-07
-3.81978e-07
-3.98777e-07
-4.15595e-07
-4.32429e-07
-4.49283e-07
-4.66157e-07
-4.8305e-07
-4.99966e-07
-5.16905e-07
-5.33869e-07
-5.50857e-07
-5.67874e-07
-5.84923e-07
-6.02004e-07
-6.19117e-07
-6.36273e-07
-6.5347e-07
-6.70711e-07
-6.88001e-07
-7.05345e-07
-7.22749e-07
-7.40223e-07
-7.57769e-07
-7.75398e-07
-7.93118e-07
-8.10936e-07
-8.28869e-07
-8.46925e-07
-8.65125e-07
-8.8347e-07
-9.02007e-07
-9.20718e-07
-9.39662e-07
-9.58841e-07
-9.78283e-07
-9.98039e-07
-1.01812e-06
-1.0386e-06
-1.05946e-06
-1.08085e-06
-1.10263e-06
-1.12545e-06
-1.14774e-06
-1.17403e-06
-1.19364e-06
-1.23196e-06
-1.23576e-06
-1.3111e-06
-1.27522e-06
-1.40623e-06
-1.37286e-06
-1.41903e-06
-1.63104e-06
-1.36174e-06
-1.73557e-06
-2.00805e-06
-2.23261e-06
-1.60645e-06
-2.92653e-06
1.3875e-06
1.42438e-06
1.39698e-06
1.34836e-06
1.34208e-06
1.33348e-06
1.30862e-06
1.28585e-06
1.26789e-06
1.25024e-06
1.23234e-06
1.21503e-06
1.19811e-06
1.18117e-06
1.16429e-06
1.14726e-06
1.13019e-06
1.11337e-06
1.09653e-06
1.07992e-06
1.06329e-06
1.04661e-06
1.03006e-06
1.01391e-06
9.97627e-07
9.81331e-07
9.65284e-07
9.49441e-07
9.33766e-07
9.18178e-07
9.02402e-07
8.86659e-07
8.70968e-07
8.55049e-07
8.39443e-07
8.23815e-07
8.08043e-07
7.92262e-07
7.76792e-07
7.60907e-07
7.45059e-07
7.29296e-07
7.13592e-07
6.97989e-07
6.82335e-07
6.66635e-07
6.51024e-07
6.35221e-07
6.196e-07
6.03988e-07
5.8829e-07
5.72531e-07
5.56865e-07
5.41146e-07
5.25408e-07
5.09525e-07
4.93885e-07
4.78106e-07
4.62287e-07
4.4648e-07
4.30663e-07
4.14814e-07
3.98969e-07
3.83102e-07
3.67104e-07
3.51321e-07
3.35399e-07
3.19454e-07
3.03498e-07
2.87533e-07
2.71538e-07
2.55531e-07
2.39512e-07
2.23473e-07
2.07417e-07
1.91352e-07
1.75259e-07
1.59154e-07
1.43034e-07
1.26889e-07
1.10732e-07
9.45599e-08
7.83713e-08
6.21651e-08
4.59414e-08
2.97046e-08
1.34541e-08
-2.81451e-09
-1.9098e-08
-3.53948e-08
-5.17059e-08
-6.80345e-08
-8.43781e-08
-1.00738e-07
-1.17113e-07
-1.33503e-07
-1.49912e-07
-1.66337e-07
-1.82779e-07
-1.99237e-07
-2.15713e-07
-2.32208e-07
-2.48721e-07
-2.65255e-07
-2.81812e-07
-2.98391e-07
-3.14993e-07
-3.31621e-07
-3.48279e-07
-3.64968e-07
-3.81686e-07
-3.98442e-07
-4.15238e-07
-4.32075e-07
-4.48957e-07
-4.65891e-07
-4.82881e-07
-4.99936e-07
-5.17059e-07
-5.3426e-07
-5.51547e-07
-5.68929e-07
-5.86417e-07
-6.04023e-07
-6.21767e-07
-6.39649e-07
-6.57715e-07
-6.75947e-07
-6.94408e-07
-7.13092e-07
-7.32034e-07
-7.51284e-07
-7.70854e-07
-7.90814e-07
-8.11159e-07
-8.32039e-07
-8.53324e-07
-8.75587e-07
-8.97599e-07
-9.23031e-07
-9.43419e-07
-9.78853e-07
-9.88447e-07
-1.05196e-06
-1.03676e-06
-1.13628e-06
-1.136e-06
-1.16343e-06
-1.34113e-06
-1.18653e-06
-1.45069e-06
-1.69173e-06
-1.99598e-06
-1.23751e-06
-2.0853e-06
1.59102e-06
1.61193e-06
1.59326e-06
1.5503e-06
1.53815e-06
1.52935e-06
1.50755e-06
1.48567e-06
1.46778e-06
1.4506e-06
1.43324e-06
1.4163e-06
1.39975e-06
1.3832e-06
1.36669e-06
1.35009e-06
1.33349e-06
1.31704e-06
1.30067e-06
1.28436e-06
1.26807e-06
1.25178e-06
1.23562e-06
1.21972e-06
1.20379e-06
1.18788e-06
1.17216e-06
1.15661e-06
1.14121e-06
1.12588e-06
1.11044e-06
1.09502e-06
1.07963e-06
1.06412e-06
1.04879e-06
1.03346e-06
1.01805e-06
1.00265e-06
9.87406e-07
9.71929e-07
9.56454e-07
9.4104e-07
9.2568e-07
9.10392e-07
8.95076e-07
8.79736e-07
8.64434e-07
8.49033e-07
8.33737e-07
8.18448e-07
8.03103e-07
7.87718e-07
7.7238e-07
7.57013e-07
7.41619e-07
7.26147e-07
7.10805e-07
6.95382e-07
6.79933e-07
6.64482e-07
6.49019e-07
6.33532e-07
6.18038e-07
6.02521e-07
5.86936e-07
5.71457e-07
5.55903e-07
5.40325e-07
5.24731e-07
5.09118e-07
4.93495e-07
4.77854e-07
4.62195e-07
4.46522e-07
4.30832e-07
4.15123e-07
3.99403e-07
3.83664e-07
3.67906e-07
3.52136e-07
3.36349e-07
3.20545e-07
3.04726e-07
2.8889e-07
2.73038e-07
2.57171e-07
2.41292e-07
2.25395e-07
2.09484e-07
1.9356e-07
1.77622e-07
1.61667e-07
1.45698e-07
1.29714e-07
1.13716e-07
9.77032e-08
8.1673e-08
6.56274e-08
4.95662e-08
3.34893e-08
1.73958e-08
1.28464e-09
-1.48441e-08
-3.09915e-08
-4.71597e-08
-6.3349e-08
-7.95598e-08
-9.5795e-08
-1.12057e-07
-1.28347e-07
-1.44665e-07
-1.61019e-07
-1.77408e-07
-1.93836e-07
-2.10307e-07
-2.26824e-07
-2.43395e-07
-2.60026e-07
-2.76721e-07
-2.93489e-07
-3.10338e-07
-3.27276e-07
-3.44315e-07
-3.61465e-07
-3.78746e-07
-3.9616e-07
-4.13748e-07
-4.31496e-07
-4.49467e-07
-4.67649e-07
-4.86086e-07
-5.04821e-07
-5.23871e-07
-5.43307e-07
-5.63123e-07
-5.8348e-07
-6.04259e-07
-6.2596e-07
-6.47659e-07
-6.72244e-07
-6.93253e-07
-7.26141e-07
-7.4033e-07
-7.94431e-07
-7.94185e-07
-8.72122e-07
-8.89549e-07
-9.16919e-07
-1.04799e-06
-1.01135e-06
-1.11602e-06
-1.49489e-06
-1.45587e-06
-1.56826e-06
-1.39364e-06
-2.09036e-06
1.79347e-06
1.80245e-06
1.7884e-06
1.75129e-06
1.73567e-06
1.72602e-06
1.70655e-06
1.6857e-06
1.66797e-06
1.65116e-06
1.63431e-06
1.61779e-06
1.60158e-06
1.58544e-06
1.56931e-06
1.55314e-06
1.53697e-06
1.5209e-06
1.50489e-06
1.48893e-06
1.473e-06
1.45709e-06
1.44129e-06
1.42568e-06
1.41008e-06
1.39453e-06
1.37914e-06
1.36389e-06
1.34877e-06
1.3337e-06
1.31859e-06
1.30349e-06
1.28841e-06
1.27326e-06
1.25822e-06
1.24321e-06
1.22814e-06
1.21308e-06
1.19811e-06
1.183e-06
1.16789e-06
1.15282e-06
1.1378e-06
1.12283e-06
1.10784e-06
1.09285e-06
1.07787e-06
1.06284e-06
1.04787e-06
1.03291e-06
1.01791e-06
1.00289e-06
9.87881e-07
9.72857e-07
9.5781e-07
9.42718e-07
9.27694e-07
9.12625e-07
8.97533e-07
8.82432e-07
8.6732e-07
8.52188e-07
8.37046e-07
8.21886e-07
8.06678e-07
7.91527e-07
7.76331e-07
7.61113e-07
7.45877e-07
7.30624e-07
7.1536e-07
7.00078e-07
6.8478e-07
6.69467e-07
6.54138e-07
6.38793e-07
6.23434e-07
6.08058e-07
5.92665e-07
5.77259e-07
5.61837e-07
5.46399e-07
5.30946e-07
5.15477e-07
4.99993e-07
4.84494e-07
4.68982e-07
4.53456e-07
4.37915e-07
4.22361e-07
4.06794e-07
3.91212e-07
3.75617e-07
3.60007e-07
3.44383e-07
3.28746e-07
3.13092e-07
2.97425e-07
2.81742e-07
2.66045e-07
2.50333e-07
2.34604e-07
2.18859e-07
2.03097e-07
1.87316e-07
1.71515e-07
1.55695e-07
1.39852e-07
1.23985e-07
1.08091e-07
9.21722e-08
7.6221e-08
6.02366e-08
4.42168e-08
2.81577e-08
1.20547e-08
-4.097e-09
-2.03042e-08
-3.65721e-08
-5.29072e-08
-6.93182e-08
-8.58131e-08
-1.02403e-07
-1.19098e-07
-1.35915e-07
-1.52863e-07
-1.69971e-07
-1.87238e-07
-2.04715e-07
-2.22396e-07
-2.40329e-07
-2.58545e-07
-2.77074e-07
-2.95981e-07
-3.1527e-07
-3.35091e-07
-3.5536e-07
-3.76511e-07
-3.97844e-07
-4.21639e-07
-4.43077e-07
-4.73778e-07
-4.9142e-07
-5.38232e-07
-5.48473e-07
-6.11552e-07
-6.39037e-07
-6.69445e-07
-7.70196e-07
-7.93348e-07
-8.45495e-07
-1.19089e-06
-1.18181e-06
-1.29192e-06
-1.31177e-06
-1.47633e-06
-1.64242e-06
1.9946e-06
1.99522e-06
1.98342e-06
1.95164e-06
1.93401e-06
1.92321e-06
1.90546e-06
1.88568e-06
1.86822e-06
1.85178e-06
1.83541e-06
1.81931e-06
1.80347e-06
1.78772e-06
1.77199e-06
1.75623e-06
1.74048e-06
1.72479e-06
1.70915e-06
1.69355e-06
1.67798e-06
1.66245e-06
1.647e-06
1.6317e-06
1.61644e-06
1.60124e-06
1.58616e-06
1.57123e-06
1.55639e-06
1.54161e-06
1.52681e-06
1.51203e-06
1.49726e-06
1.48246e-06
1.46774e-06
1.45303e-06
1.4383e-06
1.42358e-06
1.4089e-06
1.39415e-06
1.3794e-06
1.36467e-06
1.34998e-06
1.33534e-06
1.32069e-06
1.30603e-06
1.29139e-06
1.27672e-06
1.26208e-06
1.24745e-06
1.23279e-06
1.21812e-06
1.20345e-06
1.18877e-06
1.17407e-06
1.15935e-06
1.14465e-06
1.12993e-06
1.11519e-06
1.10044e-06
1.08568e-06
1.0709e-06
1.05611e-06
1.0413e-06
1.02647e-06
1.01165e-06
9.96814e-07
9.81953e-07
9.67074e-07
9.52181e-07
9.37273e-07
9.22349e-07
9.07412e-07
8.92457e-07
8.77488e-07
8.62504e-07
8.47505e-07
8.32492e-07
8.17462e-07
8.02418e-07
7.8736e-07
7.72287e-07
7.57199e-07
7.42097e-07
7.26978e-07
7.11847e-07
6.96702e-07
6.81544e-07
6.66373e-07
6.51188e-07
6.35992e-07
6.20781e-07
6.05557e-07
5.9032e-07
5.7507e-07
5.59808e-07
5.4453e-07
5.29239e-07
5.13935e-07
4.98617e-07
4.83284e-07
4.67937e-07
4.52575e-07
4.37197e-07
4.21801e-07
4.06389e-07
3.90958e-07
3.75506e-07
3.60033e-07
3.44535e-07
3.29014e-07
3.13464e-07
2.97884e-07
2.82271e-07
2.66623e-07
2.50934e-07
2.352e-07
2.19415e-07
2.03574e-07
1.87671e-07
1.71697e-07
1.55644e-07
1.39503e-07
1.23262e-07
1.06908e-07
9.04256e-08
7.37993e-08
5.70112e-08
4.00313e-08
2.28511e-08
5.41831e-09
-1.22744e-08
-3.02865e-08
-4.86519e-08
-6.7429e-08
-8.66885e-08
-1.06455e-07
-1.27056e-07
-1.47983e-07
-1.71049e-07
-1.92707e-07
-2.21562e-07
-2.41657e-07
-2.82947e-07
-3.00204e-07
-3.53444e-07
-3.85694e-07
-4.2166e-07
-4.97992e-07
-5.61916e-07
-5.79506e-07
-9.11408e-07
-8.55434e-07
-1.12143e-06
-8.52879e-07
-1.46251e-06
-8.40713e-07
-1.8636e-06
2.19463e-06
2.18966e-06
2.17869e-06
2.15135e-06
2.13277e-06
2.12086e-06
2.10431e-06
2.08558e-06
2.06846e-06
2.05237e-06
2.03647e-06
2.02078e-06
2.00532e-06
1.98997e-06
1.97464e-06
1.95929e-06
1.94395e-06
1.92864e-06
1.91337e-06
1.89814e-06
1.88293e-06
1.86776e-06
1.85267e-06
1.83769e-06
1.82277e-06
1.80791e-06
1.79316e-06
1.77853e-06
1.76399e-06
1.7495e-06
1.73502e-06
1.72056e-06
1.7061e-06
1.69165e-06
1.67724e-06
1.66285e-06
1.64845e-06
1.63407e-06
1.61971e-06
1.60531e-06
1.5909e-06
1.57652e-06
1.56217e-06
1.54785e-06
1.53353e-06
1.51922e-06
1.50491e-06
1.49059e-06
1.47629e-06
1.46199e-06
1.44768e-06
1.43336e-06
1.41904e-06
1.4047e-06
1.39035e-06
1.37598e-06
1.36163e-06
1.34726e-06
1.33287e-06
1.31847e-06
1.30406e-06
1.28963e-06
1.27519e-06
1.26074e-06
1.24626e-06
1.2318e-06
1.21731e-06
1.20281e-06
1.18829e-06
1.17375e-06
1.1592e-06
1.14464e-06
1.13006e-06
1.11546e-06
1.10085e-06
1.08623e-06
1.07159e-06
1.05694e-06
1.04227e-06
1.02759e-06
1.0129e-06
9.98191e-07
9.83468e-07
9.68731e-07
9.53979e-07
9.39215e-07
9.24439e-07
9.09648e-07
8.94846e-07
8.80031e-07
8.65205e-07
8.50365e-07
8.35513e-07
8.20649e-07
8.05773e-07
7.90884e-07
7.75982e-07
7.61068e-07
7.46141e-07
7.31201e-07
7.16249e-07
7.01283e-07
6.86303e-07
6.71309e-07
6.56299e-07
6.41274e-07
6.26232e-07
6.11171e-07
5.96092e-07
5.8099e-07
5.65866e-07
5.50717e-07
5.3554e-07
5.20334e-07
5.05096e-07
4.8982e-07
4.74504e-07
4.5914e-07
4.43726e-07
4.28253e-07
4.12716e-07
3.97106e-07
3.81412e-07
3.65625e-07
3.49734e-07
3.33717e-07
3.17572e-07
3.01262e-07
2.8478e-07
2.68101e-07
2.51168e-07
2.34001e-07
2.16507e-07
1.98682e-07
1.80426e-07
1.61727e-07
1.4247e-07
1.22427e-07
1.01929e-07
7.95576e-08
5.78904e-08
3.05682e-08
8.84324e-09
-2.82716e-08
-5.0023e-08
-9.65349e-08
-1.31058e-07
-1.71964e-07
-2.31516e-07
-3.18876e-07
-3.19773e-07
-6.3022e-07
-5.56663e-07
-8.73635e-07
-5.6628e-07
-1.20934e-06
-4.78056e-07
-1.01446e-06
2.39383e-06
2.38528e-06
2.37436e-06
2.35056e-06
2.33177e-06
2.31891e-06
2.30319e-06
2.28541e-06
2.2687e-06
2.25297e-06
2.23749e-06
2.22221e-06
2.20715e-06
2.19218e-06
2.17725e-06
2.16231e-06
2.14737e-06
2.13244e-06
2.11755e-06
2.10268e-06
2.08784e-06
2.07303e-06
2.05829e-06
2.04364e-06
2.02905e-06
2.01453e-06
2.00011e-06
1.98579e-06
1.97155e-06
1.95737e-06
1.94321e-06
1.92906e-06
1.91493e-06
1.90081e-06
1.88672e-06
1.87266e-06
1.85859e-06
1.84454e-06
1.8305e-06
1.81644e-06
1.80238e-06
1.78835e-06
1.77433e-06
1.76035e-06
1.74637e-06
1.73239e-06
1.71843e-06
1.70445e-06
1.69049e-06
1.67653e-06
1.66257e-06
1.64859e-06
1.63461e-06
1.62062e-06
1.60662e-06
1.5926e-06
1.57859e-06
1.56457e-06
1.55054e-06
1.53649e-06
1.52243e-06
1.50836e-06
1.49427e-06
1.48017e-06
1.46605e-06
1.45194e-06
1.43781e-06
1.42366e-06
1.4095e-06
1.39532e-06
1.38113e-06
1.36692e-06
1.3527e-06
1.33847e-06
1.32422e-06
1.30996e-06
1.29568e-06
1.28139e-06
1.26709e-06
1.25277e-06
1.23844e-06
1.22409e-06
1.20974e-06
1.19536e-06
1.18098e-06
1.16658e-06
1.15217e-06
1.13775e-06
1.12332e-06
1.10887e-06
1.09442e-06
1.07995e-06
1.06547e-06
1.05098e-06
1.03647e-06
1.02196e-06
1.00743e-06
9.92894e-07
9.78344e-07
9.63783e-07
9.4921e-07
9.34625e-07
9.20027e-07
9.05417e-07
8.90793e-07
8.76154e-07
8.61501e-07
8.46831e-07
8.32144e-07
8.17438e-07
8.02712e-07
7.87963e-07
7.7319e-07
7.58389e-07
7.4356e-07
7.28697e-07
7.13798e-07
6.98855e-07
6.83867e-07
6.68825e-07
6.53724e-07
6.38555e-07
6.23307e-07
6.07974e-07
5.92546e-07
5.76993e-07
5.61328e-07
5.45498e-07
5.29512e-07
5.13334e-07
4.96905e-07
4.8026e-07
4.63291e-07
4.45995e-07
4.28283e-07
4.10124e-07
3.91401e-07
3.71918e-07
3.51869e-07
3.30204e-07
3.08645e-07
2.82626e-07
2.59912e-07
2.25939e-07
2.01406e-07
1.59398e-07
1.24194e-07
8.0095e-08
2.99228e-08
-6.49503e-08
-7.07743e-08
-3.30721e-07
-3.0855e-07
-5.16444e-07
-4.4682e-07
-5.89141e-07
-8.14989e-07
-4.39687e-07
-1.02557e-06
2.59246e-06
2.58172e-06
2.57052e-06
2.54946e-06
2.53089e-06
2.51731e-06
2.50215e-06
2.4852e-06
2.46894e-06
2.45356e-06
2.43849e-06
2.42362e-06
2.40895e-06
2.39438e-06
2.37984e-06
2.36529e-06
2.35075e-06
2.33621e-06
2.32169e-06
2.30718e-06
2.2927e-06
2.27825e-06
2.26386e-06
2.24955e-06
2.23529e-06