/*--------------------------------*- C++ -*----------------------------------*\
| =========                 |                                                 |
| \\      /  F ield         | OpenFOAM: The Open Source CFD Toolbox           |
|  \\    /   O peration     | Version:  2512                                  |
|   \\  /    A nd           | Website:  www.openfoam.com                      |
|    \\/     M anipulation  |                                                 |
\*---------------------------------------------------------------------------*/
FoamFile
{
    version     2.0;
    format      ascii;
    arch        "LSB;label=32;scalar=64";
    class       volScalarField;
    location    "0.1";
    object      Uz;
}
// * * * * * * * * * * * * * * * * * * * * * * * * * * * * * * * * * * * * * //

dimensions      [0 1 -1 0 0 0 0];

internalField   nonuniform List<scalar> 
8333
(
3.66163e-18
-5.84688e-18
-1.36198e-18
-1.92037e-18
-2.69612e-18
3.94447e-18
-1.36265e-18
-7.77856e-18
7.17225e-18
-9.91149e-18
9.31629e-18
1.93812e-17
2.9609e-18
1.70971e-17
2.59239e-17
-1.47848e-18
1.71989e-17
-8.5303e-18
1.4261e-17
1.40676e-17
1.83419e-17
5.10343e-18
1.03352e-17
-3.31218e-18
2.86835e-18
1.6207e-17
-3.13412e-18
8.18535e-18
-9.30971e-18
9.57422e-18
1.61127e-17
2.5978e-18
5.52877e-18
1.69042e-18
2.34096e-18
-1.62122e-18
4.35306e-18
-4.14014e-18
6.51915e-18
-4.79585e-18
4.65545e-18
1.36502e-17
2.55461e-18
-2.73012e-19
3.76996e-19
-1.78683e-18
-1.25934e-18
7.24892e-19
-1.97535e-18
4.25278e-18
-2.14473e-18
2.19326e-18
2.98789e-17
6.55054e-18
1.434e-17
-1.425e-18
4.90883e-18
1.33666e-17
2.42071e-18
1.11049e-19
-7.69033e-19
-2.46574e-19
-3.59427e-18
2.34976e-18
-2.07998e-18
2.70952e-18
-5.26793e-18
7.12145e-19
2.58516e-17
1.02601e-17
8.60123e-18
4.00543e-18
1.18846e-18
1.78819e-18
-1.45787e-18
2.45924e-18
-1.64148e-18
-2.00652e-20
2.63485e-18
1.39338e-18
4.18942e-18
-1.30762e-17
9.71218e-18
1.48629e-17
7.12192e-18
1.16255e-17
7.93075e-19
-1.50661e-18
4.43115e-18
-6.08677e-18
-6.02643e-18
-1.14934e-18
-2.04863e-18
-2.76287e-18
4.51947e-18
-1.24464e-18
-7.94092e-18
8.1564e-18
-1.29358e-17
1.51089e-17
1.02188e-17
1.59313e-17
9.46716e-19
1.19926e-18
-2.289e-18
1.38643e-18
-1.9213e-18
-9.61016e-19
5.3135e-18
1.18631e-17
-5.54124e-20
2.65874e-18
-3.46412e-19
2.83743e-18
-1.19727e-18
-7.30465e-19
5.64101e-18
1.17414e-17
5.85762e-19
1.32049e-18
2.12201e-18
-1.3931e-18
5.75708e-18
4.30255e-18
7.57255e-18
1.44949e-17
-2.2773e-19
4.14342e-18
-3.68012e-19
4.39486e-19
4.16209e-18
1.29935e-17
2.37982e-18
2.58371e-17
1.94359e-17
1.72206e-17
9.31501e-18
6.52846e-18
1.18955e-18
1.4294e-18
-6.19071e-19
2.12309e-18
-1.05765e-19
1.29944e-18
-5.3532e-19
2.19071e-18
-8.16904e-20
1.29669e-18
-5.44704e-19
2.18229e-18
-1.6091e-18
-1.4126e-18
-1.11834e-19
-1.75797e-18
6.87777e-19
3.37623e-18
-3.93215e-18
4.80817e-18
-4.71299e-18
5.69232e-19
3.70967e-18
5.6757e-18
-1.48659e-18
1.27869e-17
1.13757e-18
1.37144e-17
-1.23822e-18
4.27699e-18
2.69756e-18
1.31423e-17
3.44858e-18
9.77016e-18
1.16731e-18
2.28817e-18
5.19679e-18
5.43757e-18
5.02883e-18
3.22384e-18
-2.97991e-18
8.70216e-18
4.01798e-18
8.65674e-18
1.04993e-18
5.31722e-18
-1.18559e-18
6.68144e-18
-2.11152e-18
6.92348e-18
-2.82641e-19
3.01299e-18
3.54173e-18
8.57035e-18
1.25646e-18
5.05457e-18
-1.02752e-18
3.33589e-18
4.77247e-19
3.42054e-18
1.40498e-18
5.96647e-18
-4.80849e-18
1.18434e-17
5.27219e-18
1.2828e-17
2.51507e-18
3.58536e-18
3.46502e-18
8.48338e-18
1.28126e-18
4.46185e-18
-5.48133e-19
2.56366e-18
6.43445e-19
3.6584e-18
1.31842e-18
4.94807e-18
-5.10517e-18
9.96556e-18
7.6079e-18
9.69785e-18
4.73289e-18
3.12168e-18
3.6922e-18
1.60261e-18
1.75757e-18
-4.19644e-19
-1.34831e-19
9.37397e-19
-5.57849e-19
5.41043e-18
-2.83982e-18
-2.21683e-18
4.66203e-18
3.88602e-18
5.58985e-18
4.72932e-18
7.47815e-20
1.63929e-18
1.88327e-20
-1.74872e-18
-1.30956e-18
-1.27209e-19
-1.86844e-18
1.18853e-18
3.07946e-18
-3.46599e-18
4.09659e-18
-4.36683e-18
9.62133e-19
2.44811e-18
7.67207e-18
5.13003e-18
2.38491e-18
-5.47638e-20
6.80665e-21
1.59715e-19
2.94946e-19
-5.86643e-19
4.24658e-18
3.48801e-18
2.44981e-18
5.94689e-19
6.34337e-19
4.8876e-19
4.12439e-19
-3.83143e-19
4.05416e-18
4.04247e-18
1.30691e-18
2.20208e-18
-8.43562e-19
7.71208e-19
2.15578e-18
1.31035e-18
6.05847e-18
4.33215e-18
2.59318e-18
1.44834e-18
8.66211e-20
-1.23479e-18
6.06239e-18
-2.11279e-19
7.06281e-18
5.64611e-18
1.31965e-17
3.50378e-18
5.59422e-18
-1.89858e-18
3.1864e-18
-1.31294e-18
5.34058e-18
-2.41327e-19
4.88955e-18
-3.17325e-19
5.82953e-18
-4.17323e-20
4.96946e-18
-2.9614e-19
5.79653e-18
2.49155e-20
2.27116e-18
1.90859e-18
2.54415e-18
1.92724e-18
2.24143e-18
4.45074e-18
3.65291e-19
6.53253e-18
-3.70681e-18
1.10533e-17
-1.11791e-17
7.59418e-18
-7.10203e-18
1.89754e-17
5.82988e-19
1.62316e-17
-2.038e-18
1.77335e-17
4.73812e-19
1.57327e-17
-1.31208e-18
2.03778e-17
1.53472e-18
1.19897e-17
-1.45316e-18
1.86463e-17
2.34958e-18
1.34521e-17
-4.2239e-18
1.91121e-17
1.77839e-18
1.47749e-17
-1.87638e-18
1.87945e-17
-8.53721e-20
1.39641e-17
-3.29002e-18
1.92042e-17
8.5674e-19
1.23127e-17
-1.87361e-18
1.9784e-17
1.09741e-18
1.33927e-17
-2.78689e-18
1.80019e-17
5.99284e-19
1.28045e-17
-2.28585e-18
1.95943e-17
-1.70275e-18
1.4178e-17
-8.76422e-19
2.1721e-17
2.21737e-18
1.26967e-17
-1.92014e-18
1.98957e-17
9.29352e-19
1.30524e-17
-2.76807e-18
1.78225e-17
4.71476e-19
1.26943e-17
-2.24776e-18
1.94833e-17
-1.49253e-18
1.35178e-17
6.0355e-19
1.89696e-17
5.33425e-18
7.21488e-18
7.61859e-18
4.85807e-18
2.06339e-18
2.5002e-20
3.99078e-19
1.66343e-18
1.3466e-18
4.32035e-18
2.33305e-18
1.01626e-18
3.4047e-18
3.73588e-18
4.31166e-18
4.75937e-18
2.87059e-18
2.89876e-18
2.86645e-18
2.26463e-18
1.98535e-18
2.59844e-18
1.80488e-18
2.56973e-18
4.04511e-18
1.46709e-18
3.81428e-18
1.52738e-18
2.13987e-18
2.69517e-18
4.82174e-18
4.86814e-18
3.80258e-18
2.82528e-18
2.40974e-18
2.6172e-18
2.85014e-18
1.93856e-18
3.43379e-18
4.029e-18
3.62674e-18
2.88959e-18
2.58736e-18
2.68637e-18
2.91131e-18
2.02935e-18
3.34689e-18
4.29896e-18
3.20433e-18
3.48915e-18
2.32167e-18
2.43131e-18
3.23529e-18
2.63714e-18
4.12658e-18
4.55307e-18
3.6343e-18
3.30708e-18
2.73041e-18
1.53036e-18
4.63154e-18
1.73599e-18
6.23777e-18
-1.11262e-18
1.61364e-17
-1.0177e-17
7.53261e-18
-5.97124e-18
1.61035e-17
-9.37448e-19
1.32878e-17
-2.4388e-18
1.84159e-17
6.43504e-23
1.37306e-17
-2.26871e-18
1.8696e-17
1.20146e-19
1.36384e-17
-2.17876e-18
9.15594e-18
8.95306e-18
9.24424e-18
8.9574e-18
9.12166e-18
9.6555e-18
8.61135e-18
1.0896e-17
5.20133e-18
1.57347e-17
1.3826e-18
3.21779e-17
6.00106e-18
2.29467e-17
-7.15603e-18
2.42128e-17
-3.47943e-19
1.73655e-17
-1.0541e-17
2.25457e-17
-8.35925e-19
1.77382e-17
-1.01495e-17
2.14778e-17
-1.32436e-18
1.72085e-17
-9.87485e-18
2.17938e-17
-1.6868e-18
1.74984e-17
-1.04309e-17
2.25425e-17
-8.12777e-19
1.77172e-17
-1.06939e-17
2.22902e-17
-1.09235e-18
1.74822e-17
-1.06128e-17
2.17757e-17
-9.96932e-19
1.76847e-17
-1.03236e-17
2.17581e-17
-9.31635e-19
1.71037e-17
-1.08341e-17
2.19229e-17
-1.20318e-18
1.7776e-17
-1.14823e-17
2.18585e-17
-6.10274e-19
1.83007e-17
-1.01452e-17
2.16737e-17
-1.17105e-18
1.75452e-17
-1.08179e-17
2.15103e-17
-1.3109e-18
1.69277e-17
-1.08184e-17
2.12529e-17
-7.347e-19
1.78773e-17
-1.12852e-17
2.16706e-17
8.45295e-21
1.63538e-17
-7.31976e-18
1.63446e-17
7.94978e-18
5.77068e-18
2.58324e-18
1.4678e-18
3.39538e-18
6.13096e-18
7.41709e-18
9.05049e-18
8.88218e-18
8.61984e-18
9.30906e-18
9.44435e-18
9.80011e-18
9.97142e-18
9.26738e-18
9.19082e-18
9.42917e-18
9.29323e-18
9.1213e-18
9.37067e-18
8.85035e-18
9.18101e-18
9.75768e-18
8.88024e-18
9.42798e-18
9.07814e-18
8.99499e-18
9.11655e-18
9.84481e-18
9.89123e-18
9.64012e-18
9.45592e-18
9.0935e-18
9.26896e-18
9.23957e-18
8.89369e-18
9.28972e-18
9.5659e-18
9.486e-18
9.18263e-18
9.14263e-18
9.11373e-18
9.34853e-18
8.98336e-18
9.29992e-18
9.73722e-18
9.52163e-18
9.50565e-18
9.16787e-18
9.07489e-18
9.36171e-18
9.15647e-18
9.46005e-18
9.81387e-18
9.59283e-18
9.55072e-18
9.23755e-18
8.89709e-18
9.58285e-18
9.09909e-18
1.04058e-17
6.17709e-18
1.67479e-17
8.11108e-19
3.28574e-17
7.72928e-18
2.1908e-17
-9.22764e-18
2.28002e-17
1.25948e-20
1.74057e-17
-1.1713e-17
2.21264e-17
-6.37903e-20
1.73084e-17
-1.16207e-17
2.20841e-17
-2.58788e-19
1.70484e-17
2.49537e-17
2.47156e-17
2.50228e-17
2.44774e-17
2.50194e-17
2.46034e-17
2.50005e-17
2.51536e-17
2.11837e-17
3.33216e-17
1.21181e-17
3.63683e-17
2.43929e-17
3.07719e-17
4.29086e-18
2.46135e-17
1.23055e-17
2.16136e-17
-1.74354e-18
2.14558e-17
1.10784e-17
2.12473e-17
-1.72789e-18
2.09144e-17
1.12283e-17
2.10569e-17
-1.60778e-18
2.11786e-17
1.08629e-17
2.1143e-17
-2.04137e-18
2.10936e-17
1.14429e-17
2.14468e-17
-1.75906e-18
2.1545e-17
1.13964e-17
2.10429e-17
-1.91489e-18
2.10731e-17
1.12342e-17
2.12592e-17
-1.83316e-18
2.14464e-17
1.14838e-17
2.1016e-17
-2.73085e-18
2.14831e-17
1.16213e-17
2.15423e-17
-2.41657e-18
2.0956e-17
1.17854e-17
2.1765e-17
-2.31507e-18
2.11384e-17
1.13833e-17
2.12508e-17
-2.6255e-18
2.10324e-17
1.16453e-17
2.09556e-17
-2.36971e-18
2.07332e-17
1.14527e-17
2.14915e-17
-2.54994e-18
2.10783e-17
1.21285e-17
2.0366e-17
-1.01388e-19
1.65951e-17
2.03918e-17
9.49489e-18
1.03865e-17
1.18874e-17
1.55657e-17
2.00123e-17
2.28553e-17
2.3854e-17
2.38173e-17
2.43059e-17
2.46961e-17
2.45814e-17
2.53005e-17
2.53502e-17
2.45603e-17
2.44949e-17
2.49394e-17
2.49693e-17
2.50672e-17
2.48882e-17
2.44349e-17
2.49112e-17
2.52061e-17
2.4474e-17
2.47813e-17
2.49514e-17
2.44826e-17
2.47058e-17
2.51022e-17
2.44899e-17
2.45643e-17
2.49978e-17
2.42162e-17
2.53354e-17
2.45622e-17
2.43092e-17
2.46837e-17
2.42755e-17
2.46369e-17
2.43794e-17
2.44602e-17
2.44429e-17
2.48418e-17
2.48464e-17
2.46292e-17
2.51692e-17
2.48903e-17
2.49137e-17
2.46641e-17
2.42073e-17
2.48525e-17
2.46617e-17
2.41654e-17
2.49451e-17
2.5122e-17
2.53624e-17
2.46503e-17
2.47059e-17
2.44175e-17
2.51551e-17
2.49166e-17
2.115e-17
3.28638e-17
1.12028e-17
3.79253e-17
2.68417e-17
3.05053e-17
1.1676e-18
2.33868e-17
1.37254e-17
2.14579e-17
-3.70863e-18
2.12378e-17
1.29659e-17
2.10328e-17
-3.45184e-18
2.09986e-17
1.2561e-17
2.08974e-17
-4.00475e-18
9.38638e-18
9.32645e-18
9.48824e-18
9.22526e-18
9.743e-18
8.72401e-18
1.04559e-17
8.8638e-18
6.88835e-18
1.73053e-17
-2.29082e-18
3.63541e-17
1.2354e-17
3.33591e-17
-9.26306e-18
2.20347e-17
-2.48649e-18
2.15275e-17
-1.64634e-17
1.88233e-17
-4.58894e-18
2.09249e-17
-1.68756e-17
1.85618e-17
-4.05338e-18
2.08271e-17
-1.67111e-17
1.86154e-17
-4.05726e-18
2.08572e-17
-1.69774e-17
1.8247e-17
-3.80411e-18
2.14224e-17
-1.70157e-17
1.91899e-17
-3.63884e-18
2.09137e-17
-1.71508e-17
1.86264e-17
-3.71268e-18
2.09197e-17
-1.72133e-17
1.86837e-17
-3.95608e-18
2.05332e-17
-1.75462e-17
1.8867e-17
-3.74377e-18
2.09251e-17
-1.74078e-17
1.82721e-17
-3.49952e-18
2.11532e-17
-1.73922e-17
1.85297e-17
-3.83892e-18
2.07799e-17
-1.7433e-17
1.85058e-17
-3.5773e-18
2.06911e-17
-1.75138e-17
1.8408e-17
-3.31656e-18
2.13456e-17
-1.73428e-17
1.83708e-17
-2.96861e-18
2.02689e-17
-1.50359e-17
1.29847e-17
7.16051e-18
5.22847e-18
1.26077e-18
5.91128e-20
2.35727e-18
5.51817e-18
7.51655e-18
8.62533e-18
8.92948e-18
9.26528e-18
9.43183e-18
9.3971e-18
9.62761e-18
9.56809e-18
9.33153e-18
9.33405e-18
9.55094e-18
9.54113e-18
9.50006e-18
9.58132e-18
9.23657e-18
9.45948e-18
9.55301e-18
9.33842e-18
9.32148e-18
9.48851e-18
9.38778e-18
9.40057e-18
9.57798e-18
9.46519e-18
9.46959e-18
9.56138e-18
9.36304e-18
9.48399e-18
9.33164e-18
9.28553e-18
9.36588e-18
9.38491e-18
9.38408e-18
9.26005e-18
9.36306e-18
9.3002e-18
9.43e-18
9.3512e-18
9.4066e-18
9.47501e-18
9.54758e-18
9.45071e-18
9.41913e-18
9.37015e-18
9.40433e-18
9.38295e-18
9.35859e-18
9.4693e-18
9.49557e-18
9.56546e-18
9.29902e-18
9.64135e-18
8.79131e-18
1.05379e-17
8.4059e-18
7.79345e-18
1.6618e-17
-3.09701e-18
3.78101e-17
1.49017e-17
3.28514e-17
-1.22422e-17
2.12127e-17
-6.88611e-19
2.14745e-17
-1.88357e-17
1.86283e-17
-1.85887e-18
2.07104e-17
-1.86316e-17
1.79986e-17
-2.30789e-18
2.07586e-17
-1.8982e-17
1.90364e-17
3.54276e-18
3.51115e-18
3.61703e-18
3.39578e-18
3.91355e-18
2.70959e-18
4.9423e-18
2.51422e-18
1.70419e-18
1.12792e-17
-8.87566e-18
3.2889e-17
7.77466e-18
3.21437e-17
-1.30811e-17
1.99454e-17
-7.856e-18
1.9511e-17
-2.09109e-17
1.65556e-17
-9.48562e-18
1.89059e-17
-2.11444e-17
1.60249e-17
-9.5025e-18
1.88109e-17
-2.10578e-17
1.62869e-17
-9.10271e-18
1.89236e-17
-2.10918e-17
1.57427e-17
-9.62576e-18
1.89591e-17
-2.13651e-17
1.60994e-17
-9.14843e-18
1.91022e-17
-2.13105e-17
1.62207e-17
-8.99172e-18
1.87381e-17
-2.16506e-17
1.60138e-17
-8.94366e-18
1.84643e-17
-2.17686e-17
1.62032e-17
-9.095e-18
1.87158e-17
-2.19613e-17
1.59138e-17
-8.80516e-18
1.89918e-17
-2.19822e-17
1.61887e-17
-9.14927e-18
1.8719e-17
-2.1926e-17
1.59884e-17
-9.32693e-18
1.88227e-17
-2.19972e-17
1.6134e-17
-8.35255e-18
1.9295e-17
-2.16347e-17
1.60837e-17
-8.188e-18
1.8489e-17
-1.99825e-17
1.08617e-17
1.66142e-18
1.61863e-18
-1.76704e-18
-3.09288e-18
-1.62849e-18
6.03211e-19
2.16084e-18
3.00646e-18
3.32652e-18
3.4955e-18
3.59417e-18
3.58872e-18
3.64599e-18
3.62297e-18
3.55695e-18
3.54476e-18
3.60589e-18
3.59529e-18
3.58748e-18
3.6101e-18
3.50039e-18
3.57178e-18
3.60204e-18
3.5391e-18
3.53055e-18
3.59791e-18
3.58048e-18
3.56353e-18
3.62562e-18
3.61125e-18
3.59868e-18
3.61495e-18
3.58429e-18
3.57847e-18
3.54917e-18
3.52787e-18
3.54868e-18
3.57115e-18
3.56907e-18
3.51983e-18
3.5582e-18
3.54045e-18
3.56887e-18
3.53272e-18
3.55571e-18
3.57465e-18
3.60558e-18
3.57363e-18
3.56952e-18
3.56117e-18
3.55717e-18
3.55646e-18
3.56539e-18
3.59162e-18
3.58971e-18
3.64113e-18
3.45688e-18
3.86982e-18
2.79111e-18
5.03133e-18
1.9749e-18
2.79968e-18
1.05092e-17
-9.70166e-18
3.42428e-17
1.01934e-17
3.16564e-17
-1.59289e-17
1.95272e-17
-6.29873e-18
1.94459e-17
-2.3247e-17
1.65199e-17
-7.45473e-18
1.87587e-17
-2.3169e-17
1.5888e-17
-7.48574e-18
1.88672e-17
-2.33877e-17
1.64e-17
3.67607e-18
3.61175e-18
3.75853e-18
3.5224e-18
3.94508e-18
2.94144e-18
4.91838e-18
2.68949e-18
2.44005e-18
9.46686e-18
-5.02172e-18
2.80932e-17
7.95386e-18
2.65916e-17
-1.08921e-17
1.41206e-17
-7.02028e-18
1.45146e-17
-1.81062e-17
1.03322e-17
-8.43503e-18
1.41932e-17
-1.84123e-17
1.03787e-17
-7.97649e-18
1.42213e-17
-1.79767e-17
1.05074e-17
-8.43956e-18
1.4059e-17
-1.81909e-17
1.04308e-17
-8.5901e-18
1.39542e-17
-1.83653e-17
1.00152e-17
-8.16573e-18
1.43801e-17
-1.81283e-17
1.00283e-17
-8.24465e-18
1.40638e-17
-1.85624e-17
1.02592e-17
-7.9221e-18
1.40163e-17
-1.878e-17
1.03306e-17
-8.10455e-18
1.40995e-17
-1.88805e-17
9.83759e-18
-7.90727e-18
1.41826e-17
-1.91158e-17
1.03403e-17
-8.28628e-18
1.40944e-17
-1.89191e-17
1.01331e-17
-7.65166e-18
1.44982e-17
-1.90198e-17
1.04988e-17
-7.53417e-18
1.45842e-17
-1.86886e-17
1.06751e-17
-7.41404e-18
1.46254e-17
-1.88535e-17
8.25228e-18
-4.0273e-19
6.20113e-19
-1.80789e-18
-2.67462e-18
-1.2091e-18
8.51792e-19
2.38614e-18
3.20355e-18
3.52899e-18
3.62406e-18
3.71917e-18
3.75277e-18
3.72821e-18
3.71086e-18
3.73357e-18
3.69365e-18
3.66864e-18
3.66098e-18
3.68039e-18
3.68995e-18
3.6852e-18
3.70056e-18
3.68171e-18
3.72397e-18
3.74921e-18
3.75654e-18
3.73838e-18
3.67663e-18
3.69219e-18
3.74783e-18
3.72663e-18
3.6967e-18
3.72774e-18
3.68434e-18
3.72575e-18
3.69927e-18
3.6888e-18
3.71637e-18
3.7136e-18
3.68175e-18
3.70534e-18
3.71273e-18
3.72288e-18
3.68649e-18
3.6691e-18
3.68026e-18
3.67718e-18
3.68851e-18
3.70548e-18
3.70623e-18
3.69837e-18
3.71924e-18
3.69784e-18
3.68945e-18
3.7212e-18
3.76118e-18
3.59476e-18
3.95092e-18
2.99858e-18
4.98589e-18
2.2563e-18
3.39456e-18
8.69621e-18
-5.38275e-18
2.86377e-17
1.07963e-17
2.63998e-17
-1.31808e-17
1.29704e-17
-5.33323e-18
1.49855e-17
-2.0006e-17
1.01498e-17
-6.51759e-18
1.42991e-17
-2.01393e-17
1.01799e-17
-6.53685e-18
1.43637e-17
-2.03581e-17
1.03618e-17
-6.03222e-18
1.01234e-17
9.93948e-18
1.02306e-17
9.92785e-18
1.01447e-17
9.66708e-18
1.08523e-17
9.78751e-18
8.61594e-18
1.47608e-17
4.73338e-18
1.08431e-17
1.99151e-17
1.51979e-17
-1.78087e-18
-2.26411e-18
5.73029e-18
4.28888e-18
-8.0178e-18
-5.55716e-18
4.84906e-18
4.02946e-18
-8.30507e-18
-5.69233e-18
4.89876e-18
4.31612e-18
-7.93618e-18
-5.51423e-18
4.74578e-18
4.09901e-18
-8.24445e-18
-5.66257e-18
4.54008e-18
4.19545e-18
-8.26277e-18
-5.73511e-18
4.70121e-18
4.40971e-18
-8.24959e-18
-5.67693e-18
4.90347e-18
4.06129e-18
-8.47455e-18
-5.80078e-18
4.87269e-18
4.82936e-18
-8.44363e-18
-5.81387e-18
4.90972e-18
4.63308e-18
-8.62739e-18
-5.78536e-18
5.21723e-18
3.85943e-18
-8.8943e-18
-5.78036e-18
4.9886e-18
4.32015e-18
-8.76184e-18
-6.02109e-18
5.52194e-18
4.09232e-18
-9.02798e-18
-5.72526e-18
5.61957e-18
4.2299e-18
-8.87296e-18
-5.57587e-18
4.99579e-18
5.62842e-18
-1.07533e-17
-3.8557e-18
4.88722e-18
4.57164e-18
2.048e-18
1.47395e-18
3.67072e-18
6.35955e-18
8.40408e-18
9.55782e-18
9.98443e-18
1.0036e-17
1.0147e-17
1.02939e-17
1.01614e-17
1.01097e-17
1.02808e-17
1.01332e-17
1.0027e-17
1.00532e-17
1.01314e-17
1.01291e-17
1.01899e-17
1.01965e-17
1.00471e-17
1.02659e-17
1.03424e-17
1.02625e-17
1.02681e-17
1.0078e-17
1.00811e-17
1.02403e-17
1.02072e-17
9.98602e-18
1.01894e-17
1.00961e-17
1.02485e-17
1.02065e-17
1.01263e-17
1.01516e-17
1.01913e-17
1.01145e-17
1.01595e-17
1.01842e-17
1.02484e-17
1.02408e-17
1.00873e-17
1.01268e-17
1.0057e-17
1.011e-17
1.01751e-17
1.01918e-17
1.01321e-17
1.02189e-17
1.01217e-17
1.00628e-17
1.02025e-17
1.02079e-17
1.00597e-17
1.03352e-17
9.62429e-18
1.09091e-17
9.68986e-18
9.18444e-18
1.45154e-17
4.18989e-18
1.13444e-17
2.18225e-17
1.48621e-17
-4.11339e-18
-3.59451e-18
7.439e-18
5.06516e-18
-9.91346e-18
-5.99576e-18
6.66143e-18
4.25996e-18
-1.00999e-17
-6.00818e-18
6.55615e-18
4.95575e-18
-1.00577e-17
-5.75083e-18
6.5176e-18
4.64326e-18
2.7632e-17
2.71985e-17
2.75003e-17
2.74142e-17
2.73864e-17
2.75013e-17
2.83512e-17
2.74375e-17
2.59093e-17
3.26825e-17
2.10076e-17
3.12505e-17
2.97859e-17
2.75686e-17
9.88085e-18
1.56838e-17
1.42524e-17
1.56686e-17
4.433e-18
1.25073e-17
1.32263e-17
1.57222e-17
3.78483e-18
1.23908e-17
1.34443e-17
1.58104e-17
3.8238e-18
1.25132e-17
1.32651e-17
1.55889e-17
3.73711e-18
1.24206e-17
1.32965e-17
1.55038e-17
3.63165e-18
1.19215e-17
1.31448e-17
1.59088e-17
3.14855e-18
1.19726e-17
1.33076e-17
1.5854e-17
3.48233e-18
1.18523e-17
1.33204e-17
1.60582e-17
3.49499e-18
1.21688e-17
1.36096e-17
1.62861e-17
3.18077e-18
1.23516e-17
1.39553e-17
1.57889e-17
3.18297e-18
1.24793e-17
1.35394e-17
1.57073e-17
3.05006e-18
1.19943e-17
1.40318e-17
1.56929e-17
3.02037e-18
1.24493e-17
1.40758e-17
1.59534e-17
3.15561e-18
1.23134e-17
1.34673e-17
1.64304e-17
1.89264e-18
1.23318e-17
1.7244e-17
8.76791e-18
1.08274e-17
1.28852e-17
1.77203e-17
2.1964e-17
2.50452e-17
2.68497e-17
2.74633e-17
2.74027e-17
2.76453e-17
2.80683e-17
2.7683e-17
2.75618e-17
2.79461e-17
2.76845e-17
2.73322e-17
2.76862e-17
2.80881e-17
2.76783e-17
2.76341e-17
2.78965e-17
2.75218e-17
2.78064e-17
2.79647e-17
2.77809e-17
2.78704e-17
2.77136e-17
2.76737e-17
2.78127e-17
2.77542e-17
2.68744e-17
2.74949e-17
2.77861e-17
2.78238e-17
2.79583e-17
2.77308e-17
2.75034e-17
2.78605e-17
2.74603e-17
2.75614e-17
2.75691e-17
2.76808e-17
2.80709e-17
2.75271e-17
2.76887e-17
2.75999e-17
2.75275e-17
2.75667e-17
2.77977e-17
2.75237e-17
2.79018e-17
2.76039e-17
2.77386e-17
2.76595e-17
2.77679e-17
2.75288e-17
2.79662e-17
2.70445e-17
2.82112e-17
2.7776e-17
2.65697e-17
3.26503e-17
2.07381e-17
3.23473e-17
3.1497e-17
2.64946e-17
7.62234e-18
1.44754e-17
1.59034e-17
1.6402e-17
1.76464e-18
1.2003e-17
1.53094e-17
1.61726e-17
2.04885e-18
1.20254e-17
1.52602e-17
1.5966e-17
1.94678e-18
1.2409e-17
1.51847e-17
1.58311e-17
1.94226e-17
1.90225e-17
1.92415e-17
1.90211e-17
1.92387e-17
1.87459e-17
2.02437e-17
1.84218e-17
1.88786e-17
2.2715e-17
1.42548e-17
3.89155e-17
2.37117e-17
3.19332e-17
1.00403e-18
1.96918e-17
5.88955e-18
1.88624e-17
-6.16465e-18
1.64279e-17
4.46766e-18
1.86611e-17
-6.04773e-18
1.62476e-17
4.38888e-18
1.85094e-17
-6.18847e-18
1.61444e-17
4.14511e-18
1.83388e-17
-6.49573e-18
1.64758e-17
4.15828e-18
1.82537e-17
-6.5557e-18
1.62477e-17
4.46294e-18
1.87577e-17
-6.6676e-18
1.61666e-17
4.65652e-18
1.86768e-17
-6.60936e-18
1.58612e-17
4.4838e-18
1.88229e-17
-6.57423e-18
1.62295e-17
4.63157e-18
1.89943e-17
-7.01431e-18
1.66883e-17
5.30022e-18
1.86473e-17
-6.75727e-18
1.62751e-17
4.48901e-18
1.8249e-17
-7.13487e-18
1.64374e-17
5.09834e-18
1.86416e-17
-6.90126e-18
1.63658e-17
5.03017e-18
1.86916e-17
-7.22503e-18
1.64157e-17
4.54501e-18
1.88117e-17
-7.12989e-18
1.49307e-17
1.02129e-17
8.37473e-18
4.98392e-18
5.02023e-18
8.85968e-18
1.33431e-17
1.63793e-17
1.82481e-17
1.8946e-17
1.9207e-17
1.93246e-17
1.95853e-17
1.94476e-17
1.92191e-17
1.94863e-17
1.91656e-17
1.91983e-17
1.9062e-17
1.93023e-17
1.93495e-17
1.93476e-17
1.93242e-17
1.92177e-17
1.9489e-17
1.95016e-17
1.94858e-17
1.94423e-17
1.92781e-17
1.90979e-17
1.93243e-17
1.92266e-17
1.90543e-17
1.92517e-17
1.94522e-17
1.94074e-17
1.93293e-17
1.95161e-17
1.93413e-17
1.92284e-17
1.9369e-17
1.94105e-17
1.93154e-17
1.9439e-17
1.93107e-17
1.92117e-17
1.93879e-17
1.92124e-17
1.93022e-17
1.93908e-17
1.94802e-17
1.93384e-17
1.94477e-17
1.93592e-17
1.93446e-17
1.94611e-17
1.93626e-17
1.92295e-17
1.94748e-17
1.86084e-17
2.03485e-17
1.85281e-17
1.93208e-17
2.25947e-17
1.39304e-17
3.96359e-17
2.4787e-17
3.03779e-17
-1.78718e-18
1.86863e-17
6.98964e-18
1.90267e-17
-8.25481e-18
1.6197e-17
6.43779e-18
1.88329e-17
-8.14879e-18
1.59008e-17
6.28045e-18
1.89222e-17
-8.25683e-18
1.62355e-17
6.04768e-18
1.85349e-17
-8.31284e-18
3.08923e-17
3.09589e-17
3.05808e-17
3.0824e-17
3.12074e-17
3.04256e-17
3.22829e-17
2.98414e-17
3.19986e-17
3.29118e-17
2.62415e-17
3.5781e-17
3.62255e-17
2.99816e-17
1.48172e-17
1.6433e-17
1.75102e-17
1.64742e-17
6.57245e-18
1.30573e-17
1.64837e-17
1.63509e-17
7.10421e-18
1.28327e-17
1.60899e-17
1.62173e-17
6.63937e-18
1.27903e-17
1.61927e-17
1.60961e-17
6.69578e-18
1.29733e-17
1.60519e-17
1.61564e-17
5.99033e-18
1.28159e-17
1.63775e-17
1.65383e-17
5.96767e-18
1.30552e-17
1.63966e-17
1.63263e-17
6.39218e-18
1.28768e-17
1.65355e-17
1.6635e-17
6.25168e-18
1.29131e-17
1.65035e-17
1.66448e-17
5.97995e-18
1.29562e-17
1.69081e-17
1.63056e-17
5.92853e-18
1.26288e-17
1.66042e-17
1.60562e-17
6.20019e-18
1.27173e-17
1.69115e-17
1.63204e-17
6.27838e-18
1.27674e-17
1.65942e-17
1.64174e-17
5.68855e-18
1.25051e-17
1.65681e-17
1.69263e-17
4.97976e-18
1.35174e-17
1.90284e-17
1.08054e-17
1.25041e-17
1.46365e-17
1.95382e-17
2.45712e-17
2.75317e-17
2.94291e-17
3.03081e-17
3.11315e-17
3.13475e-17
3.14304e-17
3.14422e-17
3.10386e-17
3.12058e-17
3.06263e-17
3.07914e-17
3.04927e-17
3.10745e-17
3.09192e-17
3.144e-17
3.08671e-17
3.08605e-17
3.12778e-17
3.10459e-17
3.12842e-17
3.14103e-17
3.11565e-17
3.06851e-17
3.10937e-17
3.05865e-17
3.08462e-17
3.08062e-17
3.18572e-17
3.12107e-17
3.08137e-17
3.14794e-17
3.09888e-17
3.06716e-17
3.15051e-17
3.12022e-17
3.1035e-17
3.12318e-17
3.08512e-17
3.10054e-17
3.12704e-17
3.09434e-17
3.10837e-17
3.12761e-17
3.14377e-17
3.13532e-17
3.12458e-17
3.09627e-17
3.1296e-17
3.13725e-17
3.09763e-17
3.09807e-17
3.12901e-17
3.0049e-17
3.24675e-17
2.98366e-17
3.22792e-17
3.33587e-17
2.6023e-17
3.6313e-17
3.7619e-17
2.87609e-17
1.13827e-17
1.55139e-17
1.90473e-17
1.68857e-17
4.64308e-18
1.30896e-17
1.83391e-17
1.65359e-17
4.76656e-18
1.22966e-17
1.80192e-17
1.6732e-17
4.55825e-18
1.27164e-17
1.814e-17
1.64948e-17
4.60882e-18
1.23497e-17
2.26651e-17
2.25169e-17
2.25145e-17
2.25056e-17
2.2796e-17
2.19448e-17
2.39949e-17
2.00779e-17
2.61615e-17
1.84101e-17
2.99707e-17
2.35089e-17
3.76527e-17
2.06583e-17
1.05538e-17
-3.65918e-19
1.67185e-17
6.08451e-18
2.59209e-18
-3.72437e-18
1.54812e-17
5.58273e-18
2.72914e-18
-3.66793e-18
1.55408e-17
5.69797e-18
2.50837e-18
-3.77335e-18
1.55635e-17
5.67836e-18
2.41366e-18
-3.89132e-18
1.54242e-17
5.73754e-18
2.22098e-18
-3.85289e-18
1.56488e-17
5.9635e-18
2.29773e-18
-3.67928e-18
1.58172e-17
5.58111e-18
2.13367e-18
-3.97702e-18
1.5962e-17
6.33687e-18
2.28276e-18
-3.91907e-18
1.5932e-17
6.27013e-18
2.10176e-18
-3.8806e-18
1.60513e-17
5.39265e-18
1.97522e-18
-3.89678e-18
1.58714e-17
5.60395e-18
2.06685e-18
-3.90733e-18
1.62057e-17
5.72573e-18
1.82906e-18
-4.01297e-18
1.5905e-17
6.08154e-18
1.92315e-18
-3.93263e-18
1.57134e-17
7.28803e-18
-7.87288e-19
-3.90428e-19
1.21179e-17
1.12317e-17
7.55e-18
7.55022e-18
1.1335e-17
1.60584e-17
1.92461e-17
2.11824e-17
2.19197e-17
2.2572e-17
2.25544e-17
2.28069e-17
2.27625e-17
2.25316e-17
2.26369e-17
2.23959e-17
2.2722e-17
2.24714e-17
2.27231e-17
2.26175e-17
2.25482e-17
2.25836e-17
2.26813e-17
2.27543e-17
2.25219e-17
2.26056e-17
2.27273e-17
2.26024e-17
2.23852e-17
2.25204e-17
2.2429e-17
2.25122e-17
2.24387e-17
2.29005e-17
2.28517e-17
2.2493e-17
2.28866e-17
2.28016e-17
2.25065e-17
2.25692e-17
2.26226e-17
2.24151e-17
2.25757e-17
2.23693e-17
2.23665e-17
2.26032e-17
2.2566e-17
2.26513e-17
2.26542e-17
2.26915e-17
2.26066e-17
2.26528e-17
2.26881e-17
2.27403e-17
2.26862e-17
2.2504e-17
2.25396e-17
2.27161e-17
2.18912e-17
2.3924e-17
2.01173e-17
2.63102e-17
1.81788e-17
2.96643e-17
2.41036e-17
3.92827e-17
1.94664e-17
7.33437e-18
-1.45792e-18
1.84724e-17
5.92996e-18
7.7642e-19
-4.06237e-18
1.74498e-17
6.18031e-18
6.27748e-19
-4.2124e-18
1.72184e-17
6.67867e-18
9.21478e-19
-3.94255e-18
1.73214e-17
6.34057e-18
7.07601e-19
-4.20721e-18
1.75286e-17
3.9616e-17
3.973e-17
3.97722e-17
3.95322e-17
3.98501e-17
3.94385e-17
3.98559e-17
3.8628e-17
4.03858e-17
4.0134e-17
3.85249e-17
3.95387e-17
4.38089e-17
3.07172e-17
2.04675e-17
1.74194e-17
2.46995e-17
1.76244e-17
1.37489e-17
1.42722e-17
2.35822e-17
1.74856e-17
1.3807e-17
1.44666e-17
2.37606e-17
1.73067e-17
1.41475e-17
1.44994e-17
2.38542e-17
1.71901e-17
1.33575e-17
1.40478e-17
2.37313e-17
1.71156e-17
1.37867e-17
1.41832e-17
2.39343e-17
1.72557e-17
1.37405e-17
1.46672e-17
2.40802e-17
1.74501e-17
1.36775e-17
1.42435e-17
2.43057e-17
1.76784e-17
1.34898e-17
1.46419e-17
2.44811e-17
1.7645e-17
1.38012e-17
1.44525e-17
2.41287e-17
1.7278e-17
1.31799e-17
1.43788e-17
2.39963e-17
1.74294e-17
1.33912e-17
1.42466e-17
2.43436e-17
1.75118e-17
1.28879e-17
1.42511e-17
2.43218e-17
1.76024e-17
1.32063e-17
1.43647e-17
2.4087e-17
1.84307e-17
1.15787e-17
1.55333e-17
2.43029e-17
1.53111e-17
1.5654e-17
1.89098e-17
2.52015e-17
3.12238e-17
3.56455e-17
3.79842e-17
3.85776e-17
3.96606e-17
3.95015e-17
3.97416e-17
3.96122e-17
3.97646e-17
3.92311e-17
3.95086e-17
4.00792e-17
3.95781e-17
4.0021e-17
3.96847e-17
3.95393e-17
3.98604e-17
3.99729e-17
4.014e-17
3.93701e-17
3.93536e-17
3.97071e-17
3.94389e-17
3.92316e-17
3.953e-17
3.96891e-17
3.95246e-17
3.94164e-17
3.99389e-17
4.00603e-17
3.94017e-17
3.95945e-17
3.98788e-17
3.96287e-17
3.92847e-17
3.94588e-17
3.91903e-17
3.98523e-17
3.95349e-17
3.90181e-17
3.94335e-17
3.95574e-17
3.95745e-17
3.94434e-17
3.95756e-17
3.95173e-17
3.96059e-17
3.97047e-17
3.97027e-17
3.9536e-17
3.93499e-17
3.95549e-17
3.95059e-17
3.9455e-17
3.96536e-17
3.87622e-17
4.02404e-17
3.95591e-17
3.8194e-17
4.00842e-17
4.51372e-17
2.95786e-17
1.75921e-17
1.63497e-17
2.65822e-17
1.7837e-17
1.22415e-17
1.42806e-17
2.5526e-17
1.76558e-17
1.20946e-17
1.42083e-17
2.55998e-17
1.78271e-17
1.19984e-17
1.43797e-17
2.56493e-17
1.75602e-17
1.20669e-17
1.41296e-17
2.58573e-17
4.40387e-17
4.41664e-17
4.37374e-17
4.3862e-17
4.38395e-17
4.38011e-17
4.36284e-17
4.4086e-17
4.3486e-17
4.65188e-17
4.19102e-17
4.43693e-17
4.54186e-17
3.24727e-17
2.18066e-17
2.25156e-17
2.78384e-17
2.12778e-17
1.60417e-17
1.98978e-17
2.68819e-17
2.10712e-17
1.60445e-17
1.99494e-17
2.68042e-17
2.07391e-17
1.65377e-17
1.98561e-17
2.72571e-17
2.04598e-17
1.60112e-17
2.00594e-17
2.73698e-17
2.07834e-17
1.5911e-17
2.00923e-17
2.70674e-17
2.08527e-17
1.58292e-17
2.0125e-17
2.73869e-17
2.0922e-17
1.58334e-17
1.99021e-17
2.73644e-17
2.08996e-17
1.55755e-17
1.97426e-17
2.7664e-17
2.11255e-17
1.62181e-17
2.02569e-17
2.74975e-17
2.07315e-17
1.55816e-17
2.00136e-17
2.74076e-17
2.10373e-17
1.5179e-17
1.96965e-17
2.75428e-17
2.08869e-17
1.56085e-17
1.98367e-17
2.75923e-17
2.11483e-17
1.55406e-17
2.00138e-17
2.72547e-17
2.14073e-17
1.45667e-17
1.97651e-17
2.93052e-17
1.74889e-17
1.8134e-17
2.08027e-17
2.82766e-17
3.47484e-17
4.01669e-17
4.22752e-17
4.3397e-17
4.4021e-17
4.35043e-17
4.43666e-17
4.40512e-17
4.40813e-17
4.37446e-17
4.33779e-17
4.39921e-17
4.39804e-17
4.40272e-17
4.38782e-17
4.36446e-17
4.36589e-17
4.41887e-17
4.40966e-17
4.36212e-17
4.36234e-17
4.41974e-17
4.41385e-17
4.41387e-17
4.32026e-17
4.451e-17
4.39541e-17
4.39573e-17
4.38156e-17
4.41817e-17
4.38548e-17
4.41354e-17
4.41444e-17
4.4001e-17
4.33358e-17
4.36023e-17
4.37932e-17
4.396e-17
4.39925e-17
4.34074e-17
4.36437e-17
4.40092e-17
4.39587e-17
4.39822e-17
4.40026e-17
4.36824e-17
4.42055e-17
4.38594e-17
4.44956e-17
4.32661e-17
4.373e-17
4.40091e-17
4.41689e-17
4.45965e-17
4.33082e-17
4.40063e-17
4.26786e-17
4.63663e-17
4.07732e-17
4.45214e-17
4.64455e-17
3.14644e-17
1.91038e-17
2.14291e-17
2.94271e-17
2.11611e-17
1.38097e-17
2.01215e-17
2.87899e-17
2.09265e-17
1.44019e-17
1.96519e-17
2.86315e-17
2.08946e-17
1.43422e-17
2.00587e-17
2.87757e-17
2.09488e-17
1.43367e-17
1.98025e-17
2.88619e-17
2.10615e-17
3.77878e-17
3.79654e-17
3.74223e-17
3.76496e-17
3.75811e-17
3.7798e-17
3.76336e-17
3.75116e-17
3.6989e-17
3.96395e-17
3.52847e-17
3.74502e-17
3.837e-17
2.70994e-17
1.93161e-17
2.00268e-17
2.33616e-17
1.76952e-17
1.4201e-17
1.67641e-17
2.23989e-17
1.70479e-17
1.45643e-17
1.73904e-17
2.23625e-17
1.69811e-17
1.40653e-17
1.71836e-17
2.27124e-17
1.67053e-17
1.43212e-17
1.74005e-17
2.29168e-17
1.70776e-17
1.38491e-17
1.73514e-17
2.24793e-17
1.71407e-17
1.39882e-17
1.69277e-17
2.27261e-17
1.71598e-17
1.38486e-17
1.72997e-17
2.26488e-17
1.70034e-17
1.40667e-17
1.70345e-17
2.28235e-17
1.74262e-17
1.36874e-17
1.73928e-17
2.28862e-17
1.70467e-17
1.35633e-17
1.70939e-17
2.2867e-17
1.72238e-17
1.32387e-17
1.66389e-17
2.29968e-17
1.72272e-17
1.36664e-17
1.70734e-17
2.31775e-17
1.7237e-17
1.3842e-17
1.68272e-17
2.23998e-17
1.76103e-17
1.26489e-17
1.7283e-17
2.45589e-17
1.41685e-17
1.5981e-17
1.84022e-17
2.46369e-17
3.00899e-17
3.4749e-17
3.62877e-17
3.68543e-17
3.73436e-17
3.73145e-17
3.76171e-17
3.74532e-17
3.74106e-17
3.76207e-17
3.71189e-17
3.75335e-17
3.75989e-17
3.76446e-17
3.71422e-17
3.71905e-17
3.72174e-17
3.75717e-17
3.75857e-17
3.76634e-17
3.73024e-17
3.78015e-17
3.78769e-17
3.75033e-17
3.7296e-17
3.77136e-17
3.7366e-17
3.75135e-17