/*--------------------------------*- C++ -*----------------------------------*\
| =========                 |                                                 |
| \\      /  F ield         | OpenFOAM: The Open Source CFD Toolbox           |
|  \\    /   O peration     | Version:  2512                                  |
|   \\  /    A nd           | Website:  www.openfoam.com                      |
|    \\/     M anipulation  |                                                 |
\*---------------------------------------------------------------------------*/
FoamFile
{
    version     2.0;
    format      ascii;
    arch        "LSB;label=32;scalar=64";
    class       volVectorField;
    location    "0.1";
    object      B;
}
// * * * * * * * * * * * * * * * * * * * * * * * * * * * * * * * * * * * * * //

dimensions      [1 0 -2 0 0 -1 0];

internalField   nonuniform List<vector> 
8333
(
(0.000226464 20 2.2654e-20)
(0.00022648 20 2.2593e-20)
(0.000226496 20 2.2587e-20)
(0.000226514 20 2.2622e-20)
(0.000226532 20 2.2549e-20)
(0.000226548 20 2.26234e-20)
(0.000226564 20 2.24052e-20)
(0.00022658 20 2.2462e-20)
(0.000226596 20 2.24697e-20)
(0.000226612 20 1.93677e-20)
(0.000226628 20 2.17086e-20)
(0.000226643 20 1.22463e-20)
(0.000226659 20 1.24375e-20)
(0.000226674 20 8.40682e-21)
(0.000226689 20 9.67406e-21)
(0.000226704 20 -5.25286e-22)
(0.000226719 20 -2.42751e-22)
(0.000226734 20 -3.02278e-21)
(0.000226749 20 3.03193e-22)
(0.000226763 20 -7.86239e-21)
(0.000226778 20 -5.86648e-21)
(0.000226792 20 -7.16972e-21)
(0.000226806 20 -2.77049e-21)
(0.00022682 20 -1.01223e-20)
(0.000226833 20 -7.57165e-21)
(0.000226847 20 -8.62011e-21)
(0.000226861 20 -3.96633e-21)
(0.000226874 20 -1.11988e-20)
(0.000226887 20 -8.35007e-21)
(0.0002269 20 -9.17821e-21)
(0.000226913 20 -4.42637e-21)
(0.000226926 20 -1.16163e-20)
(0.000226938 20 -8.79206e-21)
(0.000226951 20 -9.36459e-21)
(0.000226963 20 -4.57454e-21)
(0.000226975 20 -1.18154e-20)
(0.000226988 20 -8.83328e-21)
(0.000226999 20 -9.48709e-21)
(0.000227011 20 -4.65004e-21)
(0.000227023 20 -1.18575e-20)
(0.000227034 20 -9.10385e-21)
(0.000227046 20 -9.55181e-21)
(0.000227057 20 -4.65297e-21)
(0.000227068 20 -1.18513e-20)
(0.000227079 20 -8.91421e-21)
(0.000227089 20 -9.49191e-21)
(0.0002271 20 -4.78767e-21)
(0.00022711 20 -1.20261e-20)
(0.000227121 20 -9.05547e-21)
(0.000227131 20 -9.58733e-21)
(0.000227141 20 -4.67314e-21)
(0.00022715 20 -1.19086e-20)
(0.00022716 20 -9.05954e-21)
(0.00022717 20 -9.50107e-21)
(0.000227179 20 -4.71939e-21)
(0.000227188 20 -1.1928e-20)
(0.000227197 20 -8.88881e-21)
(0.000227206 20 -9.37606e-21)
(0.000227215 20 -4.55567e-21)
(0.000227224 20 -1.1916e-20)
(0.000227232 20 -8.85274e-21)
(0.00022724 20 -9.01277e-21)
(0.000227249 20 -4.18538e-21)
(0.000227257 20 -1.13351e-20)
(0.000227265 20 -8.12164e-21)
(0.000227272 20 -8.13102e-21)
(0.00022728 20 -3.48031e-21)
(0.000227287 20 -9.20719e-21)
(0.000227294 20 -8.4116e-21)
(0.000227302 20 -1.18164e-21)
(0.000227308 20 -5.66011e-21)
(0.000227315 20 7.37542e-22)
(0.000227322 20 -3.81374e-21)
(0.000227328 20 -4.60069e-21)
(0.000227335 20 -1.60555e-21)
(0.000227341 20 3.97712e-21)
(0.000227347 20 9.79087e-21)
(0.000227353 20 1.41857e-20)
(0.000227358 20 1.70338e-20)
(0.000227364 20 1.87238e-20)
(0.000227369 20 1.97006e-20)
(0.000227375 20 2.03119e-20)
(0.00022738 20 2.07482e-20)
(0.000227385 20 2.10865e-20)
(0.000227389 20 2.13195e-20)
(0.000227394 20 2.15049e-20)
(0.000227398 20 2.16715e-20)
(0.000227403 20 2.18131e-20)
(0.000227407 20 2.19336e-20)
(0.000227411 20 2.20104e-20)
(0.000227415 20 2.20611e-20)
(0.000227418 20 2.21135e-20)
(0.000227422 20 2.21709e-20)
(0.000227425 20 2.22072e-20)
(0.000227428 20 2.21702e-20)
(0.000227431 20 2.21721e-20)
(0.000227434 20 2.22239e-20)
(0.000227437 20 2.22735e-20)
(0.00022744 20 2.23051e-20)
(0.000227442 20 2.23301e-20)
(0.000227444 20 2.23562e-20)
(0.000227446 20 2.23933e-20)
(0.000227448 20 2.24156e-20)
(0.00022745 20 2.24548e-20)
(0.000227452 20 2.24535e-20)
(0.000227453 20 2.24949e-20)
(0.000227454 20 2.25223e-20)
(0.000227455 20 2.25086e-20)
(0.000227456 20 2.24948e-20)
(0.000227457 20 2.25079e-20)
(0.000227458 20 2.24615e-20)
(0.000227458 20 2.24327e-20)
(0.000227459 20 2.24448e-20)
(0.000227459 20 2.24523e-20)
(0.000227459 20 2.24876e-20)
(0.000227458 20 2.24934e-20)
(0.000227458 20 2.24903e-20)
(0.000227458 20 2.24735e-20)
(0.000227457 20 2.24416e-20)
(0.000227456 20 2.24602e-20)
(0.000227455 20 2.25295e-20)
(0.000227454 20 2.25475e-20)
(0.000227453 20 2.25911e-20)
(0.000227451 20 2.26036e-20)
(0.000227449 20 2.26072e-20)
(0.000227448 20 2.25883e-20)
(0.000227446 20 2.25474e-20)
(0.000227444 20 2.25563e-20)
(0.000227441 20 2.2505e-20)
(0.000227439 20 2.23717e-20)
(0.000227436 20 2.23551e-20)
(0.000227433 20 2.21348e-20)
(0.00022743 20 2.22105e-20)
(0.000227427 20 2.19636e-20)
(0.000227424 20 1.92457e-20)
(0.000227421 20 2.1556e-20)
(0.000227417 20 1.10895e-20)
(0.000227413 20 1.14021e-20)
(0.000227409 20 8.21178e-21)
(0.000227405 20 9.38839e-21)
(0.000227401 20 -1.69518e-21)
(0.000227396 20 -1.60469e-21)
(0.000227392 20 -3.4629e-21)
(0.000227387 20 1.60008e-24)
(0.000227382 20 -9.05638e-21)
(0.000227377 20 -6.73725e-21)
(0.000227372 20 -7.1943e-21)
(0.000227367 20 -2.90262e-21)
(0.00022736 20 -1.14478e-20)
(0.000413122 20 6.73873e-20)
(0.000413064 20 6.71964e-20)
(0.000413002 20 6.71783e-20)
(0.000412944 20 6.73056e-20)
(0.000412888 20 6.7038e-20)
(0.000412833 20 6.73858e-20)
(0.000412777 20 6.64152e-20)
(0.000412721 20 6.73777e-20)
(0.000412665 20 6.58919e-20)
(0.000412609 20 5.94038e-20)
(0.000412553 20 6.27258e-20)
(0.000412497 20 3.7463e-20)
(0.000412441 20 3.7697e-20)
(0.000412384 20 2.47503e-20)
(0.000412328 20 2.29385e-20)
(0.000412271 20 -4.19116e-21)
(0.000412214 20 -2.47975e-21)
(0.000412157 20 -1.03427e-20)
(0.0004121 20 -5.35684e-21)
(0.000412043 20 -2.60518e-20)
(0.000411986 20 -1.90181e-20)
(0.000411928 20 -2.26502e-20)
(0.000411871 20 -1.4522e-20)
(0.000411813 20 -3.2833e-20)
(0.000411755 20 -2.41782e-20)
(0.000411697 20 -2.70048e-20)
(0.000411639 20 -1.8043e-20)
(0.000411581 20 -3.59673e-20)
(0.000411522 20 -2.64372e-20)
(0.000411464 20 -2.86243e-20)
(0.000411405 20 -1.9444e-20)
(0.000411346 20 -3.72102e-20)
(0.000411287 20 -2.77299e-20)
(0.000411228 20 -2.92644e-20)
(0.000411169 20 -1.98847e-20)
(0.000411109 20 -3.78247e-20)
(0.00041105 20 -2.79129e-20)
(0.00041099 20 -2.96277e-20)
(0.00041093 20 -2.00937e-20)
(0.00041087 20 -3.78172e-20)
(0.00041081 20 -2.85987e-20)
(0.00041075 20 -2.98045e-20)
(0.000410689 20 -2.01008e-20)
(0.000410629 20 -3.78723e-20)
(0.000410568 20 -2.81103e-20)
(0.000410507 20 -2.96242e-20)
(0.000410446 20 -2.04817e-20)
(0.000410385 20 -3.83516e-20)
(0.000410324 20 -2.8493e-20)
(0.000410262 20 -2.98764e-20)
(0.000410201 20 -2.01697e-20)
(0.000410139 20 -3.79949e-20)
(0.000410077 20 -2.84704e-20)
(0.000410015 20 -2.96921e-20)
(0.000409953 20 -2.033e-20)
(0.00040989 20 -3.8119e-20)
(0.000409828 20 -2.80518e-20)
(0.000409765 20 -2.92909e-20)
(0.000409703 20 -1.98023e-20)
(0.00040964 20 -3.79867e-20)
(0.000409577 20 -2.78386e-20)
(0.000409513 20 -2.8295e-20)
(0.00040945 20 -1.87164e-20)
(0.000409386 20 -3.63374e-20)
(0.000409323 20 -2.5746e-20)
(0.000409259 20 -2.57097e-20)
(0.000409195 20 -1.64071e-20)
(0.000409131 20 -3.03463e-20)
(0.000409067 20 -2.52751e-20)
(0.000409002 20 -7.61768e-21)
(0.000408938 20 -1.9515e-20)
(0.000408873 20 -1.9581e-21)
(0.000408808 20 -1.53053e-20)
(0.000408743 20 -1.28609e-20)
(0.000408678 20 -1.33712e-21)
(0.000408613 20 1.52293e-20)
(0.000408547 20 3.1384e-20)
(0.000408482 20 4.33681e-20)
(0.000408416 20 5.1189e-20)
(0.00040835 20 5.59075e-20)
(0.000408284 20 5.86814e-20)
(0.000408218 20 6.04491e-20)
(0.000408151 20 6.17307e-20)
(0.000408085 20 6.27364e-20)
(0.000408018 20 6.34215e-20)
(0.000407951 20 6.39691e-20)
(0.000407884 20 6.44649e-20)
(0.000407817 20 6.48861e-20)
(0.00040775 20 6.52481e-20)
(0.000407682 20 6.5474e-20)
(0.000407615 20 6.56212e-20)
(0.000407547 20 6.57767e-20)
(0.000407479 20 6.59508e-20)
(0.000407411 20 6.60659e-20)
(0.000407343 20 6.59421e-20)
(0.000407274 20 6.59459e-20)
(0.000407206 20 6.61062e-20)
(0.000407137 20 6.62559e-20)
(0.000407068 20 6.63476e-20)
(0.000406999 20 6.64211e-20)
(0.00040693 20 6.6497e-20)
(0.000406861 20 6.66103e-20)
(0.000406791 20 6.6673e-20)
(0.000406722 20 6.67982e-20)
(0.000406652 20 6.67833e-20)
(0.000406582 20 6.69136e-20)
(0.000406512 20 6.69992e-20)
(0.000406442 20 6.69524e-20)
(0.000406371 20 6.69076e-20)
(0.000406301 20 6.69568e-20)
(0.00040623 20 6.68095e-20)
(0.000406159 20 6.67209e-20)
(0.000406088 20 6.67631e-20)
(0.000406017 20 6.67814e-20)
(0.000405945 20 6.68931e-20)
(0.000405874 20 6.69075e-20)
(0.000405802 20 6.68985e-20)
(0.00040573 20 6.68492e-20)
(0.000405658 20 6.67465e-20)
(0.000405586 20 6.68004e-20)
(0.000405514 20 6.70187e-20)
(0.000405442 20 6.70635e-20)
(0.000405369 20 6.72014e-20)
(0.000405296 20 6.7237e-20)
(0.000405223 20 6.72491e-20)
(0.00040515 20 6.71916e-20)
(0.000405077 20 6.70607e-20)
(0.000405004 20 6.71007e-20)
(0.00040493 20 6.69524e-20)
(0.000404856 20 6.65193e-20)
(0.000404782 20 6.65595e-20)
(0.000404708 20 6.56597e-20)
(0.000404634 20 6.65534e-20)
(0.00040456 20 6.44726e-20)
(0.000404486 20 5.89807e-20)
(0.000404411 20 6.22258e-20)
(0.000404336 20 3.42872e-20)
(0.000404261 20 3.45692e-20)
(0.000404186 20 2.36455e-20)
(0.000404111 20 2.17085e-20)
(0.000404036 20 -7.40804e-21)
(0.00040396 20 -6.25306e-21)
(0.000403885 20 -1.19642e-20)
(0.000403809 20 -6.48124e-21)
(0.000403734 20 -2.93248e-20)
(0.000403657 20 -2.14735e-20)
(0.000403581 20 -2.31068e-20)
(0.000403508 20 -1.51359e-20)
(0.000403429 20 -3.64158e-20)
(0.000473919 20 1.11891e-19)
(0.000473819 20 1.11543e-19)
(0.000473715 20 1.11512e-19)
(0.000473613 20 1.1181e-19)
(0.000473515 20 1.11174e-19)
(0.000473417 20 1.12224e-19)
(0.000473319 20 1.09451e-19)
(0.000473222 20 1.13747e-19)
(0.000473124 20 1.06524e-19)
(0.000473027 20 1.03787e-19)
(0.000472929 20 9.93071e-20)
(0.000472832 20 6.61127e-20)
(0.000472734 20 6.10417e-20)
(0.000472636 20 3.89832e-20)
(0.000472538 20 2.24067e-20)
(0.00047244 20 -1.26614e-20)
(0.000472342 20 -1.21313e-20)
(0.000472244 20 -2.23193e-20)
(0.000472145 20 -2.57101e-20)
(0.000472047 20 -4.91877e-20)
(0.000471948 20 -3.91826e-20)
(0.000471849 20 -4.25499e-20)
(0.000471751 20 -4.08794e-20)
(0.000471651 20 -6.05205e-20)
(0.000471552 20 -4.78729e-20)
(0.000471453 20 -4.98925e-20)
(0.000471353 20 -4.66886e-20)
(0.000471254 20 -6.55346e-20)
(0.000471154 20 -5.15643e-20)
(0.000471054 20 -5.25322e-20)
(0.000470954 20 -4.91147e-20)
(0.000470854 20 -6.7615e-20)
(0.000470754 20 -5.36428e-20)
(0.000470653 20 -5.37297e-20)
(0.000470553 20 -4.98671e-20)
(0.000470452 20 -6.86926e-20)
(0.000470351 20 -5.41193e-20)
(0.00047025 20 -5.43938e-20)
(0.000470149 20 -5.02019e-20)
(0.000470048 20 -6.84922e-20)
(0.000469947 20 -5.48996e-20)
(0.000469845 20 -5.45094e-20)
(0.000469743 20 -5.01716e-20)
(0.000469642 20 -6.86471e-20)
(0.00046954 20 -5.43145e-20)
(0.000469438 20 -5.43583e-20)
(0.000469335 20 -5.08019e-20)
(0.000469233 20 -6.93578e-20)
(0.00046913 20 -5.49054e-20)
(0.000469028 20 -5.46739e-20)
(0.000468925 20 -5.02789e-20)
(0.000468822 20 -6.87593e-20)
(0.000468719 20 -5.47171e-20)
(0.000468616 20 -5.44811e-20)
(0.000468512 20 -5.063e-20)
(0.000468409 20 -6.90677e-20)
(0.000468305 20 -5.43028e-20)
(0.000468201 20 -5.38198e-20)
(0.000468097 20 -4.97057e-20)
(0.000467993 20 -6.86235e-20)
(0.000467889 20 -5.36699e-20)
(0.000467784 20 -5.2368e-20)
(0.00046768 20 -4.79863e-20)
(0.000467575 20 -6.60872e-20)
(0.00046747 20 -5.04254e-20)
(0.000467365 20 -4.8228e-20)
(0.00046726 20 -4.35727e-20)
(0.000467155 20 -5.72805e-20)
(0.00046705 20 -4.60082e-20)
(0.000466944 20 -2.49705e-20)
(0.000466838 20 -3.99904e-20)
(0.000466732 20 -1.49508e-20)
(0.000466626 20 -3.32329e-20)
(0.00046652 20 -1.778e-20)
(0.000466414 20 6.81969e-21)
(0.000466308 20 3.41187e-20)
(0.000466201 20 5.81974e-20)
(0.000466094 20 7.52977e-20)
(0.000465987 20 8.65231e-20)
(0.00046588 20 9.34752e-20)
(0.000465773 20 9.76829e-20)
(0.000465666 20 1.00459e-19)
(0.000465558 20 1.02535e-19)
(0.000465451 20 1.04206e-19)
(0.000465343 20 1.05316e-19)
(0.000465235 20 1.06213e-19)
(0.000465127 20 1.07038e-19)
(0.000465019 20 1.07736e-19)
(0.00046491 20 1.08349e-19)
(0.000464802 20 1.08716e-19)
(0.000464693 20 1.08947e-19)
(0.000464584 20 1.09206e-19)
(0.000464475 20 1.09505e-19)
(0.000464366 20 1.09721e-19)
(0.000464257 20 1.09466e-19)
(0.000464147 20 1.09469e-19)
(0.000464038 20 1.09758e-19)
(0.000463928 20 1.10014e-19)
(0.000463818 20 1.10158e-19)
(0.000463708 20 1.10277e-19)
(0.000463598 20 1.10399e-19)
(0.000463487 20 1.10597e-19)
(0.000463377 20 1.10686e-19)
(0.000463266 20 1.10924e-19)
(0.000463155 20 1.1086e-19)
(0.000463044 20 1.11102e-19)
(0.000462933 20 1.11258e-19)
(0.000462822 20 1.1116e-19)
(0.00046271 20 1.11074e-19)
(0.000462599 20 1.11192e-19)
(0.000462487 20 1.10913e-19)
(0.000462375 20 1.10757e-19)
(0.000462263 20 1.1085e-19)
(0.000462151 20 1.10864e-19)
(0.000462038 20 1.11074e-19)
(0.000461926 20 1.11088e-19)
(0.000461813 20 1.11074e-19)
(0.0004617 20 1.10994e-19)
(0.000461587 20 1.10797e-19)
(0.000461474 20 1.10884e-19)
(0.000461361 20 1.1129e-19)
(0.000461248 20 1.11329e-19)
(0.000461134 20 1.11587e-19)
(0.00046102 20 1.11638e-19)
(0.000460906 20 1.11665e-19)
(0.000460792 20 1.11566e-19)
(0.000460678 20 1.11316e-19)
(0.000460564 20 1.11432e-19)
(0.000460449 20 1.11203e-19)
(0.000460335 20 1.10345e-19)
(0.00046022 20 1.10749e-19)
(0.000460105 20 1.08358e-19)
(0.00045999 20 1.12163e-19)
(0.000459874 20 1.04339e-19)
(0.000459759 20 1.03058e-19)
(0.000459644 20 9.83064e-20)
(0.000459528 20 6.14114e-20)
(0.000459412 20 5.58082e-20)
(0.000459296 20 3.59339e-20)
(0.00045918 20 1.93439e-20)
(0.000459064 20 -1.77427e-20)
(0.000458947 20 -1.77394e-20)
(0.000458831 20 -2.54293e-20)
(0.000458714 20 -2.8124e-20)
(0.000458597 20 -5.40085e-20)
(0.00045848 20 -4.29145e-20)
(0.000458363 20 -4.41666e-20)
(0.000458248 20 -4.26266e-20)
(0.00045813 20 -6.57364e-20)
(0.000458016 20 -5.34783e-20)
(0.000484266 20 1.55868e-19)
(0.000484152 20 1.55317e-19)
(0.000484035 20 1.55268e-19)
(0.00048392 20 1.55892e-19)
(0.000483807 20 1.54539e-19)
(0.000483694 20 1.57126e-19)
(0.000483582 20 1.50534e-19)
(0.000483471 20 1.62696e-19)
(0.000483359 20 1.41796e-19)
(0.000483248 20 1.56575e-19)
(0.000483136 20 1.24723e-19)
(0.000483025 20 1.11029e-19)
(0.000482913 20 5.49357e-20)
(0.000482801 20 3.9807e-20)
(0.000482689 20 -7.02672e-21)
(0.000482577 20 -1.76911e-20)
(0.000482465 20 -5.73838e-20)
(0.000482353 20 -5.07661e-20)
(0.00048224 20 -7.59689e-20)
(0.000482128 20 -6.8995e-20)
(0.000482015 20 -9.53942e-20)
(0.000481902 20 -7.86752e-20)
(0.000481789 20 -9.69227e-20)
(0.000481676 20 -8.49379e-20)
(0.000481563 20 -1.07696e-19)
(0.00048145 20 -8.90247e-20)
(0.000481337 20 -1.05022e-19)
(0.000481223 20 -9.14159e-20)
(0.000481109 20 -1.12834e-19)
(0.000480996 20 -9.28192e-20)
(0.000480882 20 -1.08704e-19)
(0.000480768 20 -9.43842e-20)
(0.000480654 20 -1.15365e-19)
(0.000480539 20 -9.4677e-20)
(0.000480425 20 -1.0977e-19)
(0.00048031 20 -9.58851e-20)
(0.000480195 20 -1.17045e-19)
(0.000480081 20 -9.5908e-20)
(0.000479966 20 -1.10155e-19)
(0.00047985 20 -9.56266e-20)
(0.000479735 20 -1.16609e-19)
(0.00047962 20 -9.53491e-20)
(0.000479504 20 -1.09995e-19)
(0.000479389 20 -9.56949e-20)
(0.000479273 20 -1.16781e-19)
(0.000479157 20 -9.57009e-20)
(0.000479041 20 -1.10989e-19)
(0.000478924 20 -9.65154e-20)
(0.000478808 20 -1.17322e-19)
(0.000478692 20 -9.60006e-20)
(0.000478575 20 -1.10169e-19)
(0.000478458 20 -9.57426e-20)
(0.000478341 20 -1.16835e-19)
(0.000478224 20 -9.57994e-20)
(0.000478107 20 -1.10826e-19)
(0.00047799 20 -9.61778e-20)
(0.000477872 20 -1.16834e-19)
(0.000477754 20 -9.5023e-20)
(0.000477637 20 -1.0958e-19)
(0.000477519 20 -9.51251e-20)
(0.000477401 20 -1.15425e-19)
(0.000477283 20 -9.34752e-20)
(0.000477164 20 -1.07369e-19)
(0.000477046 20 -9.19358e-20)
(0.000476927 20 -1.11597e-19)
(0.000476808 20 -8.80631e-20)
(0.000476689 20 -9.99899e-20)
(0.00047657 20 -8.21383e-20)
(0.000476451 20 -9.83054e-20)
(0.000476332 20 -7.14497e-20)
(0.000476212 20 -7.04653e-20)
(0.000476093 20 -5.43869e-20)
(0.000475973 20 -3.5177e-20)
(0.000475853 20 -5.23957e-21)
(0.000475733 20 3.06743e-20)
(0.000475613 20 6.4719e-20)
(0.000475492 20 9.22062e-20)
(0.000475372 20 1.10748e-19)
(0.000475251 20 1.23214e-19)
(0.00047513 20 1.31336e-19)
(0.000475009 20 1.36488e-19)
(0.000474888 20 1.40069e-19)
(0.000474767 20 1.42874e-19)
(0.000474646 20 1.45219e-19)
(0.000474524 20 1.4671e-19)
(0.000474403 20 1.47939e-19)
(0.000474281 20 1.49094e-19)
(0.000474159 20 1.50064e-19)
(0.000474037 20 1.5095e-19)
(0.000473914 20 1.5144e-19)
(0.000473792 20 1.51735e-19)
(0.000473669 20 1.521e-19)
(0.000473547 20 1.52536e-19)
(0.000473424 20 1.52896e-19)
(0.000473301 20 1.52429e-19)
(0.000473178 20 1.5243e-19)
(0.000473054 20 1.52885e-19)
(0.000472931 20 1.5326e-19)
(0.000472807 20 1.53437e-19)
(0.000472684 20 1.53598e-19)
(0.00047256 20 1.53759e-19)
(0.000472436 20 1.54056e-19)
(0.000472312 20 1.54142e-19)
(0.000472187 20 1.54552e-19)
(0.000472063 20 1.54363e-19)
(0.000471938 20 1.54761e-19)
(0.000471813 20 1.55016e-19)
(0.000471688 20 1.54831e-19)
(0.000471563 20 1.54682e-19)
(0.000471438 20 1.54933e-19)
(0.000471313 20 1.5446e-19)
(0.000471187 20 1.54227e-19)
(0.000471061 20 1.54413e-19)
(0.000470936 20 1.5439e-19)
(0.000470809 20 1.5474e-19)
(0.000470683 20 1.54732e-19)
(0.000470557 20 1.54716e-19)
(0.000470431 20 1.54611e-19)
(0.000470304 20 1.54282e-19)
(0.000470177 20 1.54396e-19)
(0.00047005 20 1.55057e-19)
(0.000469923 20 1.55026e-19)
(0.000469796 20 1.55453e-19)
(0.000469669 20 1.5551e-19)
(0.000469541 20 1.55564e-19)
(0.000469413 20 1.55418e-19)
(0.000469286 20 1.5499e-19)
(0.000469158 20 1.55274e-19)
(0.00046903 20 1.5499e-19)
(0.000468901 20 1.53459e-19)
(0.000468773 20 1.54842e-19)
(0.000468644 20 1.49373e-19)
(0.000468515 20 1.60045e-19)
(0.000468387 20 1.39056e-19)
(0.000468258 20 1.55537e-19)
(0.000468128 20 1.23035e-19)
(0.000467999 20 1.05564e-19)
(0.00046787 20 4.74595e-20)
(0.00046774 20 3.3175e-20)
(0.00046761 20 -1.28598e-20)
(0.00046748 20 -2.45837e-20)
(0.00046735 20 -6.47024e-20)
(0.00046722 20 -5.56108e-20)
(0.000467089 20 -8.0019e-20)
(0.000466958 20 -7.41962e-20)
(0.000466827 20 -1.0107e-19)
(0.000466697 20 -8.28187e-20)
(0.000466566 20 -1.00759e-19)
(0.000466436 20 -9.06421e-20)
(0.000466303 20 -1.14918e-19)
(0.000466179 20 -9.46946e-20)
(0.000478778 20 1.97453e-19)
(0.000478663 20 1.96667e-19)
(0.000478546 20 1.96561e-19)
(0.000478429 20 1.97742e-19)
(0.000478314 20 1.95197e-19)
(0.0004782 20 2.00326e-19)
(0.000478085 20 1.87703e-19)
(0.000477971 20 2.121e-19)
(0.000477858 20 1.7149e-19)
(0.000477744 20 2.12184e-19)
(0.00047763 20 1.45997e-19)
(0.000477516 20 1.57068e-19)
(0.000477402 20 4.36749e-20)
(0.000477288 20 4.37415e-20)
(0.000477174 20 -4.07053e-20)
(0.00047706 20 -2.18352e-20)
(0.000476945 20 -1.07763e-19)
(0.000476831 20 -7.58073e-20)
(0.000476716 20 -1.29881e-19)
(0.000476602 20 -8.73658e-20)
(0.000476487 20 -1.56311e-19)
(0.000476372 20 -1.10988e-19)
(0.000476257 20 -1.56366e-19)
(0.000476142 20 -1.0771e-19)
(0.000476027 20 -1.72005e-19)
(0.000475911 20 -1.24348e-19)
(0.000475796 20 -1.66689e-19)
(0.00047568 20 -1.15606e-19)
(0.000475564 20 -1.78583e-19)
(0.000475448 20 -1.29163e-19)
(0.000475332 20 -1.71686e-19)
(0.000475216 20 -1.19459e-19)
(0.0004751 20 -1.81579e-19)
(0.000474984 20 -1.31692e-19)
(0.000474867 20 -1.72956e-19)
(0.00047475 20 -1.214e-19)
(0.000474634 20 -1.84499e-19)
(0.000474517 20 -1.33557e-19)
(0.0004744 20 -1.73376e-19)
(0.000474282 20 -1.2104e-19)
(0.000474165 20 -1.82853e-19)
(0.000474048 20 -1.32226e-19)
(0.00047393 20 -1.73128e-19)
(0.000473812 20 -1.21051e-19)
(0.000473694 20 -1.83806e-19)
(0.000473576 20 -1.33083e-19)
(0.000473458 20 -1.74533e-19)
(0.00047334 20 -1.21987e-19)
(0.000473222 20 -1.84267e-19)
(0.000473103 20 -1.33431e-19)
(0.000472984 20 -1.73333e-19)
(0.000472866 20 -1.21021e-19)
(0.000472747 20 -1.83453e-19)
(0.000472628 20 -1.33151e-19)
(0.000472508 20 -1.74395e-19)
(0.000472389 20 -1.2157e-19)
(0.00047227 20 -1.83887e-19)
(0.00047215 20 -1.32226e-19)
(0.00047203 20 -1.72775e-19)
(0.00047191 20 -1.19992e-19)
(0.00047179 20 -1.81674e-19)
(0.00047167 20 -1.3069e-19)
(0.00047155 20 -1.70152e-19)
(0.000471429 20 -1.16121e-19)
(0.000471309 20 -1.77352e-19)
(0.000471188 20 -1.24061e-19)
(0.000471067 20 -1.59737e-19)
(0.000470946 20 -1.05681e-19)
(0.000470825 20 -1.54887e-19)
(0.000470703 20 -1.15231e-19)
(0.000470582 20 -1.03632e-19)
(0.00047046 20 -9.46616e-20)
(0.000470339 20 -3.96972e-20)
(0.000470217 20 5.46641e-21)
(0.000470095 20 5.40797e-20)
(0.000469973 20 9.54111e-20)
(0.00046985 20 1.26058e-19)
(0.000469728 20 1.45295e-19)
(0.000469605 20 1.58381e-19)
(0.000469483 20 1.67303e-19)
(0.00046936 20 1.73168e-19)
(0.000469237 20 1.77415e-19)
(0.000469114 20 1.80911e-19)
(0.00046899 20 1.83964e-19)
(0.000468867 20 1.85767e-19)
(0.000468743 20 1.87314e-19)
(0.00046862 20 1.88788e-19)
(0.000468496 20 1.90025e-19)
(0.000468372 20 1.91222e-19)
(0.000468248 20 1.9181e-19)
(0.000468123 20 1.92131e-19)
(0.000467999 20 1.92622e-19)
(0.000467874 20 1.93193e-19)
(0.000467749 20 1.93773e-19)
(0.000467625 20 1.9298e-19)
(0.0004675 20 1.92996e-19)
(0.000467374 20 1.93662e-19)
(0.000467249 20 1.94176e-19)
(0.000467124 20 1.94336e-19)
(0.000466998 20 1.94537e-19)
(0.000466872 20 1.94733e-19)
(0.000466746 20 1.95126e-19)
(0.00046662 20 1.95156e-19)
(0.000466494 20 1.95861e-19)
(0.000466368 20 1.95416e-19)
(0.000466241 20 1.96037e-19)
(0.000466115 20 1.96443e-19)
(0.000465988 20 1.96107e-19)
(0.000465861 20 1.95867e-19)
(0.000465734 20 1.96344e-19)
(0.000465607 20 1.95582e-19)
(0.000465479 20 1.95272e-19)
(0.000465352 20 1.95621e-19)
(0.000465224 20 1.95502e-19)
(0.000465096 20 1.96049e-19)
(0.000464968 20 1.9598e-19)
(0.00046484 20 1.95952e-19)
(0.000464712 20 1.95842e-19)
(0.000464583 20 1.95352e-19)
(0.000464455 20 1.9547e-19)
(0.000464326 20 1.96465e-19)
(0.000464197 20 1.96259e-19)
(0.000464068 20 1.96942e-19)
(0.000463939 20 1.96998e-19)
(0.00046381 20 1.9711e-19)
(0.00046368 20 1.96896e-19)
(0.00046355 20 1.96198e-19)
(0.000463421 20 1.96818e-19)
(0.000463291 20 1.96486e-19)
(0.000463161 20 1.93937e-19)
(0.00046303 20 1.97103e-19)
(0.0004629 20 1.86747e-19)
(0.000462769 20 2.08283e-19)
(0.000462639 20 1.68098e-19)
(0.000462508 20 2.11024e-19)
(0.000462377 20 1.43852e-19)
(0.000462245 20 1.50755e-19)
(0.000462114 20 3.3918e-20)
(0.000461983 20 3.35623e-20)
(0.000461851 20 -4.92893e-20)
(0.000461719 20 -3.06838e-20)
(0.000461587 20 -1.16911e-19)
(0.000461455 20 -8.21734e-20)
(0.000461322 20 -1.35532e-19)
(0.000461189 20 -9.29959e-20)
(0.000461056 20 -1.63925e-19)
(0.000460923 20 -1.17534e-19)
(0.00046079 20 -1.62262e-19)
(0.000460659 20 -1.14002e-19)
(0.000460522 20 -1.8096e-19)
(0.000460389 20 -1.32597e-19)
(0.000460263 20 -1.75152e-19)
(0.000469258 20 2.29503e-19)
(0.000469145 20 2.28597e-19)
(0.000469031 20 2.28289e-19)
(0.000468917 20 2.30256e-19)
(0.000468804 20 2.26102e-19)
(0.00046869 20 2.34433e-19)
(0.000468577 20 2.14541e-19)
(0.000468465 20 2.53031e-19)
(0.000468352 20 1.91922e-19)
(0.00046824 20 2.58668e-19)
(0.000468127 20 1.65029e-19)
(0.000468015 20 1.83847e-19)
(0.000467902 20 5.04311e-20)
(0.000467789 20 6.42005e-20)
(0.000467677 20 -5.56737e-20)
(0.000467564 20 -3.01999e-20)
(0.000467451 20 -1.32179e-19)
(0.000467338 20 -7.96982e-20)
(0.000467225 20 -1.62424e-19)
(0.000467112 20 -1.08542e-19)
(0.000466998 20 -1.89871e-19)
(0.000466885 20 -1.21593e-19)
(0.000466771 20 -1.94196e-19)
(0.000466658 20 -1.32767e-19)
(0.000466544 20 -2.08456e-19)
(0.00046643 20 -1.37872e-19)
(0.000466316 20 -2.06548e-19)
(0.000466202 20 -1.42417e-19)
(0.000466087 20 -2.1646e-19)
(0.000465973 20 -1.43342e-19)
(0.000465859 20 -2.12748e-19)
(0.000465744 20 -1.47115e-19)
(0.000465629 20 -2.20291e-19)
(0.000465514 20 -1.46516e-19)
(0.000465399 20 -2.14056e-19)
(0.000465284 20 -1.49553e-19)
(0.000465169 20 -2.23523e-19)
(0.000465053 20 -1.48852e-19)
(0.000464938 20 -2.14547e-19)
(0.000464822 20 -1.48881e-19)
(0.000464706 20 -2.22036e-19)
(0.000464591 20 -1.47179e-19)
(0.000464474 20 -2.14461e-19)
(0.000464358 20 -1.49133e-19)
(0.000464242 20 -2.23051e-19)
(0.000464126 20 -1.48107e-19)
(0.000464009 20 -2.16149e-19)
(0.000463892 20 -1.50289e-19)
(0.000463775 20 -2.23566e-19)
(0.000463658 20 -1.4866e-19)
(0.000463541 20 -2.14589e-19)
(0.000463424 20 -1.49015e-19)
(0.000463307 20 -2.22457e-19)
(0.000463189 20 -1.48158e-19)
(0.000463072 20 -2.16026e-19)
(0.000462954 20 -1.49662e-19)
(0.000462836 20 -2.22945e-19)
(0.000462718 20 -1.46871e-19)
(0.0004626 20 -2.13899e-19)
(0.000462481 20 -1.48044e-19)
(0.000462363 20 -2.20292e-19)
(0.000462244 20 -1.45324e-19)
(0.000462126 20 -2.10948e-19)
(0.000462007 20 -1.43234e-19)
(0.000461888 20 -2.15076e-19)
(0.000461769 20 -1.37192e-19)
(0.000461649 20 -1.98231e-19)
(0.00046153 20 -1.30831e-19)
(0.00046141 20 -1.87996e-19)
(0.000461291 20 -1.26244e-19)
(0.000461171 20 -1.34059e-19)
(0.000461051 20 -1.11607e-19)
(0.000460931 20 -6.5958e-20)
(0.000460811 20 -4.9521e-21)
(0.00046069 20 5.99082e-20)
(0.00046057 20 1.1202e-19)
(0.000460449 20 1.48397e-19)
(0.000460328 20 1.69904e-19)
(0.000460207 20 1.84094e-19)
(0.000460086 20 1.9401e-19)
(0.000459965 20 2.00644e-19)
(0.000459844 20 2.05477e-19)
(0.000459722 20 2.09655e-19)
(0.000459601 20 2.13424e-19)
(0.000459479 20 2.15471e-19)
(0.000459357 20 2.1735e-19)
(0.000459235 20 2.19092e-19)
(0.000459113 20 2.20598e-19)
(0.00045899 20 2.2215e-19)
(0.000458868 20 2.22815e-19)
(0.000458745 20 2.23097e-19)
(0.000458623 20 2.23756e-19)
(0.0004585 20 2.2441e-19)
(0.000458377 20 2.25315e-19)
(0.000458253 20 2.24108e-19)
(0.00045813 20 2.24224e-19)
(0.000458007 20 2.25088e-19)
(0.000457883 20 2.25771e-19)
(0.000457759 20 2.25818e-19)
(0.000457635 20 2.26072e-19)
(0.000457511 20 2.26307e-19)
(0.000457387 20 2.267e-19)
(0.000457263 20 2.26597e-19)
(0.000457138 20 2.27818e-19)
(0.000457014 20 2.26945e-19)
(0.000456889 20 2.27847e-19)
(0.000456764 20 2.28476e-19)
(0.000456639 20 2.27909e-19)
(0.000456514 20 2.27547e-19)
(0.000456389 20 2.28355e-19)
(0.000456263 20 2.27195e-19)
(0.000456137 20 2.26855e-19)
(0.000456012 20 2.2742e-19)
(0.000455886 20 2.27169e-19)
(0.00045576 20 2.27958e-19)
(0.000455633 20 2.27737e-19)
(0.000455507 20 2.27656e-19)
(0.000455381 20 2.27599e-19)
(0.000455254 20 2.26998e-19)
(0.000455127 20 2.27081e-19)
(0.000455 20 2.28384e-19)
(0.000454873 20 2.27892e-19)
(0.000454746 20 2.28927e-19)
(0.000454618 20 2.29011e-19)
(0.000454491 20 2.29228e-19)
(0.000454363 20 2.2891e-19)
(0.000454235 20 2.27876e-19)
(0.000454107 20 2.29037e-19)
(0.000453979 20 2.2861e-19)
(0.000453851 20 2.24746e-19)
(0.000453722 20 2.30381e-19)
(0.000453593 20 2.14031e-19)
(0.000453465 20 2.48383e-19)
(0.000453336 20 1.87601e-19)
(0.000453207 20 2.57542e-19)
(0.000453077 20 1.63031e-19)
(0.000452948 20 1.76012e-19)
(0.000452818 20 3.86885e-20)
(0.000452688 20 5.22356e-20)
(0.000452558 20 -6.60368e-20)
(0.000452428 20 -4.12761e-20)
(0.000452298 20 -1.4335e-19)
(0.000452167 20 -8.69941e-20)
(0.000452036 20 -1.69392e-19)
(0.000451905 20 -1.15754e-19)
(0.000451774 20 -1.98703e-19)
(0.000451642 20 -1.29032e-19)
(0.00045151 20 -2.01257e-19)
(0.00045138 20 -1.41002e-19)
(0.000451244 20 -2.19603e-19)
(0.000451111 20 -1.47333e-19)
(0.000450984 20 -2.16801e-19)
(0.00045888 20 2.30596e-19)
(0.00045877 20 2.30117e-19)
(0.000458659 20 2.29307e-19)
(0.000458548 20 2.3196e-19)
(0.000458437 20 2.26391e-19)
(0.000458326 20 2.37148e-19)
(0.000458216 20 2.11922e-19)
(0.000458105 20 2.59581e-19)
(0.000457995 20 1.87484e-19)
(0.000457885 20 2.70401e-19)
(0.000457774 20 1.61176e-19)
(0.000457664 20 1.8512e-19)
(0.000457554 20 4.84149e-20)
(0.000457443 20 7.38052e-20)
(0.000457333 20 -6.93908e-20)
(0.000457222 20 -4.54594e-20)
(0.000457112 20 -1.53212e-19)
(0.000457001 20 -8.7562e-20)
(0.00045689 20 -1.89876e-19)
(0.000456779 20 -1.34641e-19)
(0.000456668 20 -2.19119e-19)
(0.000456557 20 -1.35742e-19)
(0.000456446 20 -2.2672e-19)
(0.000456334 20 -1.62143e-19)
(0.000456223 20 -2.40376e-19)
(0.000456111 20 -1.54331e-19)
(0.000456 20 -2.40752e-19)
(0.000455888 20 -1.73751e-19)
(0.000455776 20 -2.49832e-19)
(0.000455664 20 -1.60568e-19)
(0.000455552 20 -2.48131e-19)
(0.00045544 20 -1.79338e-19)
(0.000455327 20 -2.54627e-19)
(0.000455215 20 -1.64573e-19)
(0.000455102 20 -2.49581e-19)
(0.000454989 20 -1.82103e-19)
(0.000454876 20 -2.57672e-19)
(0.000454763 20 -1.67136e-19)
(0.00045465 20 -2.50125e-19)
(0.000454537 20 -1.81458e-19)
(0.000454423 20 -2.56847e-19)
(0.00045431 20 -1.65393e-19)
(0.000454196 20 -2.50601e-19)
(0.000454083 20 -1.82118e-19)
(0.000453969 20 -2.58087e-19)
(0.000453855 20 -1.66399e-19)
(0.00045374 20 -2.52159e-19)
(0.000453626 20 -1.83251e-19)
(0.000453512 20 -2.58413e-19)
(0.000453397 20 -1.67062e-19)
(0.000453282 20 -2.50557e-19)
(0.000453168 20 -1.81753e-19)
(0.000453053 20 -2.56953e-19)
(0.000452938 20 -1.66141e-19)
(0.000452822 20 -2.51795e-19)
(0.000452707 20 -1.8211e-19)
(0.000452592 20 -2.57176e-19)
(0.000452476 20 -1.6452e-19)
(0.00045236 20 -2.495e-19)
(0.000452244 20 -1.80935e-19)
(0.000452128 20 -2.54617e-19)
(0.000452012 20 -1.63275e-19)
(0.000451896 20 -2.46505e-19)
(0.00045178 20 -1.75209e-19)
(0.000451663 20 -2.48405e-19)
(0.000451546 20 -1.53357e-19)
(0.00045143 20 -2.31978e-19)
(0.000451313 20 -1.59852e-19)
(0.000451196 20 -2.19904e-19)
(0.000451078 20 -1.35315e-19)
(0.000450961 20 -1.67965e-19)
(0.000450844 20 -1.2789e-19)
(0.000450726 20 -9.43619e-20)
(0.000450608 20 -2.44139e-20)
(0.00045049 20 4.89063e-20)
(0.000450372 20 1.05827e-19)
(0.000450254 20 1.43932e-19)
(0.000450136 20 1.66221e-19)
(0.000450018 20 1.80188e-19)
(0.000449899 20 1.90592e-19)
(0.00044978 20 1.98009e-19)
(0.000449661 20 2.03341e-19)
(0.000449543 20 2.08178e-19)
(0.000449423 20 2.12394e-19)
(0.000449304 20 2.14711e-19)
(0.000449185 20 2.16992e-19)
(0.000449065 20 2.1893e-19)
(0.000448946 20 2.20785e-19)
(0.000448826 20 2.22592e-19)
(0.000448706 20 2.23355e-19)
(0.000448586 20 2.23549e-19)
(0.000448466 20 2.24377e-19)