/*--------------------------------*- C++ -*----------------------------------*\
| =========                 |                                                 |
| \\      /  F ield         | OpenFOAM: The Open Source CFD Toolbox           |
|  \\    /   O peration     | Version:  2512                                  |
|   \\  /    A nd           | Website:  www.openfoam.com                      |
|    \\/     M anipulation  |                                                 |
\*---------------------------------------------------------------------------*/
FoamFile
{
    version     2.0;
    format      ascii;
    arch        "LSB;label=32;scalar=64";
    class       volScalarField;
    location    "0.1";
    object      p;
}
// * * * * * * * * * * * * * * * * * * * * * * * * * * * * * * * * * * * * * //

dimensions      [1 -1 -2 0 0 0 0];

internalField   nonuniform List<scalar> 
8333
(
-86.3279
-86.822
-87.3174
-87.8142
-88.3124
-88.8118
-89.3126
-89.8147
-90.3182
-90.8229
-91.329
-91.8364
-92.3451
-92.8551
-93.3665
-93.8791
-94.3931
-94.9084
-95.4249
-95.9428
-96.462
-96.9825
-97.5043
-98.0274
-98.5518
-99.0775
-99.6045
-100.133
-100.662
-101.193
-101.725
-102.259
-102.794
-103.33
-103.867
-104.406
-104.945
-105.487
-106.029
-106.573
-107.118
-107.664
-108.211
-108.76
-109.31
-109.861
-110.414
-110.968
-111.523
-112.079
-112.637
-113.196
-113.756
-114.317
-114.88
-115.444
-116.009
-116.575
-117.142
-117.711
-118.281
-118.853
-119.425
-119.999
-120.574
-121.15
-121.727
-122.306
-122.886
-123.467
-124.049
-124.632
-125.217
-125.803
-126.39
-126.978
-127.568
-128.158
-128.75
-129.343
-129.938
-130.533
-131.13
-131.728
-132.327
-132.927
-133.528
-134.131
-134.735
-135.339
-135.946
-136.553
-137.161
-137.771
-138.381
-138.993
-139.606
-140.221
-140.836
-141.452
-142.07
-142.689
-143.309
-143.93
-144.552
-145.175
-145.8
-146.425
-147.052
-147.68
-148.309
-148.939
-149.57
-150.202
-150.836
-151.47
-152.106
-152.742
-153.38
-154.019
-154.659
-155.3
-155.942
-156.586
-157.23
-157.875
-158.522
-159.169
-159.818
-160.468
-161.119
-161.77
-162.423
-163.077
-163.732
-164.388
-165.045
-165.703
-166.362
-167.023
-167.684
-168.346
-169.009
-169.674
-170.339
-171.005
-171.672
-172.34
-173.009
-90.5687
-91.0628
-91.5583
-92.0551
-92.5532
-93.0527
-93.5534
-94.0555
-94.559
-95.0637
-95.5698
-96.0772
-96.5859
-97.096
-97.6073
-98.12
-98.6339
-99.1492
-99.6658
-100.184
-100.703
-101.223
-101.745
-102.268
-102.793
-103.318
-103.845
-104.374
-104.903
-105.434
-105.966
-106.5
-107.035
-107.571
-108.108
-108.646
-109.186
-109.727
-110.27
-110.814
-111.359
-111.905
-112.452
-113.001
-113.551
-114.102
-114.655
-115.209
-115.764
-116.32
-116.878
-117.437
-117.997
-118.558
-119.121
-119.684
-120.249
-120.816
-121.383
-121.952
-122.522
-123.093
-123.666
-124.24
-124.815
-125.391
-125.968
-126.547
-127.127
-127.708
-128.29
-128.873
-129.458
-130.044
-130.631
-131.219
-131.809
-132.399
-132.991
-133.584
-134.179
-134.774
-135.371
-135.969
-136.568
-137.168
-137.769
-138.372
-138.976
-139.58
-140.187
-140.794
-141.402
-142.012
-142.622
-143.234
-143.847
-144.462
-145.077
-145.693
-146.311
-146.93
-147.55
-148.171
-148.793
-149.416
-150.041
-150.666
-151.293
-151.921
-152.55
-153.18
-153.811
-154.443
-155.077
-155.711
-156.347
-156.984
-157.621
-158.26
-158.9
-159.541
-160.183
-160.827
-161.471
-162.116
-162.763
-163.41
-164.059
-164.709
-165.36
-166.011
-166.664
-167.318
-167.973
-168.629
-169.286
-169.944
-170.603
-171.264
-171.925
-172.587
-173.25
-173.915
-174.58
-175.246
-175.913
-176.581
-177.251
-94.8071
-95.3012
-95.7966
-96.2934
-96.7915
-97.291
-97.7918
-98.2939
-98.7973
-99.3021
-99.8082
-100.316
-100.824
-101.334
-101.846
-102.358
-102.872
-103.388
-103.904
-104.422
-104.941
-105.462
-105.984
-106.507
-107.031
-107.557
-108.084
-108.612
-109.142
-109.672
-110.205
-110.738
-111.273
-111.809
-112.346
-112.885
-113.425
-113.966
-114.508
-115.052
-115.597
-116.143
-116.691
-117.239
-117.789
-118.341
-118.893
-119.447
-120.002
-120.558
-121.116
-121.675
-122.235
-122.796
-123.359
-123.923
-124.488
-125.054
-125.622
-126.19
-126.76
-127.332
-127.904
-128.478
-129.053
-129.629
-130.206
-130.785
-131.365
-131.946
-132.528
-133.112
-133.696
-134.282
-134.869
-135.458
-136.047
-136.638
-137.23
-137.823
-138.417
-139.012
-139.609
-140.207
-140.806
-141.406
-142.007
-142.61
-143.214
-143.819
-144.425
-145.032
-145.64
-146.25
-146.861
-147.473
-148.086
-148.7
-149.315
-149.932
-150.549
-151.168
-151.788
-152.409
-153.031
-153.654
-154.279
-154.905
-155.531
-156.159
-156.788
-157.418
-158.049
-158.682
-159.315
-159.949
-160.585
-161.222
-161.86
-162.498
-163.138
-163.779
-164.422
-165.065
-165.709
-166.355
-167.001
-167.649
-168.297
-168.947
-169.598
-170.25
-170.902
-171.556
-172.211
-172.867
-173.524
-174.183
-174.842
-175.502
-176.163
-176.825
-177.489
-178.153
-178.818
-179.484
-180.151
-180.82
-181.489
-182.159
-99.045
-99.5391
-100.035
-100.531
-101.03
-101.529
-102.03
-102.532
-103.035
-103.54
-104.046
-104.554
-105.062
-105.572
-106.084
-106.596
-107.11
-107.625
-108.142
-108.66
-109.179
-109.7
-110.221
-110.745
-111.269
-111.795
-112.322
-112.85
-113.38
-113.91
-114.443
-114.976
-115.511
-116.047
-116.584
-117.123
-117.663
-118.204
-118.746
-119.29
-119.835
-120.381
-120.928
-121.477
-122.027
-122.579
-123.131
-123.685
-124.24
-124.796
-125.354
-125.913
-126.473
-127.034
-127.597
-128.161
-128.726
-129.292
-129.86
-130.428
-130.998
-131.57
-132.142
-132.716
-133.291
-133.867
-134.444
-135.023
-135.603
-136.184
-136.766
-137.35
-137.934
-138.52
-139.107
-139.695
-140.285
-140.876
-141.468
-142.061
-142.655
-143.25
-143.847
-144.445
-145.044
-145.644
-146.245
-146.848
-147.452
-148.057
-148.663
-149.27
-149.878
-150.488
-151.099
-151.711
-152.324
-152.938
-153.553
-154.17
-154.787
-155.406
-156.026
-156.647
-157.269
-157.892
-158.517
-159.142
-159.769
-160.397
-161.026
-161.656
-162.287
-162.919
-163.553
-164.187
-164.823
-165.46
-166.097
-166.736
-167.376
-168.017
-168.66
-169.303
-169.947
-170.593
-171.239
-171.887
-172.535
-173.185
-173.836
-174.487
-175.14
-175.794
-176.449
-177.105
-177.762
-178.42
-179.08
-179.74
-180.401
-181.063
-181.726
-182.391
-183.056
-183.722
-184.389
-185.058
-185.727
-186.397
-187.068
-103.283
-103.777
-104.273
-104.769
-105.267
-105.767
-106.268
-106.77
-107.273
-107.778
-108.284
-108.791
-109.3
-109.81
-110.322
-110.834
-111.348
-111.863
-112.38
-112.898
-113.417
-113.938
-114.459
-114.983
-115.507
-116.033
-116.56
-117.088
-117.617
-118.148
-118.681
-119.214
-119.749
-120.285
-120.822
-121.361
-121.9
-122.442
-122.984
-123.528
-124.073
-124.619
-125.166
-125.715
-126.265
-126.817
-127.369
-127.923
-128.478
-129.034
-129.592
-130.151
-130.711
-131.272
-131.835
-132.399
-132.964
-133.53
-134.098
-134.666
-135.236
-135.808
-136.38
-136.954
-137.529
-138.105
-138.682
-139.261
-139.841
-140.422
-141.004
-141.587
-142.172
-142.758
-143.345
-143.933
-144.523
-145.114
-145.705
-146.299
-146.893
-147.488
-148.085
-148.683
-149.282
-149.882
-150.483
-151.086
-151.69
-152.295
-152.901
-153.508
-154.116
-154.726
-155.337
-155.948
-156.561
-157.176
-157.791
-158.408
-159.025
-159.644
-160.264
-160.885
-161.507
-162.13
-162.755
-163.38
-164.007
-164.635
-165.264
-165.894
-166.525
-167.157
-167.791
-168.425
-169.061
-169.698
-170.335
-170.974
-171.614
-172.255
-172.898
-173.541
-174.185
-174.831
-175.477
-176.125
-176.773
-177.423
-178.074
-178.725
-179.378
-180.032
-180.687
-181.343
-182
-182.658
-183.318
-183.978
-184.639
-185.301
-185.964
-186.629
-187.294
-187.96
-188.627
-189.296
-189.965
-190.635
-191.306
-191.979
-107.521
-108.015
-108.51
-109.007
-109.505
-110.005
-110.506
-111.008
-111.511
-112.016
-112.522
-113.029
-113.538
-114.048
-114.559
-115.072
-115.586
-116.101
-116.618
-117.136
-117.655
-118.176
-118.697
-119.22
-119.745
-120.271
-120.798
-121.326
-121.855
-122.386
-122.918
-123.452
-123.987
-124.523
-125.06
-125.599
-126.138
-126.68
-127.222
-127.766
-128.311
-128.857
-129.404
-129.953
-130.503
-131.054
-131.607
-132.161
-132.716
-133.272
-133.83
-134.389
-134.949
-135.51
-136.073
-136.637
-137.202
-137.768
-138.335
-138.904
-139.474
-140.046
-140.618
-141.192
-141.767
-142.343
-142.92
-143.499
-144.079
-144.66
-145.242
-145.825
-146.41
-146.996
-147.583
-148.171
-148.761
-149.352
-149.943
-150.536
-151.131
-151.726
-152.323
-152.921
-153.52
-154.12
-154.721
-155.324
-155.928
-156.533
-157.139
-157.746
-158.354
-158.964
-159.575
-160.186
-160.799
-161.414
-162.029
-162.645
-163.263
-163.882
-164.502
-165.123
-165.745
-166.368
-166.993
-167.618
-168.245
-168.873
-169.502
-170.132
-170.763
-171.395
-172.029
-172.663
-173.299
-173.936
-174.573
-175.212
-175.852
-176.493
-177.135
-177.779
-178.423
-179.068
-179.715
-180.362
-181.011
-181.661
-182.312
-182.963
-183.616
-184.27
-184.925
-185.581
-186.238
-186.896
-187.555
-188.216
-188.877
-189.539
-190.202
-190.867
-191.532
-192.198
-192.865
-193.534
-194.203
-194.873
-195.544
-196.217
-111.759
-112.253
-112.748
-113.245
-113.743
-114.243
-114.744
-115.246
-115.749
-116.254
-116.76
-117.267
-117.776
-118.286
-118.797
-119.31
-119.824
-120.339
-120.856
-121.374
-121.893
-122.413
-122.935
-123.458
-123.983
-124.508
-125.035
-125.564
-126.093
-126.624
-127.156
-127.69
-128.225
-128.761
-129.298
-129.836
-130.376
-130.917
-131.46
-132.004
-132.549
-133.095
-133.642
-134.191
-134.741
-135.292
-135.845
-136.399
-136.954
-137.51
-138.068
-138.627
-139.187
-139.748
-140.311
-140.874
-141.44
-142.006
-142.573
-143.142
-143.712
-144.283
-144.856
-145.43
-146.005
-146.581
-147.158
-147.737
-148.317
-148.898
-149.48
-150.063
-150.648
-151.234
-151.821
-152.409
-152.999
-153.589
-154.181
-154.774
-155.369
-155.964
-156.561
-157.159
-157.758
-158.358
-158.959
-159.562
-160.166
-160.77
-161.377
-161.984
-162.592
-163.202
-163.812
-164.424
-165.037
-165.652
-166.267
-166.883
-167.501
-168.12
-168.74
-169.361
-169.983
-170.606
-171.231
-171.856
-172.483
-173.111
-173.74
-174.37
-175.001
-175.633
-176.267
-176.901
-177.537
-178.173
-178.811
-179.45
-180.09
-180.731
-181.373
-182.017
-182.661
-183.306
-183.953
-184.6
-185.249
-185.899
-186.549
-187.201
-187.854
-188.508
-189.163
-189.819
-190.476
-191.134
-191.793
-192.454
-193.115
-193.777
-194.44
-195.105
-195.77
-196.436
-197.103
-197.772
-198.441
-199.111
-199.782
-200.455
-201.128
-115.997
-116.491
-116.986
-117.483
-117.981
-118.481
-118.981
-119.484
-119.987
-120.492
-120.998
-121.505
-122.014
-122.524
-123.035
-123.548
-124.062
-124.577
-125.094
-125.612
-126.131
-126.651
-127.173
-127.696
-128.221
-128.746
-129.273
-129.802
-130.331
-130.862
-131.394
-131.928
-132.463
-132.999
-133.536
-134.074
-134.614
-135.155
-135.698
-136.242
-136.786
-137.333
-137.88
-138.429
-138.979
-139.53
-140.083
-140.637
-141.192
-141.748
-142.306
-142.865
-143.425
-143.986
-144.549
-145.112
-145.677
-146.244
-146.811
-147.38
-147.95
-148.521
-149.094
-149.668
-150.243
-150.819
-151.396
-151.975
-152.554
-153.136
-153.718
-154.301
-154.886
-155.472
-156.059
-156.647
-157.237
-157.827
-158.419
-159.012
-159.607
-160.202
-160.799
-161.397
-161.996
-162.596
-163.197
-163.8
-164.403
-165.008
-165.614
-166.222
-166.83
-167.44
-168.05
-168.662
-169.275
-169.889
-170.505
-171.121
-171.739
-172.358
-172.978
-173.599
-174.221
-174.844
-175.469
-176.094
-176.721
-177.349
-177.978
-178.608
-179.239
-179.871
-180.505
-181.139
-181.775
-182.411
-183.049
-183.688
-184.328
-184.969
-185.611
-186.255
-186.899
-187.544
-188.191
-188.838
-189.487
-190.137
-190.787
-191.439
-192.092
-192.746
-193.401
-194.057
-194.714
-195.372
-196.031
-196.692
-197.353
-198.015
-198.678
-199.342
-200.008
-200.674
-201.341
-202.01
-202.679
-203.349
-204.02
-204.693
-205.366
-206.041
-120.235
-120.729
-121.224
-121.721
-122.219
-122.719
-123.219
-123.722
-124.225
-124.73
-125.236
-125.743
-126.252
-126.762
-127.273
-127.786
-128.3
-128.815
-129.332
-129.85
-130.369
-130.889
-131.411
-131.934
-132.459
-132.984
-133.511
-134.04
-134.569
-135.1
-135.632
-136.166
-136.7
-137.236
-137.774
-138.312
-138.852
-139.393
-139.936
-140.479
-141.024
-141.571
-142.118
-142.667
-143.217
-143.768
-144.321
-144.875
-145.43
-145.986
-146.544
-147.102
-147.663
-148.224
-148.786
-149.35
-149.915
-150.482
-151.049
-151.618
-152.188
-152.759
-153.332
-153.905
-154.48
-155.057
-155.634
-156.213
-156.792
-157.373
-157.956
-158.539
-159.124
-159.71
-160.297
-160.885
-161.475
-162.065
-162.657
-163.25
-163.845
-164.44
-165.037
-165.634
-166.234
-166.834
-167.435
-168.038
-168.641
-169.246
-169.852
-170.46
-171.068
-171.678
-172.288
-172.9
-173.513
-174.127
-174.743
-175.359
-175.977
-176.596
-177.216
-177.837
-178.459
-179.082
-179.707
-180.332
-180.959
-181.587
-182.216
-182.846
-183.477
-184.109
-184.742
-185.377
-186.013
-186.649
-187.287
-187.926
-188.566
-189.207
-189.849
-190.492
-191.137
-191.782
-192.429
-193.076
-193.725
-194.375
-195.025
-195.677
-196.33
-196.984
-197.639
-198.295
-198.952
-199.61
-200.269
-200.929
-201.591
-202.253
-202.916
-203.58
-204.246
-204.912
-205.579
-206.248
-206.917
-207.587
-208.259
-208.931
-209.604
-210.279
-124.473
-124.967
-125.462
-125.959
-126.457
-126.957
-127.457
-127.959
-128.463
-128.968
-129.474
-129.981
-130.49
-131
-131.511
-132.024
-132.538
-133.053
-133.57
-134.088
-134.607
-135.127
-135.649
-136.172
-136.697
-137.222
-137.749
-138.278
-138.807
-139.338
-139.87
-140.404
-140.938
-141.474
-142.012
-142.55
-143.09
-143.631
-144.174
-144.717
-145.262
-145.809
-146.356
-146.905
-147.455
-148.006
-148.559
-149.113
-149.668
-150.224
-150.782
-151.34
-151.9
-152.462
-153.024
-153.588
-154.153
-154.72
-155.287
-155.856
-156.426
-156.997
-157.57
-158.143
-158.718
-159.295
-159.872
-160.45
-161.03
-161.611
-162.194
-162.777
-163.362
-163.948
-164.535
-165.123
-165.713
-166.303
-166.895
-167.488
-168.082
-168.678
-169.275
-169.872
-170.471
-171.072
-171.673
-172.276
-172.879
-173.484
-174.09
-174.698
-175.306
-175.915
-176.526
-177.138
-177.751
-178.365
-178.981
-179.597
-180.215
-180.834
-181.453
-182.074
-182.697
-183.32
-183.944
-184.57
-185.197
-185.825
-186.453
-187.084
-187.715
-188.347
-188.98
-189.615
-190.25
-190.887
-191.525
-192.164
-192.804
-193.445
-194.087
-194.73
-195.375
-196.02
-196.667
-197.314
-197.963
-198.612
-199.263
-199.915
-200.568
-201.222
-201.877
-202.533
-203.19
-203.848
-204.507
-205.167
-205.829
-206.491
-207.154
-207.818
-208.484
-209.15
-209.817
-210.486
-211.155
-211.825
-212.497
-213.169
-213.843
-214.517
-215.193
-128.711
-129.205
-129.7
-130.197
-130.695
-131.194
-131.695
-132.197
-132.701
-133.206
-133.712
-134.219
-134.728
-135.238
-135.749
-136.262
-136.776
-137.291
-137.808
-138.325
-138.845
-139.365
-139.887
-140.41
-140.934
-141.46
-141.987
-142.515
-143.045
-143.576
-144.108
-144.642
-145.176
-145.712
-146.25
-146.788
-147.328
-147.869
-148.412
-148.955
-149.5
-150.046
-150.594
-151.143
-151.693
-152.244
-152.797
-153.35
-153.906
-154.462
-155.019
-155.578
-156.138
-156.7
-157.262
-157.826
-158.391
-158.958
-159.525
-160.094
-160.664
-161.235
-161.808
-162.381
-162.956
-163.532
-164.11
-164.688
-165.268
-165.849
-166.432
-167.015
-167.6
-168.186
-168.773
-169.361
-169.95
-170.541
-171.133
-171.726
-172.32
-172.916
-173.512
-174.11
-174.709
-175.31
-175.911
-176.513
-177.117
-177.722
-178.328
-178.935
-179.544
-180.153
-180.764
-181.376
-181.989
-182.603
-183.219
-183.835
-184.453
-185.071
-185.691
-186.312
-186.935
-187.558
-188.182
-188.808
-189.435
-190.062
-190.691
-191.321
-191.953
-192.585
-193.218
-193.853
-194.488
-195.125
-195.763
-196.402
-197.042
-197.683
-198.325
-198.968
-199.613
-200.258
-200.905
-201.552
-202.201
-202.85
-203.501
-204.153
-204.806
-205.46
-206.115
-206.771
-207.428
-208.086
-208.745
-209.405
-210.067
-210.729
-211.392
-212.056
-212.722
-213.388
-214.055
-214.724
-215.393
-216.063
-216.735
-217.407
-218.081
-218.755
-219.431
-220.107
-132.948
-133.443
-133.938
-134.435
-134.933
-135.432
-135.933
-136.435
-136.939
-137.443
-137.95
-138.457
-138.966
-139.476
-139.987
-140.5
-141.014
-141.529
-142.045
-142.563
-143.083
-143.603
-144.125
-144.648
-145.172
-145.698
-146.225
-146.753
-147.283
-147.814
-148.346
-148.879
-149.414
-149.95
-150.487
-151.026
-151.566
-152.107
-152.65
-153.193
-153.738
-154.284
-154.832
-155.381
-155.931
-156.482
-157.035
-157.588
-158.143
-158.7
-159.257
-159.816
-160.376
-160.938
-161.5
-162.064
-162.629
-163.195
-163.763
-164.332
-164.902
-165.473
-166.046
-166.619
-167.194
-167.77
-168.348
-168.926
-169.506
-170.087
-170.669
-171.253
-171.838
-172.423
-173.011
-173.599
-174.188
-174.779
-175.371
-175.964
-176.558
-177.154
-177.75
-178.348
-178.947
-179.547
-180.149
-180.751
-181.355
-181.96
-182.566
-183.173
-183.782
-184.391
-185.002
-185.614
-186.227
-186.841
-187.456
-188.073
-188.691
-189.309
-189.929
-190.55
-191.172
-191.796
-192.42
-193.046
-193.673
-194.3
-194.929
-195.559
-196.191
-196.823
-197.456
-198.091
-198.726
-199.363
-200.001
-200.64
-201.28
-201.921
-202.563
-203.206
-203.851
-204.496
-205.142
-205.79
-206.439
-207.088
-207.739
-208.391
-209.044
-209.698
-210.353
-211.009
-211.666
-212.324
-212.983
-213.643
-214.304
-214.967
-215.63
-216.294
-216.96
-217.626
-218.293
-218.962
-219.631
-220.301
-220.973
-221.645
-222.319
-222.993
-223.669
-224.346
-225.023
-137.186
-137.68
-138.176
-138.673
-139.171
-139.67
-140.171
-140.673
-141.177
-141.681
-142.187
-142.695
-143.204
-143.714
-144.225
-144.738
-145.252
-145.767
-146.283
-146.801
-147.32
-147.841
-148.363
-148.886
-149.41
-149.936
-150.463
-150.991
-151.521
-152.052
-152.584
-153.117
-153.652
-154.188
-154.725
-155.264
-155.804
-156.345
-156.887
-157.431
-157.976
-158.522
-159.07
-159.619
-160.169
-160.72
-161.272
-161.826
-162.381
-162.938
-163.495
-164.054
-164.614
-165.176
-165.738
-166.302
-166.867
-167.433
-168.001
-168.57
-169.14
-169.711
-170.283
-170.857
-171.432
-172.008
-172.586
-173.164
-173.744
-174.325
-174.907
-175.491
-176.075
-176.661
-177.248
-177.837
-178.426
-179.017
-179.609
-180.202
-180.796
-181.392
-181.988
-182.586
-183.185
-183.785
-184.387
-184.989
-185.593
-186.198
-186.804
-187.411
-188.02
-188.629
-189.24
-189.852
-190.465
-191.079
-191.694
-192.311
-192.928
-193.547
-194.167
-194.788
-195.41
-196.034
-196.658
-197.284
-197.91
-198.538
-199.167
-199.797
-200.428
-201.061
-201.694
-202.329
-202.964
-203.601
-204.239
-204.878
-205.518
-206.159
-206.801
-207.444
-208.088
-208.734
-209.38
-210.028
-210.677
-211.326
-211.977
-212.629
-213.282
-213.936
-214.591
-215.247
-215.904
-216.562
-217.221
-217.881
-218.542
-219.205
-219.868
-220.532
-221.197
-221.864
-222.531
-223.199
-223.869
-224.539
-225.211
-225.883
-226.557
-227.231
-227.907
-228.584
-229.261
-141.424
-141.918
-142.414
-142.911
-143.409
-143.908
-144.409
-144.911
-145.415
-145.919
-146.425
-146.933
-147.441
-147.951
-148.463
-148.975
-149.489
-150.005
-150.521
-151.039
-151.558
-152.079
-152.601
-153.124
-153.648
-154.174
-154.701
-155.229
-155.759
-156.29
-156.822
-157.355
-157.89
-158.426
-158.963
-159.502
-160.042
-160.583
-161.125
-161.669
-162.214
-162.76
-163.308
-163.856
-164.406
-164.958
-165.51
-166.064
-166.619
-167.176
-167.733
-168.292
-168.852
-169.413
-169.976
-170.54
-171.105
-171.671
-172.239
-172.808
-173.378
-173.949
-174.521
-175.095
-175.67
-176.246
-176.824
-177.402
-177.982
-178.563
-179.145
-179.729
-180.313
-180.899
-181.486
-182.075
-182.664
-183.255
-183.847
-184.44
-185.034
-185.63
-186.226
-186.824
-187.423
-188.023
-188.625
-189.227
-189.831
-190.436
-191.042
-191.649
-192.258
-192.867
-193.478
-194.09
-194.703
-195.317
-195.932
-196.549
-197.166
-197.785
-198.405
-199.026
-199.648
-200.272
-200.896
-201.522
-202.148
-202.776
-203.405
-204.035
-204.666
-205.299
-205.932
-206.567
-207.202
-207.839
-208.477
-209.116
-209.756
-210.397
-211.039
-211.682
-212.326
-212.972
-213.618
-214.266
-214.914
-215.564
-216.215
-216.867
-217.52
-218.173
-218.828
-219.484
-220.142
-220.8
-221.459
-222.119
-222.78
-223.443
-224.106
-224.77
-225.435
-226.102
-226.769
-227.437
-228.107
-228.777
-229.449
-230.121
-230.795
-231.469
-232.145
-232.822
-233.5
-234.178
-145.662
-146.156
-146.652
-147.148
-147.647
-148.146
-148.647
-149.149
-149.652
-150.157
-150.663
-151.171
-151.679
-152.189
-152.701
-153.213
-153.727
-154.243
-154.759
-155.277
-155.796
-156.317
-156.839
-157.362
-157.886
-158.412
-158.939
-159.467
-159.997
-160.528
-161.06
-161.593
-162.128
-162.664
-163.201
-163.74
-164.28
-164.821
-165.363
-165.907
-166.452
-166.998
-167.546
-168.094
-168.644
-169.196
-169.748
-170.302
-170.857
-171.413
-171.971
-172.53
-173.09
-173.651
-174.214
-174.778
-175.343
-175.909
-176.477
-177.045
-177.615
-178.187
-178.759
-179.333
-179.908
-180.484
-181.061
-181.64
-182.22
-182.801
-183.383
-183.967
-184.551
-185.137
-185.724
-186.313
-186.902
-187.493
-188.085
-188.678
-189.272
-189.867
-190.464
-191.062
-191.661
-192.261
-192.863
-193.465
-194.069
-194.674
-195.28
-195.887
-196.495
-197.105
-197.716
-198.328
-198.941
-199.555
-200.17
-200.787
-201.404
-202.023
-202.643
-203.264
-203.886
-204.51
-205.134
-205.76
-206.386
-207.014
-207.643
-208.273
-208.904
-209.537
-210.17
-210.804
-211.44
-212.077
-212.715
-213.353
-213.993
-214.634
-215.277
-215.92
-216.564
-217.21
-217.856
-218.504
-219.152
-219.802
-220.453
-221.105
-221.757
-222.411
-223.066
-223.722
-224.379
-225.038
-225.697
-226.357
-227.018
-227.68
-228.344
-229.008
-229.673
-230.34
-231.007
-231.675
-232.345
-233.015
-233.687
-234.359
-235.033
-235.707
-236.383
-237.06
-237.738
-238.416
-239.096
-149.9
-150.394
-150.89
-151.386
-151.885
-152.384
-152.885
-153.387
-153.89
-154.395
-154.901
-155.409
-155.917
-156.427
-156.939
-157.451
-157.965
-158.48
-158.997
-159.515
-160.034
-160.555
-161.076
-161.6
-162.124
-162.65
-163.177
-163.705
-164.235
-164.765
-165.298
-165.831
-166.366
-166.902
-167.439
-167.978
-168.518
-169.059
-169.601
-170.145
-170.69
-171.236
-171.783
-172.332
-172.882
-173.434
-173.986
-174.54
-175.095
-175.651
-176.209
-176.768
-177.328
-177.889
-178.452
-179.016
-179.581
-180.147
-180.715
-181.283
-181.853
-182.425
-182.997
-183.571
-184.146
-184.722
-185.299
-185.878
-186.458
-187.039
-187.621
-188.204
-188.789
-189.375
-189.962
-190.55
-191.14
-191.731
-192.322
-192.916
-193.51
-194.105
-194.702
-195.3
-195.899
-196.499
-197.1
-197.703
-198.307
-198.912
-199.518
-200.125
-200.733
-201.343
-201.954
-202.565
-203.179
-203.793
-204.408
-205.025
-205.642
-206.261
-206.881
-207.502
-208.124
-208.747
-209.372
-209.997
-210.624
-211.252
-211.881
-212.511
-213.142
-213.774
-214.408
-215.042
-215.678
-216.315
-216.952
-217.591
-218.231
-218.872
-219.515
-220.158
-220.802
-221.448
-222.094
-222.742
-223.39
-224.04
-224.691
-225.342
-225.995
-226.649
-227.304
-227.96
-228.617
-229.275
-229.935
-230.595
-231.256
-231.918
-232.582
-233.246
-233.911
-234.578
-235.245
-235.913
-236.583
-237.253
-237.925
-238.597
-239.271
-239.945
-240.621
-241.298
-241.976
-242.654
-243.334
-244.015
-154.138
-154.632
-155.127
-155.624
-156.122
-156.622
-157.123
-157.625
-158.128
-158.633
-159.139
-159.646
-160.155
-160.665
-161.176
-161.689
-162.203
-162.718
-163.235
-163.753
-164.272
-164.793
-165.314
-165.837
-166.362
-166.888
-167.415
-167.943
-168.472
-169.003
-169.535
-170.069
-170.604
-171.14
-171.677
-172.216
-172.755
-173.297
-173.839
-174.383
-174.928
-175.474
-176.021
-176.57
-177.12
-177.671
-178.224
-178.778
-179.333
-179.889
-180.447
-181.006
-181.566
-182.127
-182.69
-183.254
-183.819
-184.385
-184.952
-185.521
-186.091
-186.662
-187.235
-187.809
-188.384
-188.96
-189.537
-190.116
-190.696
-191.277
-191.859
-192.442
-193.027
-193.613
-194.2
-194.788
-195.378
-195.968
-196.56
-197.153
-197.748
-198.343
-198.94
-199.538
-200.137
-200.737
-201.338
-201.941
-202.545
-203.149
-203.756
-204.363
-204.971
-205.581
-206.191
-206.803
-207.416
-208.031
-208.646
-209.262
-209.88
-210.499
-211.119
-211.74
-212.362
-212.985
-213.61
-214.235
-214.862
-215.49
-216.119
-216.749
-217.38
-218.012
-218.646
-219.28
-219.916
-220.552
-221.19
-221.829
-222.469
-223.11
-223.752
-224.396
-225.04
-225.685
-226.332
-226.979
-227.628
-228.278
-228.929
-229.58
-230.233
-230.887
-231.542
-232.198
-232.855
-233.513
-234.173
-234.833
-235.494
-236.156
-236.82
-237.484
-238.149
-238.816
-239.483
-240.151
-240.821
-241.491
-242.163
-242.835
-243.509
-244.184
-244.859
-245.536
-246.214
-246.893
-247.572
-248.253
-158.376
-158.87
-159.365
-159.862
-160.36
-160.86
-161.361
-161.863
-162.366
-162.871
-163.377
-163.884
-164.393
-164.903
-165.414
-165.927
-166.441
-166.956
-167.473
-167.991
-168.51
-169.03
-169.552
-170.075
-170.6
-171.125
-171.652
-172.181
-172.71
-173.241
-173.773
-174.307
-174.842
-175.378
-175.915
-176.453
-176.993
-177.534
-178.077
-178.621
-179.165
-179.712
-180.259
-180.808
-181.358
-181.909
-182.462
-183.016
-183.571
-184.127
-184.685
-185.244
-185.804
-186.365
-186.928
-187.491
-188.056
-188.623
-189.19
-189.759
-190.329
-190.9
-191.473
-192.047
-192.622
-193.198
-193.775
-194.354
-194.933
-195.515
-196.097
-196.68
-197.265
-197.851
-198.438
-199.026
-199.616
-200.206
-200.798
-201.391
-201.986
-202.581
-203.178
-203.776
-204.375
-204.975
-205.576
-206.179
-206.782
-207.387
-207.993
-208.601
-209.209
-209.819
-210.429
-211.041
-211.654
-212.268
-212.884
-213.5
-214.118
-214.737
-215.357
-215.978
-216.6
-217.223
-217.848
-218.473
-219.1
-219.728
-220.357
-220.987
-221.618
-222.25
-222.884
-223.518
-224.154
-224.79
-225.428
-226.067
-226.707
-227.348
-227.99
-228.634
-229.278
-229.923
-230.57
-231.217
-231.866
-232.516
-233.166
-233.818
-234.471
-235.125
-235.78
-236.436
-237.093
-237.751
-238.41
-239.071
-239.732
-240.394
-241.057
-241.722
-242.387
-243.053
-243.721
-244.389
-245.059
-245.729
-246.401
-247.073
-247.747
-248.422
-249.097
-249.774
-250.452
-251.131
-251.81
-252.491
-253.173
-162.614
-163.108
-163.603
-164.1
-164.598
-165.098
-165.598
-166.1
-166.604
-167.109
-167.615
-168.122
-168.631
-169.141
-169.652
-170.165
-170.679
-171.194
-171.711
-172.229
-172.748
-173.268
-173.79
-174.313
-174.838
-175.363
-175.89
-176.419
-176.948
-177.479
-178.011
-178.545
-179.079
-179.615
-180.153
-180.691
-181.231
-181.772
-182.315
-182.858
-183.403
-183.95
-184.497
-185.046
-185.596
-186.147
-186.7
-187.254
-187.809
-188.365
-188.923
-189.481
-190.042
-190.603
-191.165
-191.729
-192.294
-192.861
-193.428
-193.997
-194.567
-195.138
-195.711
-196.284
-196.859
-197.436
-198.013
-198.592
-199.171
-199.752
-200.335
-200.918
-201.503
-202.089
-202.676
-203.264
-203.854
-204.444
-205.036
-205.629
-206.223
-206.819
-207.416
-208.013
-208.612
-209.213
-209.814
-210.417
-211.02
-211.625
-212.231
-212.839
-213.447
-214.057
-214.667
-215.279
-215.892
-216.506
-217.122
-217.738
-218.356
-218.975
-219.594
-220.216
-220.838
-221.461
-222.085
-222.711
-223.338
-223.966
-224.595
-225.225
-225.856
-226.488
-227.121
-227.756
-228.392
-229.028
-229.666
-230.305
-230.945
-231.586
-232.228
-232.871
-233.516
-234.161
-234.808
-235.455
-236.104
-236.754
-237.404
-238.056
-238.709
-239.363
-240.018
-240.674
-241.331
-241.989
-242.648
-243.309
-243.97
-244.632
-245.295
-245.96
-246.625
-247.291
-247.959
-248.627
-249.297
-249.967
-250.639
-251.311
-251.985
-252.66
-253.335
-254.012
-254.69
-255.369
-256.048
-256.729
-257.411
-258.094
-166.851
-167.346
-167.841
-168.338
-168.836
-169.335
-169.836
-170.338
-170.842
-171.347
-171.853
-172.36
-172.869
-173.379
-173.89
-174.403
-174.917
-175.432
-175.949
-176.466
-176.986
-177.506
-178.028
-178.551
-179.075
-179.601
-180.128
-180.656
-181.186
-181.717
-182.249
-182.783
-183.317
-183.853
-184.391
-184.929
-185.469
-186.01
-186.553
-187.096
-187.641
-188.187
-188.735
-189.284
-189.834
-190.385
-190.938
-191.491
-192.047
-192.603
-193.16
-193.719
-194.279
-194.841
-195.403
-195.967
-196.532
-197.099
-197.666
-198.235
-198.805
-199.376
-199.949
-200.522
-201.097
-201.673
-202.251
-202.829
-203.409
-203.99
-204.573
-205.156
-205.741
-206.327
-206.914
-207.502
-208.091
-208.682
-209.274
-209.867
-210.461
-211.057
-211.653
-212.251
-212.85
-213.451
-214.052
-214.654
-215.258
-215.863
-216.469
-217.076
-217.685
-218.294
-218.905
-219.517
-220.13
-220.744
-221.36
-221.976
-222.594
-223.212
-223.832
-224.453
-225.076
-225.699
-226.323
-226.949
-227.576
-228.203
-228.832
-229.462
-230.094
-230.726
-231.359
-231.994
-232.629
-233.266
-233.904
-234.543
-235.183
-235.824
-236.466
-237.109
-237.754
-238.399
-239.046
-239.693
-240.342
-240.991
-241.642
-242.294
-242.947
-243.601
-244.256
-244.912
-245.569
-246.227
-246.886
-247.546
-248.208
-248.87
-249.533
-250.198
-250.863
-251.529
-252.197
-252.865
-253.535
-254.205
-254.877
-255.549
-256.223
-256.898
-257.573
-258.25
-258.928
-259.607
-260.287
-260.967
-261.649
-262.332
-171.089
-171.583
-172.079
-172.576
-173.074
-173.573
-174.074
-174.576
-175.08
-175.584
-176.09
-176.598
-177.107
-177.617
-178.128
-178.641
-179.155
-179.67
-180.186
-180.704
-181.224
-181.744
-182.266
-182.789
-183.313
-183.839
-184.366
-184.894
-185.424
-185.955
-186.487
-187.02
-187.555
-188.091
-188.628
-189.167
-189.707
-190.248
-190.79
-191.334
-191.879
-192.425
-192.973
-193.522
-194.072
-194.623
-195.176
-195.729
-196.284
-196.841
-197.398
-197.957
-198.517
-199.079
-199.641
-200.205
-200.77
-201.336
-201.904
-202.473
-203.043
-203.614
-204.186
-204.76
-205.335
-205.911
-206.489
-207.067
-207.647
-208.228
-208.81
-209.394
-209.979
-210.564
-211.151
-211.74
-212.329
-212.92
-213.512
-214.105
-214.699
-215.295
-215.891
-216.489
-217.088
-217.688
-218.29
-218.892
-219.496
-220.101
-220.707
-221.314
-221.923
-222.532
-223.143
-223.755
-224.368
-224.982
-225.597
-226.214
-226.832
-227.45
-228.07
-228.691
-229.313
-229.937
-230.561
-231.187
-231.814
-232.441
-233.07
-233.7
-234.332
-234.964
-235.597
-236.232
-236.867
-237.504
-238.142
-238.781
-239.421
-240.062
-240.704
-241.347
-241.992
-242.637
-243.283
-243.931
-244.58
-245.229
-245.88
-246.532
-247.185
-247.839
-248.494
-249.15
-249.807
-250.465
-251.124
-251.784
-252.446
-253.108
-253.771
-254.435
-255.101
-255.767
-256.435
-257.103
-257.773
-258.443
-259.115
-259.787
-260.461
-261.136
-261.811
-262.488
-263.166
-263.845
-264.525
-265.205
-265.887
-266.57
-267.254
-175.327
-175.821