/*--------------------------------*- C++ -*----------------------------------*\
| =========                 |                                                 |
| \\      /  F ield         | OpenFOAM: The Open Source CFD Toolbox           |
|  \\    /   O peration     | Version:  2512                                  |
|   \\  /    A nd           | Website:  www.openfoam.com                      |
|    \\/     M anipulation  |                                                 |
\*---------------------------------------------------------------------------*/
FoamFile
{
    version     2.0;
    format      ascii;
    arch        "LSB;label=32;scalar=64";
    class       volScalarField;
    location    "0.1";
    object      pB;
}
// * * * * * * * * * * * * * * * * * * * * * * * * * * * * * * * * * * * * * //

dimensions      [1 1 -3 0 0 -1 0];

internalField   nonuniform List<scalar> 
8333
(
9.24473
9.20104
9.15711
9.1129
9.06835
9.02354
8.97854
8.93339
8.88811
8.8427
8.79719
8.75158
8.70589
8.66011
8.61427
8.56835
8.52238
8.47634
8.43024
8.38409
8.33787
8.29161
8.24529
8.19892
8.15249
8.106
8.05946
8.01287
7.96621
7.9195
7.87273
7.82589
7.779
7.73204
7.68502
7.63793
7.59078
7.54356
7.49627
7.44892
7.40149
7.35399
7.30643
7.25879
7.21108
7.1633
7.11544
7.06751
7.0195
6.97142
6.92326
6.87503
6.82672
6.77834
6.72988
6.68134
6.63273
6.58404
6.53527
6.48642
6.4375
6.3885
6.33942
6.29027
6.24104
6.19173
6.14234
6.09288
6.04334
5.99372
5.94402
5.89425
5.8444
5.79448
5.74448
5.6944
5.64425
5.59402
5.54371
5.49333
5.44288
5.39235
5.34174
5.29106
5.24031
5.18948
5.13857
5.08759
5.03653
4.9854
4.9342
4.88292
4.83156
4.78013
4.72862
4.67703
4.62537
4.57363
4.52182
4.46992
4.41795
4.3659
4.31377
4.26156
4.20927
4.1569
4.10444
4.0519
3.99928
3.94657
3.89378
3.8409
3.78792
3.73486
3.6817
3.62845
3.5751
3.52165
3.4681
3.41445
3.3607
3.30683
3.25286
3.19878
3.14458
3.09027
3.03584
2.98129
2.92661
2.87181
2.81689
2.76183
2.70664
2.65132
2.59587
2.54027
2.48454
2.42866
2.37265
2.3165
2.26021
2.20378
2.14721
2.09051
2.03367
1.97669
1.9196
1.86234
1.80504
9.23578
9.19217
9.14832
9.10418
9.05971
9.01498
8.97007
8.92499
8.87979
8.83445
8.78902
8.74349
8.69787
8.65217
8.6064
8.56057
8.51466
8.4687
8.42268
8.3766
8.33047
8.28428
8.23804
8.19174
8.14539
8.09898
8.05251
8.006
7.95942
7.91278
7.86609
7.81933
7.77251
7.72563
7.67869
7.63168
7.5846
7.53746
7.49025
7.44297
7.39563
7.34821
7.30072
7.25316
7.20553
7.15782
7.11004
7.06219
7.01426
6.96626
6.91818
6.87003
6.8218
6.7735
6.72512
6.67666
6.62813
6.57951
6.53083
6.48206
6.43322
6.3843
6.3353
6.28623
6.23708
6.18785
6.13854
6.08916
6.0397
5.99016
5.94055
5.89086
5.84109
5.79125
5.74133
5.69133
5.64126
5.59112
5.5409
5.4906
5.44023
5.38978
5.33925
5.28866
5.23798
5.18724
5.13641
5.08552
5.03454
4.9835
4.93237
4.88118
4.8299
4.77855
4.72713
4.67563
4.62405
4.5724
4.52066
4.46886
4.41697
4.365
4.31296
4.26083
4.20863
4.15634
4.10397
4.05152
3.99898
3.94636
3.89365
3.84085
3.78796
3.73498
3.68191
3.62875
3.57548
3.52212
3.46866
3.4151
3.36143
3.30765
3.25377
3.19977
3.14566
3.09144
3.03709
2.98263
2.92804
2.87333
2.8185
2.76353
2.70843
2.6532
2.59783
2.54232
2.48668
2.43089
2.37497
2.31891
2.26271
2.20637
2.1499
2.09328
2.03654
1.97965
1.92266
1.86551
1.80829
9.22064
9.17718
9.13345
9.08943
9.0451
9.0005
8.95572
8.91078
8.8657
8.82049
8.77519
8.72978
8.68429
8.63872
8.59308
8.54737
8.5016
8.45576
8.40987
8.36392
8.31791
8.27185
8.22574
8.17957
8.13334
8.08706
8.04073
7.99434
7.94789
7.90138
7.85482
7.80819
7.7615
7.71475
7.66794
7.62106
7.57411
7.5271
7.48002
7.43287
7.38566
7.33837
7.29101
7.24358
7.19608
7.14851
7.10086
7.05314
7.00535
6.95748
6.90953
6.86151
6.81342
6.76525
6.717
6.66868
6.62028
6.5718
6.52325
6.47462
6.42591
6.37712
6.32826
6.27932
6.2303
6.18121
6.13204
6.0828
6.03347
5.98407
5.93459
5.88504
5.83541
5.7857
5.73592
5.68606
5.63613
5.58612
5.53604
5.48588
5.43564
5.38534
5.33495
5.28449
5.23396
5.18335
5.13267
5.08191
5.03108
4.98017
4.92919
4.87813
4.82699
4.77579
4.7245
4.67314
4.62171
4.57019
4.5186
4.46694
4.41519
4.36337
4.31146
4.25948
4.20742
4.15527
4.10305
4.05074
3.99834
3.94586
3.8933
3.84064
3.7879
3.73507
3.68214
3.62912
3.576
3.52278
3.46947
3.41605
3.36253
3.3089
3.25516
3.20131
3.14735
3.09327
3.03907
2.98476
2.93032
2.87576
2.82107
2.76625
2.7113
2.65621
2.60099
2.54564
2.49014
2.43451
2.37874
2.32283
2.26678
2.2106
2.15427
2.09782
2.04122
1.9845
1.92766
1.87069
1.81361
1.75644
9.19811
9.15486
9.11131
9.06748
9.02334
8.97894
8.93435
8.8896
8.84471
8.79969
8.75458
8.70936
8.66406
8.61868
8.57323
8.52771
8.48213
8.43648
8.39078
8.34502
8.2992
8.25333
8.2074
8.16142
8.11539
8.0693
8.02316
7.97696
7.9307
7.88439
7.83801
7.79158
7.74508
7.69852
7.6519
7.60521
7.55846
7.51164
7.46476
7.4178
7.37078
7.32369
7.27653
7.22929
7.18199
7.13461
7.08716
7.03963
6.99204
6.94436
6.89661
6.84879
6.80089
6.75292
6.70487
6.65675
6.60855
6.56027
6.51191
6.46348
6.41497
6.36639
6.31773
6.26899
6.22017
6.17128
6.12231
6.07327
6.02415
5.97495
5.92567
5.87632
5.82689
5.77739
5.72781
5.67816
5.62843
5.57863
5.52875
5.47879
5.42876
5.37866
5.32848
5.27823
5.2279
5.1775
5.12702
5.07647
5.02584
4.97514
4.92437
4.87352
4.8226
4.7716
4.72052
4.66937
4.61814
4.56684
4.51546
4.464
4.41247
4.36085
4.30916
4.25739
4.20554
4.15361
4.10159
4.04949
3.99731
3.94505
3.89269
3.84025
3.78773
3.7351
3.68239
3.62959
3.57668
3.52368
3.47058
3.41738
3.36407
3.31066
3.25714
3.20351
3.14976
3.0959
3.04192
2.98783
2.93361
2.87926
2.82479
2.7702
2.71547
2.6606
2.60561
2.55047
2.4952
2.43979
2.38425
2.32856
2.27274
2.21678
2.16069
2.10446
2.0481
1.99161
1.935
1.87829
1.82144
1.76453
1.70757
9.16837
9.12537
9.08207
9.03848
8.99459
8.95045
8.90612
8.86162
8.81698
8.77222
8.72735
8.68239
8.63734
8.59221
8.547
8.50173
8.4564
8.411
8.36555
8.32004
8.27447
8.22885
8.18318
8.13745
8.09167
8.04583
7.99994
7.95399
7.90799
7.86192
7.8158
7.76962
7.72338
7.67707
7.63071
7.58427
7.53778
7.49121
7.44458
7.39789
7.35112
7.30428
7.25738
7.2104
7.16335
7.11623
7.06904
7.02178
6.97444
6.92702
6.87953
6.83197
6.78433
6.73662
6.68883
6.64097
6.59303
6.54501
6.49692
6.44875
6.40051
6.35219
6.30379
6.25532
6.20677
6.15814
6.10944
6.06066
6.0118
5.96287
5.91386
5.86478
5.81562
5.76638
5.71707
5.66769
5.61823
5.56869
5.51909
5.4694
5.41964
5.36981
5.3199
5.26992
5.21987
5.16974
5.11953
5.06925
5.0189
4.96848
4.91797
4.8674
4.81675
4.76603
4.71523
4.66435
4.6134
4.56237
4.51127
4.46009
4.40883
4.3575
4.30608
4.25459
4.20302
4.15137
4.09963
4.04781
3.99591
3.94393
3.89186
3.8397
3.78745
3.73511
3.68268
3.63016
3.57754
3.52482
3.47201
3.41909
3.36607
3.31294
3.25971
3.20636
3.1529
3.09933
3.04564
2.99183
2.9379
2.88385
2.82967
2.77536
2.72092
2.66635
2.61165
2.55681
2.50183
2.44672
2.39147
2.33608
2.28056
2.2249
2.1691
2.11318
2.05712
2.00095
1.94464
1.88825
1.83173
1.77515
1.71855
1.662
9.13156
9.08888
9.04589
9.0026
8.95903
8.9152
8.87118
8.82699
8.78266
8.73821
8.69365
8.649
8.60425
8.55943
8.51454
8.46958
8.42455
8.37947
8.33432
8.28912
8.24387
8.19856
8.15319
8.10777
8.0623
8.01678
7.97119
7.92556
7.87987
7.83412
7.78831
7.74244
7.69651
7.65052
7.60447
7.55835
7.51217
7.46592
7.41961
7.37322
7.32677
7.28026
7.23367
7.18701
7.14028
7.09348
7.04661
6.99966
6.95264
6.90555
6.85838
6.81114
6.76382
6.71643
6.66897
6.62143
6.57381
6.52612
6.47836
6.43051
6.38259
6.3346
6.28653
6.23838
6.19016
6.14186
6.09348
6.04503
5.99651
5.94791
5.89923
5.85048
5.80165
5.75274
5.70377
5.65471
5.60559
5.55639
5.50711
5.45776
5.40834
5.35884
5.30927
5.25962
5.2099
5.16011
5.11024
5.0603
5.01029
4.9602
4.91004
4.8598
4.80949
4.75911
4.70865
4.65812
4.60751
4.55682
4.50606
4.45522
4.40431
4.35332
4.30225
4.2511
4.19987
4.14857
4.09718
4.04571
3.99415
3.94251
3.89079
3.83898
3.78708
3.73509
3.68301
3.63084
3.57857
3.52621
3.47374
3.42118
3.36851
3.31573
3.26285
3.20986
3.15676
3.10354
3.05021
2.99676
2.94319
2.88949
2.83567
2.78173
2.72765
2.67344
2.6191
2.56462
2.51001
2.45526
2.40037
2.34535
2.2902
2.23491
2.17948
2.12393
2.06825
2.01246
1.95654
1.90053
1.84442
1.78824
1.73207
1.67595
9.08786
9.04554
9.00291
8.95999
8.91678
8.87333
8.82968
8.78586
8.7419
8.69781
8.65362
8.60933
8.56496
8.5205
8.47597
8.43138
8.38672
8.342
8.29723
8.25239
8.20751
8.16256
8.11757
8.07252
8.02742
7.98226
7.93705
7.89178
7.84646
7.80108
7.75565
7.71015
7.66459
7.61897
7.57329
7.52755
7.48174
7.43587
7.38993
7.34392
7.29785
7.25171
7.2055
7.15922
7.11287
7.06644
7.01995
6.97338
6.92674
6.88003
6.83325
6.78639
6.73945
6.69245
6.64537
6.59821
6.55098
6.50367
6.45629
6.40884
6.3613
6.3137
6.26601
6.21825
6.17042
6.12251
6.07452
6.02647
5.97833
5.93012
5.88183
5.83347
5.78504
5.73653
5.68795
5.63929
5.59056
5.54175
5.49287
5.44392
5.39489
5.34579
5.29662
5.24737
5.19805
5.14866
5.09919
5.04965
5.00004
4.95035
4.90059
4.85076
4.80086
4.75088
4.70082
4.65069
4.60049
4.55021
4.49986
4.44943
4.39892
4.34834
4.29767
4.24694
4.19612
4.14522
4.09424
4.04318
3.99204
3.94082
3.88951
3.83811
3.78662
3.73505
3.68339
3.63163
3.57978
3.52783
3.47578
3.42363
3.37139
3.31903
3.26657
3.214
3.16132
3.10853
3.05562
3.00259
2.94944
2.89617
2.84278
2.78926
2.73561
2.68183
2.62792
2.57387
2.51969
2.46538
2.41093
2.35634
2.30162
2.24677
2.19179
2.13668
2.08145
2.02611
1.97064
1.9151
1.85945
1.80376
1.74808
1.69244
1.63684
9.03742
8.99552
8.95331
8.9108
8.86802
8.82499
8.78176
8.73837
8.69484
8.65117
8.60741
8.56354
8.51959
8.47556
8.43145
8.38728
8.34305
8.29875
8.2544
8.20999
8.16553
8.12101
8.07644
8.03182
7.98714
7.94241
7.89762
7.85279
7.80789
7.76294
7.71793
7.67287
7.62774
7.58255
7.5373
7.49199
7.44661
7.40117
7.35567
7.31009
7.26445
7.21875
7.17297
7.12713
7.08121
7.03523
6.98917
6.94304
6.89684
6.85057
6.80423
6.75781
6.71132
6.66475
6.61811
6.5714
6.52461
6.47775
6.43081
6.3838
6.33672
6.28956
6.24232
6.19501
6.14762
6.10016
6.05263
6.00502
5.95734
5.90958
5.86175
5.81384
5.76586
5.7178
5.66967
5.62147
5.5732
5.52485
5.47642
5.42793
5.37936
5.33072
5.28201
5.23322
5.18436
5.13543
5.08643
5.03735
4.9882
4.93898
4.88968
4.84032
4.79087
4.74136
4.69177
4.64211
4.59238
4.54257
4.49268
4.44272
4.39268
4.34257
4.29238
4.24212
4.19177
4.14135
4.09084
4.04026
3.98959
3.93884
3.88801
3.83709
3.78608
3.73499
3.6838
3.63253
3.58116
3.52969
3.47812
3.42646
3.37469
3.32283
3.27085
3.21877
3.16657
3.11427
3.06185
3.00931
2.95665
2.90387
2.85097
2.79795
2.74479
2.69151
2.63809
2.58454
2.53086
2.47705
2.4231
2.36902
2.3148
2.26046
2.20598
2.15139
2.09667
2.04185
1.98691
1.93189
1.87679
1.82164
1.76652
1.71144
1.65637
1.60136
8.9804
8.93897
8.89722
8.85519
8.81288
8.77033
8.72759
8.68467
8.64162
8.59844
8.55515
8.51176
8.46829
8.42474
8.38111
8.33742
8.29366
8.24985
8.20597
8.16204
8.11806
8.07402
8.02993
7.98579
7.9416
7.89735
7.85305
7.80869
7.76428
7.71981
7.67529
7.63071
7.58607
7.54137
7.4966
7.45178
7.40689
7.36194
7.31692
7.27184
7.22669
7.18148
7.13619
7.09084
7.04542
6.99993
6.95437
6.90874
6.86303
6.81726
6.77141
6.72549
6.67949
6.63343
6.58729
6.54108
6.49479
6.44843
6.402
6.35549
6.30891
6.26226
6.21553
6.16872
6.12185
6.07489
6.02787
5.98077
5.9336
5.88635
5.83903
5.79163
5.74416
5.69662
5.64901
5.60132
5.55356
5.50573
5.45782
5.40985
5.3618
5.31367
5.26548
5.21722
5.16888
5.12047
5.07199
5.02343
4.97481
4.92611
4.87734
4.8285
4.77958
4.7306
4.68154
4.6324
4.5832
4.53392
4.48456
4.43513
4.38563
4.33605
4.28639
4.23666
4.18685
4.13696
4.08699
4.03695
3.98682
3.93661
3.88631
3.83593
3.78547
3.73491
3.68427
3.63353
3.58271
3.53178
3.48076
3.42965
3.37843
3.32711
3.27568
3.22415
3.1725
3.12075
3.06888
3.0169
2.9648
2.91257
2.86023
2.80776
2.75516
2.70244
2.64958
2.5966
2.54348
2.49023
2.43685
2.38334
2.32969
2.27592
2.22203
2.16801
2.11388
2.05963
2.00529
1.95087
1.89637
1.84184
1.78734
1.73287
1.67841
1.62402
8.91695
8.87604
8.83482
8.79331
8.75153
8.70951
8.6673
8.62492
8.5824
8.53975
8.49699
8.45414
8.41119
8.36818
8.32508
8.28192
8.2387
8.19542
8.15208
8.10868
8.06523
8.02173
7.97818
7.93457
7.89091
7.8472
7.80343
7.75962
7.71575
7.67182
7.62783
7.58379
7.53969
7.49553
7.45131
7.40703
7.36268
7.31828
7.2738
7.22927
7.18467
7.14
7.09526
7.05046
7.00559
6.96064
6.91563
6.87055
6.8254
6.78018
6.73488
6.68952
6.64408
6.59857
6.55299
6.50734
6.46161
6.41581
6.36994
6.32399
6.27797
6.23188
6.18571
6.13947
6.09316
6.04677
6.00031
5.95378
5.90717
5.86049
5.81374
5.76692
5.72002
5.67305
5.62601
5.57889
5.53171
5.48445
5.43712
5.38972
5.34225
5.2947
5.24709
5.1994
5.15164
5.10381
5.05591
5.00794
4.9599
4.91178
4.8636
4.81534
4.76701
4.71861
4.67014
4.62159
4.57298
4.52429
4.47552
4.42669
4.37777
4.32879
4.27972
4.23058
4.18137
4.13208
4.08271
4.03326
3.98372
3.93411
3.88442
3.83464
3.78477
3.73482
3.68478
3.63465
3.58443
3.53411
3.4837
3.43319
3.38258
3.33187
3.28105
3.23013
3.1791
3.12796
3.07671
3.02534
2.97386
2.92225
2.87052
2.81868
2.7667
2.7146
2.66237
2.61001
2.55752
2.5049
2.45215
2.39927
2.34626
2.29313
2.23987
2.1865
2.13301
2.07942
2.02574
1.97197
1.91816
1.8643
1.81048
1.75668
1.70291
1.64918
1.59548
8.84723
8.80689
8.76624
8.7253
8.68411
8.64268
8.60105
8.55925
8.51732
8.47525
8.43308
8.39081
8.34845
8.30602
8.26351
8.22093
8.1783
8.1356
8.09285
8.05004
8.00718
7.96426
7.9213
7.87828
7.83521
7.79209
7.74891
7.70569
7.66241
7.61907
7.57568
7.53223
7.48872
7.44516
7.40153
7.35785
7.3141
7.27029
7.22642
7.18248
7.13848
7.09441
7.05028
7.00608
6.96181
6.91747
6.87307
6.82859
6.78405
6.73943
6.69475
6.64999
6.60516
6.56026
6.5153
6.47025
6.42514
6.37995
6.3347
6.28937
6.24396
6.19849
6.15294
6.10732
6.06163
6.01586
5.97003
5.92412
5.87813
5.83208
5.78595
5.73975
5.69348
5.64714
5.60073
5.55425
5.50769
5.46106
5.41437
5.3676
5.32076
5.27385
5.22687
5.17982
5.1327
5.08551
5.03825
4.99092
4.94351
4.89604
4.8485
4.80088
4.7532
4.70544
4.65762
4.60972
4.56175
4.5137
4.46559
4.4174
4.36914
4.3208
4.27239
4.22391
4.17534
4.12671
4.07799
4.0292
3.98032
3.93137
3.88233
3.83322
3.78401
3.73472
3.68535
3.63588
3.58632
3.53667
3.48692
3.43708
3.38714
3.3371
3.28696
3.23671
3.18635
3.13588
3.08531
3.03462
2.98381
2.93288
2.88184
2.83067
2.77938
2.72797
2.67642
2.62475
2.57295
2.52102
2.46897
2.41678
2.36447
2.31204
2.25949
2.20682
2.15404
2.10117
2.0482
1.99517
1.94208
1.88897
1.83588
1.78283
1.7298
1.6768
1.62384
1.57091
8.77141
8.73168
8.69165
8.65134
8.61077
8.56997
8.52898
8.48782
8.44652
8.40509
8.36355
8.32192
8.2802
8.2384
8.19653
8.15459
8.11259
8.07053
8.02842
7.98625
7.94403
7.90175
7.85942
7.81704
7.77461
7.73214
7.6896
7.64702
7.60438
7.56169
7.51895
7.47614
7.43328
7.39036
7.34739
7.30435
7.26125
7.21809
7.17487
7.13159
7.08824
7.04482
7.00135
6.9578
6.91419
6.87051
6.82676
6.78295
6.73906
6.69511
6.65108
6.60699
6.56283
6.51859
6.47429
6.42992
6.38547
6.34095
6.29636
6.2517
6.20697
6.16217
6.11729
6.07235
6.02733
5.98224
5.93708
5.89185
5.84655
5.80117
5.75573
5.71021
5.66462
5.61896
5.57323
5.52743
5.48156
5.43563
5.38962
5.34354
5.29739
5.25117
5.20488
5.15852
5.1121
5.0656
5.01903
4.9724
4.92569
4.87891
4.83207
4.78516
4.73817
4.69112
4.64399
4.5968
4.54953
4.50219
4.45478
4.4073
4.35975
4.31212
4.26442
4.21664
4.16879
4.12087
4.07286
4.02479
3.97663
3.92839
3.88007
3.83167
3.78318
3.73462
3.68596
3.63721
3.58838
3.53945
3.49043
3.44132
3.39211
3.34279
3.29338
3.24386
3.19424
3.1445
3.09466
3.04471
2.99464
2.94445
2.89415
2.84373
2.79318
2.74251
2.69171
2.64079
2.58974
2.53857
2.48726
2.43584
2.38429
2.33262
2.28083
2.22893
2.17692
2.12483
2.07264
2.02039
1.9681
1.91579
1.8635
1.81124
1.75902
1.70682
1.65466
1.60253
1.55046
8.68963
8.65056
8.6112
8.57156
8.53167
8.49155
8.45124
8.41077
8.37015
8.32941
8.28856
8.24761
8.20657
8.16546
8.12428
8.08303
8.04172
8.00035
7.95892
7.91744
7.8759
7.83432
7.79268
7.75099
7.70925
7.66747
7.62563
7.58374
7.5418
7.4998
7.45775
7.41564
7.37348
7.33126
7.28898
7.24664
7.20425
7.16179
7.11927
7.07669
7.03405
6.99134
6.94856
6.90573
6.86282
6.81985
6.77682
6.73371
6.69054
6.6473
6.60399
6.56061
6.51716
6.47365
6.43006
6.38641
6.34268
6.29888
6.25502
6.21108
6.16707
6.123
6.07885
6.03463
5.99034
5.94598
5.90155
5.85705
5.81248
5.76783
5.72312
5.67834
5.63349
5.58857
5.54358
5.49852
5.45339
5.40819
5.36292
5.31759
5.27218
5.22671
5.18116
5.13555
5.08987
5.04413
4.99831
4.95242
4.90647
4.86044
4.81435
4.76819
4.72196
4.67567
4.6293
4.58286
4.53635
4.48978
4.44313
4.39641
4.34962
4.30276
4.25582
4.20881
4.16173
4.11457
4.06734
4.02003
3.97264
3.92518
3.87763
3.83
3.7823
3.7345
3.68663
3.63866
3.5906
3.54246
3.49422
3.44589
3.39746
3.34894
3.30031
3.25158
3.20275
3.15381
3.10476
3.0556
3.00633
2.95694
2.90744
2.85781
2.80807
2.7582
2.70821
2.6581
2.60786
2.5575
2.50701
2.4564
2.40566
2.35482
2.30385
2.25278
2.20161
2.15035
2.09901
2.0476
1.99617
1.94471
1.89328
1.84188
1.79051
1.73917
1.68787
1.6366
1.58539
8.60205
8.56369
8.52504
8.48612
8.44695
8.40757
8.36799
8.32824
8.28836
8.24835
8.20823
8.16802
8.12772
8.08734
8.0469
8.00638
7.9658
7.92517
7.88448
7.84374
7.80294
7.7621
7.7212
7.68025
7.63925
7.59821
7.55711
7.51596
7.47476
7.43351
7.39221
7.35085
7.30943
7.26796
7.22643
7.18484
7.1432
7.10149
7.05972
7.0179
6.97601
6.93405
6.89204
6.84996
6.80781
6.7656
6.72333
6.68098
6.63857
6.5961
6.55355
6.51094
6.46826
6.42551
6.38269
6.33981
6.29685
6.25383
6.21074
6.16757
6.12434
6.08104
6.03767
5.99423
5.95072
5.90714
5.86349
5.81978
5.77599
5.73213
5.68821
5.64421
5.60015
5.55602
5.51182
5.46755
5.42321
5.37881
5.33433
5.28979
5.24519
5.20051
5.15577
5.11096
5.06608
5.02113
4.97612
4.93103
4.88588
4.84067
4.79538
4.75003
4.70461
4.65912
4.61357
4.56794
4.52225
4.47648
4.43065
4.38475
4.33878
4.29273
4.24662
4.20043
4.15417
4.10783
4.06142
4.01494
3.96838
3.92174
3.87502
3.82823
3.78135
3.73439
3.68734
3.64021
3.59299
3.54569
3.49829
3.4508
3.40321
3.35553
3.30774
3.25986
3.21187
3.16378
3.11558
3.06727
3.01885
2.97032
2.92167
2.87291
2.82402
2.77502
2.72589
2.67664
2.62727
2.57778
2.52816
2.47843
2.42857
2.3786
2.32852
2.27834
2.22806
2.17769
2.12725
2.07675
2.02622
1.97568
1.92516
1.87467
1.82422
1.7738
1.72341
1.67307
1.62277
1.57252
8.50883
8.47122
8.43333
8.39517
8.35678
8.31816
8.27936
8.24039
8.20129
8.16206
8.12273
8.0833
8.04378
8.00418
7.96452
7.92479
7.88499
7.84514
7.80524
7.76528
7.72527
7.68521
7.6451
7.60494
7.56473
7.52447
7.48417
7.44381
7.4034
7.36295
7.32243
7.28187
7.24125
7.20057
7.15984
7.11905
7.0782
7.0373
6.99633
6.95531
6.91422
6.87307
6.83186
6.79059
6.74925
6.70785
6.66638
6.62485
6.58325
6.54159
6.49986
6.45806
6.4162
6.37427
6.33227
6.29021
6.24807
6.20587
6.1636
6.12126
6.07886
6.03638
5.99384
5.95123
5.90855
5.8658
5.82299
5.7801
5.73715
5.69413
5.65104
5.60788
5.56466
5.52137
5.47801
5.43458
5.39109
5.34753
5.30391
5.26021
5.21645
5.17263
5.12873
5.08477
5.04075
4.99665
4.9525
4.90827
4.86398
4.81962
4.77519
4.7307
4.68614
4.64152
4.59683
4.55207
4.50724
4.46234
4.41738
4.37234
4.32724
4.28207
4.23682
4.19151
4.14612
4.10067
4.05513
4.00953
3.96385
3.91809
3.87226
3.82634
3.78035
3.73427
3.68812
3.64187
3.59555
3.54913
3.50262
3.45603
3.40934
3.36255
3.31566
3.26868
3.22159
3.17441
3.12711
3.07971
3.0322
2.98458
2.93684
2.88899
2.84102
2.79293
2.74472
2.6964
2.64795
2.59938
2.55069
2.50189
2.45297
2.40393
2.35479
2.30555
2.25622
2.2068
2.15732
2.10778
2.05822
2.00865
1.9591
1.90958
1.86009
1.81064
1.76123
1.71187
1.66253
1.61327
1.56405
8.41012
8.37331
8.33621
8.29887
8.26128
8.22349
8.18551
8.14736
8.10909
8.07069
8.03218
7.99357
7.95488
7.91612
7.87728
7.83838
7.79941
7.7604
7.72132
7.6822
7.64302
7.60379
7.56452
7.52519
7.48582
7.4464
7.40693
7.36741
7.32784
7.28822
7.24855
7.20882
7.16905
7.12921
7.08932
7.04938
7.00938
6.96932
6.92921
6.88903
6.8488
6.8085
6.76814
6.72772
6.68724
6.6467
6.60609
6.56541
6.52468
6.48387
6.44301
6.40207
6.36107
6.32001
6.27888
6.23768
6.19642
6.15509
6.11369
6.07223
6.03069
5.98909
5.94743
5.90569
5.86389
5.82203
5.78009
5.73809
5.69603
5.65389
5.61169
5.56942
5.52708
5.48468
5.44222
5.39968
5.35708
5.31442
5.27169
5.22889
5.18603
5.1431
5.10011
5.05705
5.01393
4.97074
4.92749
4.88417
4.84078
4.79733
4.75382
4.71024
4.66659
4.62288
4.5791
4.53526
4.49135
4.44737
4.40332
4.35921
4.31503
4.27078
4.22646
4.18207
4.13762
4.09308
4.04848
4.00381
3.95906
3.91423
3.86933
3.82436
3.7793
3.73416
3.68894
3.64364
3.59826
3.55278
3.50722
3.46157
3.41583
3.36999
3.32406
3.27803
3.2319
3.18567
3.13933
3.09289
3.04634
2.99968
2.95291
2.90603
2.85903
2.81191
2.76468
2.71733
2.66986
2.62227
2.57456
2.52675
2.47881
2.43077
2.38263
2.33439
2.28606
2.23765
2.18917
2.14065
2.09211
2.04356
1.99503
1.94653
1.89807
1.84964
1.80126
1.75293
1.70462
1.65639
1.6082
1.56009
8.30608
8.2701
8.23385
8.19736
8.16063
8.12369
8.08658
8.0493
8.01189
7.97436
7.93672
7.89899
7.86118
7.82328
7.78532
7.74729
7.70921
7.67106
7.63287
7.59462
7.55632
7.51797
7.47957
7.44113
7.40263
7.36409
7.3255
7.28687
7.24818
7.20945
7.17066
7.13183
7.09294
7.05399
7.015
6.97594
6.93684
6.89767
6.85845
6.81917
6.77983
6.74043
6.70098
6.66146
6.62188
6.58223
6.54253
6.50276
6.46293
6.42304
6.38308
6.34306
6.30297
6.26282
6.2226
6.18232
6.14197
6.10156
6.06108
6.02054
5.97993
5.93925
5.89851
5.8577
5.81683
5.77589
5.73489
5.69382
5.65268
5.61148
5.57021
5.52888
5.48748
5.44602
5.40449
5.3629
5.32124
5.27952
5.23773
5.19588
5.15397
5.11199
5.06995
5.02784
4.98567
4.94344
4.90114
4.85877
4.81634
4.77385
4.7313
4.68868
4.64599
4.60324
4.56043
4.51755
4.47461
4.4316
4.38852
4.34538
4.30217
4.25889
4.21555
4.17214
4.12865
4.0851
4.04148
3.99778
3.95402
3.91018
3.86626
3.82227
3.7782
3.73405
3.68983
3.64552
3.60112
3.55665
3.51208
3.46743
3.42269
3.37785
3.33292
3.2879
3.24277
3.19755
3.15222
3.1068
3.06126
3.01562
2.96987
2.924
2.87803
2.83193
2.78573
2.7394
2.69297
2.64641
2.59974
2.55296
2.50607
2.45908
2.41198
2.36479
2.31752
2.27017
2.22276
2.17531
2.12783
2.08036
2.03291
1.98548
1.9381
1.89075
1.84344
1.79619
1.74897
1.70182
1.65471
1.60768
8.19686
8.16176
8.12639
8.09079
8.05496
8.01892
7.98271
7.94635
7.90985
7.87324
7.83651
7.7997
7.7628
7.72582
7.68878
7.65167
7.6145
7.57727
7.54
7.50267
7.46529
7.42787
7.39039
7.35287
7.3153
7.27769
7.24002
7.20232
7.16456
7.12676
7.0889
7.05099
7.01304
6.97503
6.93696
6.89885
6.86068
6.82245
6.78417
6.74583
6.70743
6.66898
6.63046
6.59189
6.55326
6.51456
6.47581
6.43699
6.39811
6.35917
6.32017
6.2811
6.24197
6.20278
6.16352
6.1242
6.08482
6.04537
6.00586
5.96628
5.92664
5.88693
5.84716
5.80732
5.76742
5.72746
5.68743
5.64734
5.60718
5.56696
5.52667
5.48632
5.44591
5.40543
5.36489
5.32429
5.28362
5.24289
5.20209
5.16124
5.12032
5.07933
5.03829
4.99718
4.95601
4.91477
4.87348
4.83212
4.79069
4.74921
4.70766
4.66605
4.62437
4.58264
4.54083
4.49897
4.45704
4.41505
4.37299
4.33086
4.28868
4.24642
4.2041
4.16171
4.11926
4.07673
4.03413
3.99147
3.94873
3.90593
3.86305
3.82009
3.77706
3.73395
3.69076
3.6475
3.60415
3.56071
3.5172
3.47359
3.4299
3.38612
3.34224
3.29827
3.2542
3.21004
3.16577
3.12141
3.07694
3.03236
2.98768
2.94289
2.89798
2.85297
2.80784
2.7626
2.71724
2.67177
2.62619
2.58051
2.53471
2.48881
2.44281
2.39673
2.35056
2.30433
2.25803
2.2117
2.16535
2.119
2.07267
2.02637
1.98011
1.93389
1.88771
1.84159
1.79551
1.74949
1.70352
1.65762
1.61178
8.08261
8.04843
8.01399
7.97931
7.94442
7.90933
7.87407
7.83866
7.80311
7.76745
7.73168
7.69583
7.65989
7.62387
7.58778
7.55164
7.51543
7.47916
7.44285
7.40649
7.37007
7.33361
7.2971
7.26055
7.22394
7.1873
7.15061
7.11387
7.07708
7.04025
7.00337
6.96644
6.92946
6.89242
6.85534
6.8182
6.78101
6.74377
6.70647
6.66911
6.6317
6.59423
6.55671
6.51912
6.48148
6.44378
6.40602
6.36819
6.33031
6.29237
6.25436
6.2163
6.17817
6.13998
6.10172
6.06341
6.02503
5.98659
5.94809
5.90952
5.8709
5.8322
5.79345
5.75463
5.71575
5.6768
5.63779
5.59872
5.55959
5.52039
5.48114
5.44181
5.40243
5.36298
5.32347
5.2839
5.24427
5.20458
5.16482
5.125
5.08512
5.04518
5.00518
4.96511
4.92499
4.8848
4.84455
4.80424
4.76387
4.72343
4.68294
4.64238
4.60177
4.56109
4.52034
4.47954
4.43867
4.39774
4.35675
4.31569
4.27457
4.23338
4.19213
4.15082
4.10943
4.06798
4.02646
3.98488
3.94322
3.90149
3.85969
3.81782
3.77587
3.73385
3.69175
3.64958
3.60732
3.56498
3.52256
3.48005
3.43746
3.39477
3.352
3.30913
3.26617
3.22312
3.17996
3.13671
3.09335
3.04989
3.00633
2.96266
2.91888
2.87499
2.83099
2.78688
2.74265
2.69832
2.65388
2.60933
2.56468
2.51993
2.47508
2.43015
2.38514
2.34007
2.29494
2.24978
2.2046
2.15942
2.11427
2.06915
2.02406
1.97902
1.93402
1.88908
1.84418
1.79933
1.75456
1.70984
1.66517
1.6206
7.96349
7.93026
7.89679
7.86308
7.82917
7.79506
7.76079
7.72636
7.69181
7.65715
7.62238
7.58752
7.55258
7.51756
7.48247
7.44733
7.41213
7.37687
7.34155
7.30619
7.27079
7.23533
7.19983
7.16428
7.12869
7.09305
7.05737
7.02165
6.98587
6.95006
6.91419
6.87827
6.84231
6.80629
6.77023
6.73411
6.69795
6.66172
6.62545
6.58912
6.55274
6.5163
6.4798
6.44325
6.40664
6.36997
6.33325
6.29646
6.25962
6.22271
6.18575
6.14873
6.11164
6.0745
6.03729
6.00003
5.9627
5.92531
5.88786
5.85035
5.81278
5.77514
5.73745
5.69969
5.66187
5.62399
5.58604
5.54804
5.50998
5.47185
5.43366
5.39541
5.3571
5.31873
5.28029
5.2418
5.20325
5.16463
5.12596
5.08722
5.04843
5.00958
4.97066
4.93168
4.89265
4.85355
4.8144
4.77518
4.73591
4.69657
4.65717
4.61772
4.5782
4.53863
4.49899
4.45929
4.41953
4.37971
4.33983
4.29988
4.25987
4.2198
4.17967
4.13947
4.0992
4.05887
4.01848
3.97801
3.93748
3.89688
3.85621
3.81547
3.77465
3.73376
3.6928
3.65176
3.61064
3.56944
3.52816
3.4868
3.44535
3.40382
3.36219
3.32048
3.27867
3.23677
3.19477
3.15268
3.11048
3.06819
3.02579
2.98329
2.94068
2.89796
2.85514
2.81221
2.76917
2.72602
2.68276
2.63941
2.59595
2.55239
2.50875
2.46502
2.42122
2.37735
2.33344
2.2895
2.24554
2.20158
2.15765
2.11375
2.06989
2.02607
1.9823
1.93858
1.89491
1.8513
1.80775
1.76426
1.72082
1.67748
7.83966
7.80741
7.77494
7.74225
7.70935
7.67626
7.64301
7.60962
7.5761
7.54247
7.50874
7.47492
7.44101
7.40704
7.37299
7.33889
7.30473
7.27051
7.23624
7.20193
7.16756
7.13315
7.0987
7.0642
7.02966
6.99507
6.96044
6.92577
6.89105
6.85628
6.82147
6.78661
6.75171
6.71675
6.68175
6.64669
6.61159
6.57643
6.54122
6.50596
6.47065
6.43528
6.39985
6.36437
6.32884
6.29325
6.2576
6.22189
6.18613
6.1503
6.11442
6.07848
6.04249
6.00643
5.97031
5.93414
5.8979
5.86161
5.82525
5.78884
5.75236
5.71583
5.67923
5.64258
5.60586
5.56908
5.53225
5.49535
5.4584
5.42138
5.38431
5.34717
5.30998
5.27272
5.23541
5.19804
5.16061
5.12312
5.08557
5.04796
5.01029
4.97257
4.93478
4.89694
4.85904
4.82108
4.78306
4.74498
4.70684
4.66865
4.6304
4.59209
4.55371
4.51528
4.4768
4.43825
4.39964
4.36097
4.32224
4.28345
4.2446
4.20569
4.16672
4.12768
4.08858
4.04941
4.01018
3.97089
3.93153
3.8921
3.8526
3.81303
3.77339
3.73368
3.6939
3.65404
3.61411
3.57409
3.534
3.49383
3.45357
3.41323
3.3728
3.33228
3.29167
3.25098
3.21018
3.16929
3.12831
3.08723
3.04604
3.00475
2.96336
2.92187
2.88027
2.83856
2.79675
2.75483
2.71281
2.67069
2.62848
2.58617
2.54377
2.50129
2.45874
2.41613
2.37348
2.3308
2.28811
2.24542
2.20275
2.16012
2.11753
2.07498
2.03249
1.99004
1.94765
1.90531
1.86304
1.82083
1.77867
1.73659
1.69457
7.71126
7.68004
7.64861
7.61696
7.58511
7.55307
7.52089
7.48857
7.45612
7.42356
7.39091
7.35816
7.32533
7.29243
7.25947
7.22644
7.19336
7.16023
7.12704
7.09381
7.06053
7.02721
6.99384
6.96042
6.92697
6.89347
6.85993
6.82635
6.79272
6.75905
6.72533
6.69157
6.65776
6.62391
6.59
6.55605
6.52205
6.48799
6.45389
6.41973
6.38553
6.35127
6.31695
6.28259
6.24817
6.21369
6.17916
6.14457
6.10993
6.07523
6.04047
6.00565
5.97078
5.93585
5.90087
5.86582
5.83072
5.79556
5.76034
5.72506
5.68972
5.65433
5.61887
5.58336
5.54779
5.51216
5.47647
5.44073
5.40492
5.36906
5.33314
5.29716
5.26112
5.22503
5.18888
5.15267
5.1164
5.08007
5.04369
5.00725
4.97075
4.9342
4.89759
4.86092
4.82419
4.78741
4.75057
4.71367
4.67672
4.63971
4.60264
4.56552
4.52833
4.49109
4.45379
4.41644
4.37902
4.34155
4.30402
4.26643
4.22878
4.19107
4.1533
4.11547
4.07757
4.03962
4.0016
3.96351
3.92536
3.88715
3.84887
3.81052
3.7721
3.73361
3.69505
3.65642
3.61771
3.57893
3.54007
3.50113
3.46211
3.423
3.38382
3.34454
3.30518
3.26572
3.22618
3.18654
3.14681
3.10698
3.06705
3.02703
2.9869
2.94667
2.90634
2.8659
2.82537
2.78473
2.74399
2.70315
2.66222
2.6212
2.5801
2.53891
2.49766
2.45636
2.41501
2.37364
2.33226
2.29088
2.24953
2.20821
2.16693
2.1257
2.08452
2.0434
2.00233
1.96131
1.92036
1.87947
1.83864
1.79787
1.75718
1.71653
7.57844
7.54829
7.51793
7.48736
7.4566
7.42566
7.39457
7.36336
7.33202
7.30057
7.26902
7.23738
7.20567
7.17389
7.14204
7.11013
7.07816
7.04615
7.01408
6.98197
6.94981
6.91761
6.88537
6.85308
6.82075
6.78838
6.75596
6.72351
6.69102
6.65848
6.62589
6.59326
6.56059
6.52787
6.4951
6.46229
6.42943
6.39652
6.36356
6.33055
6.29748
6.26437
6.23121
6.19799
6.16472
6.1314
6.09802
6.06459
6.03111
5.99757
5.96397
5.93032
5.89661
5.86285
5.82903
5.79516
5.76123
5.72724
5.6932
5.65909
5.62494
5.59072
5.55645
5.52212
5.48773
5.45329
5.41879
5.38423
5.34962
5.31495
5.28022
5.24544
5.2106
5.1757
5.14075
5.10574
5.07068
5.03556
5.00038
4.96515
4.92986
4.89452
4.85912
4.82367
4.78816
4.75259
4.71697
4.6813
4.64557
4.60978
4.57394
4.53804
4.50209
4.46608
4.43001
4.39389
4.35771
4.32147
4.28518
4.24883
4.21242
4.17596
4.13943
4.10284
4.0662
4.02949
3.99273
3.9559
3.919
3.88205
3.84502
3.80793
3.77078
3.73356
3.69626
3.6589
3.62146
3.58395
3.54636
3.5087
3.47095
3.43313
3.39522
3.35723
3.31916
3.28099
3.24274
3.2044
3.16596
3.12743
3.08881
3.05009
3.01127
2.97235
2.93333
2.89421
2.85499
2.81567
2.77626
2.73675
2.69715
2.65746
2.61769
2.57785
2.53794
2.49798
2.45799
2.41796
2.37794
2.33792
2.29792
2.25796
2.21804
2.17817
2.13835
2.09859
2.05888
2.01923
1.97964
1.94011
1.90065
1.86124
1.82191
1.78262
1.74342
7.44137
7.41231
7.38306
7.35361
7.32396
7.29415
7.2642
7.23412
7.20393
7.17362
7.14322
7.11273
7.08217
7.05154
7.02084
6.99008
6.95927
6.92841
6.8975
6.86654
6.83554
6.8045
6.77342
6.74229
6.71112
6.67991
6.64866
6.61738
6.58605
6.55467
6.52326
6.4918
6.4603
6.42875
6.39716
6.36552
6.33384
6.3021
6.27032
6.2385
6.20662
6.17469
6.14271
6.11069
6.07861
6.04647
6.01429
5.98206
5.94977
5.91742
5.88503
5.85258
5.82007
5.78751
5.7549
5.72223
5.68951
5.65674
5.6239
5.59102
5.55807
5.52508
5.49202
5.45891
5.42575
5.39253
5.35926
5.32593
5.29254
5.25911
5.22561
5.19206
5.15846
5.1248
5.09109
5.05732
5.0235
4.98962
4.95569
4.92171
4.88767
4.85358
4.81943
4.78523