/*--------------------------------*- C++ -*----------------------------------*\
| =========                 |                                                 |
| \\      /  F ield         | OpenFOAM: The Open Source CFD Toolbox           |
|  \\    /   O peration     | Version:  2512                                  |
|   \\  /    A nd           | Website:  www.openfoam.com                      |
|    \\/     M anipulation  |                                                 |
\*---------------------------------------------------------------------------*/
FoamFile
{
    version     2.0;
    format      ascii;
    arch        "LSB;label=32;scalar=64";
    class       surfaceScalarField;
    location    "0.1";
    object      phi;
}
// * * * * * * * * * * * * * * * * * * * * * * * * * * * * * * * * * * * * * //

dimensions      [1 0 -1 0 0 0 0];

oriented        oriented;

internalField   nonuniform List<scalar> 
16431
(
0.00102909
-1.24341e-06
0.00102981
-1.25582e-06
0.00103053
-1.26645e-06
0.00103122
-1.24004e-06
0.0010319
-1.21802e-06
0.00103257
-1.21395e-06
0.00103324
-1.21498e-06
0.00103391
-1.21422e-06
0.00103457
-1.21256e-06
0.00103524
-1.21106e-06
0.0010359
-1.20971e-06
0.00103656
-1.20834e-06
0.00103722
-1.20697e-06
0.00103788
-1.2056e-06
0.00103854
-1.20425e-06
0.00103919
-1.2029e-06
0.00103984
-1.20157e-06
0.0010405
-1.20024e-06
0.00104115
-1.19891e-06
0.00104179
-1.19758e-06
0.00104244
-1.19626e-06
0.00104309
-1.19493e-06
0.00104373
-1.19361e-06
0.00104437
-1.19228e-06
0.00104501
-1.19095e-06
0.00104565
-1.18963e-06
0.00104629
-1.18829e-06
0.00104692
-1.18696e-06
0.00104755
-1.18562e-06
0.00104819
-1.18428e-06
0.00104882
-1.18294e-06
0.00104944
-1.1816e-06
0.00105007
-1.18025e-06
0.0010507
-1.1789e-06
0.00105132
-1.17755e-06
0.00105194
-1.1762e-06
0.00105256
-1.17484e-06
0.00105318
-1.17348e-06
0.00105379
-1.17212e-06
0.00105441
-1.17076e-06
0.00105502
-1.16939e-06
0.00105563
-1.16802e-06
0.00105624
-1.16664e-06
0.00105685
-1.16529e-06
0.00105746
-1.16388e-06
0.00105806
-1.16255e-06
0.00105866
-1.16113e-06
0.00105926
-1.15974e-06
0.00105986
-1.15836e-06
0.00106046
-1.15697e-06
0.00106106
-1.15559e-06
0.00106165
-1.15419e-06
0.00106224
-1.1528e-06
0.00106283
-1.1514e-06
0.00106342
-1.15e-06
0.00106401
-1.1486e-06
0.00106459
-1.14719e-06
0.00106518
-1.14578e-06
0.00106576
-1.14437e-06
0.00106634
-1.14296e-06
0.00106692
-1.14155e-06
0.00106749
-1.14013e-06
0.00106807
-1.13871e-06
0.00106864
-1.13729e-06
0.00106921
-1.13587e-06
0.00106978
-1.13445e-06
0.00107035
-1.13302e-06
0.00107091
-1.13159e-06
0.00107148
-1.13016e-06
0.00107204
-1.12873e-06
0.0010726
-1.1273e-06
0.00107316
-1.12586e-06
0.00107372
-1.12442e-06
0.00107427
-1.12298e-06
0.00107482
-1.12154e-06
0.00107537
-1.12009e-06
0.00107592
-1.11864e-06
0.00107647
-1.11719e-06
0.00107702
-1.11575e-06
0.00107756
-1.11429e-06
0.0010781
-1.11285e-06
0.00107864
-1.11138e-06
0.00107918
-1.10992e-06
0.00107972
-1.10846e-06
0.00108025
-1.107e-06
0.00108079
-1.10553e-06
0.00108132
-1.10407e-06
0.00108185
-1.1026e-06
0.00108238
-1.10113e-06
0.0010829
-1.09966e-06
0.00108343
-1.09818e-06
0.00108395
-1.09671e-06
0.00108447
-1.09523e-06
0.00108499
-1.09375e-06
0.0010855
-1.09227e-06
0.00108602
-1.09078e-06
0.00108653
-1.0893e-06
0.00108704
-1.08781e-06
0.00108755
-1.08632e-06
0.00108806
-1.08483e-06
0.00108856
-1.08334e-06
0.00108907
-1.08184e-06
0.00108957
-1.08034e-06
0.00109007
-1.07885e-06
0.00109056
-1.07734e-06
0.00109106
-1.07585e-06
0.00109155
-1.07432e-06
0.00109205
-1.07286e-06
0.00109254
-1.07131e-06
0.00109303
-1.0698e-06
0.00109351
-1.06829e-06
0.001094
-1.06678e-06
0.00109448
-1.06526e-06
0.00109496
-1.06374e-06
0.00109544
-1.06222e-06
0.00109592
-1.06069e-06
0.00109639
-1.05916e-06
0.00109686
-1.05763e-06
0.00109734
-1.0561e-06
0.00109781
-1.05456e-06
0.00109827
-1.05302e-06
0.00109874
-1.05148e-06
0.0010992
-1.04993e-06
0.00109966
-1.04839e-06
0.00110012
-1.04683e-06
0.00110058
-1.04527e-06
0.00110104
-1.0437e-06
0.00110149
-1.04214e-06
0.00110194
-1.04056e-06
0.00110239
-1.03898e-06
0.00110284
-1.03739e-06
0.00110329
-1.03579e-06
0.00110373
-1.03419e-06
0.00110417
-1.03256e-06
0.00110461
-1.03093e-06
0.00110505
-1.02927e-06
0.00110549
-1.0276e-06
0.00110592
-1.02588e-06
0.00110635
-1.02419e-06
0.00110678
-1.02232e-06
0.00110721
-1.02064e-06
0.00110763
-1.01866e-06
0.00110806
-1.01623e-06
0.00110848
-1.01683e-06
0.00110889
-1.00608e-06
0.00110932
-1.02483e-06
0.0011097
-9.79268e-07
0.00111013
-1.0223e-06
-9.55428e-07
0.00204067
-1.49488e-06
0.00204122
-1.52942e-06
0.00204179
-1.55626e-06
0.00204235
-1.52346e-06
0.00204289
-1.48841e-06
0.00204342
-1.4797e-06
0.00204396
-1.48133e-06
0.00204449
-1.4816e-06
0.00204502
-1.48071e-06
0.00204554
-1.4801e-06
0.00204607
-1.47971e-06
0.00204659
-1.47932e-06
0.00204711
-1.47893e-06
0.00204763
-1.47856e-06
0.00204815
-1.47822e-06
0.00204867
-1.47791e-06
0.00204919
-1.47761e-06
0.0020497
-1.47733e-06
0.00205021
-1.47706e-06
0.00205072
-1.47681e-06
0.00205123
-1.47656e-06
0.00205174
-1.47632e-06
0.00205224
-1.47608e-06
0.00205275
-1.47585e-06
0.00205325
-1.47561e-06
0.00205375
-1.47539e-06
0.00205425
-1.47516e-06
0.00205474
-1.47492e-06
0.00205524
-1.4747e-06
0.00205573
-1.47447e-06
0.00205623
-1.47425e-06
0.00205672
-1.47402e-06
0.0020572
-1.47379e-06
0.00205769
-1.47355e-06
0.00205818
-1.47332e-06
0.00205866
-1.47309e-06
0.00205914
-1.47286e-06
0.00205962
-1.47263e-06
0.0020601
-1.4724e-06
0.00206058
-1.47217e-06
0.00206105
-1.47194e-06
0.00206153
-1.47171e-06
0.002062
-1.47146e-06
0.00206247
-1.47126e-06
0.00206294
-1.47097e-06
0.0020634
-1.4708e-06
0.00206387
-1.47053e-06
0.00206433
-1.47026e-06
0.00206479
-1.47003e-06
0.00206525
-1.46981e-06
0.00206571
-1.46957e-06
0.00206616
-1.46934e-06
0.00206662
-1.4691e-06
0.00206707
-1.46885e-06
0.00206752
-1.46861e-06
0.00206797
-1.46837e-06
0.00206842
-1.46813e-06
0.00206886
-1.46789e-06
0.00206931
-1.46764e-06
0.00206975
-1.4674e-06
0.00207019
-1.46716e-06
0.00207063
-1.46691e-06
0.00207106
-1.46667e-06
0.0020715
-1.46642e-06
0.00207193
-1.46618e-06
0.00207236
-1.46593e-06
0.00207279
-1.46569e-06
0.00207322
-1.46544e-06
0.00207365
-1.46519e-06
0.00207407
-1.46495e-06
0.00207449
-1.4647e-06
0.00207491
-1.46445e-06
0.00207533
-1.4642e-06
0.00207575
-1.46395e-06
0.00207617
-1.4637e-06
0.00207658
-1.46345e-06
0.00207699
-1.4632e-06
0.0020774
-1.46295e-06
0.00207781
-1.4627e-06
0.00207821
-1.46244e-06
0.00207862
-1.46221e-06
0.00207902
-1.46194e-06
0.00207942
-1.46168e-06
0.00207982
-1.46143e-06
0.00208022
-1.46118e-06
0.00208061
-1.46093e-06
0.00208101
-1.46067e-06
0.0020814
-1.46042e-06
0.00208179
-1.46016e-06
0.00208218
-1.4599e-06
0.00208256
-1.45965e-06
0.00208295
-1.45939e-06
0.00208333
-1.45913e-06
0.00208371
-1.45887e-06
0.00208409
-1.45862e-06
0.00208446
-1.45835e-06
0.00208484
-1.45809e-06
0.00208521
-1.45783e-06
0.00208558
-1.45757e-06
0.00208595
-1.45731e-06
0.00208632
-1.45705e-06
0.00208669
-1.45678e-06
0.00208705
-1.45652e-06
0.00208741
-1.45625e-06
0.00208777
-1.45598e-06
0.00208813
-1.45574e-06
0.00208849
-1.45542e-06
0.00208884
-1.45522e-06
0.00208919
-1.45491e-06
0.00208954
-1.45461e-06
0.00208989
-1.45436e-06
0.00209024
-1.45409e-06
0.00209059
-1.45382e-06
0.00209093
-1.45355e-06
0.00209127
-1.45327e-06
0.00209161
-1.45299e-06
0.00209195
-1.45271e-06
0.00209228
-1.45242e-06
0.00209262
-1.45214e-06
0.00209295
-1.45185e-06
0.00209328
-1.45156e-06
0.00209361
-1.45127e-06
0.00209393
-1.45097e-06
0.00209426
-1.45068e-06
0.00209458
-1.45038e-06
0.0020949
-1.45007e-06
0.00209522
-1.44976e-06
0.00209553
-1.44945e-06
0.00209585
-1.44913e-06
0.00209616
-1.4488e-06
0.00209647
-1.44847e-06
0.00209678
-1.44812e-06
0.00209709
-1.44777e-06
0.00209739
-1.4474e-06
0.00209769
-1.44703e-06
0.002098
-1.44663e-06
0.0020983
-1.44622e-06
0.00209859
-1.44577e-06
0.00209889
-1.44534e-06
0.00209918
-1.44481e-06
0.00209947
-1.44429e-06
0.00209976
-1.44422e-06
0.00210005
-1.44153e-06
0.00210034
-1.44839e-06
0.00210061
-1.42732e-06
0.00210092
-1.47512e-06
0.00210117
-1.384e-06
0.0021015
-1.51149e-06
-1.36892e-06
0.0024773
-1.62626e-06
0.00247762
-1.65445e-06
0.00247795
-1.68334e-06
0.00247828
-1.65741e-06
0.00247861
-1.6217e-06
0.00247893
-1.60983e-06
0.00247925
-1.60996e-06
0.00247957
-1.60977e-06
0.00247989
-1.60863e-06
0.0024802
-1.60781e-06
0.00248051
-1.60727e-06
0.00248082
-1.60676e-06
0.00248113
-1.60626e-06
0.00248144
-1.60579e-06
0.00248175
-1.60536e-06
0.00248205
-1.60496e-06
0.00248236
-1.60459e-06
0.00248266
-1.60424e-06
0.00248296
-1.60391e-06
0.00248325
-1.6036e-06
0.00248355
-1.60329e-06
0.00248385
-1.603e-06
0.00248414
-1.60271e-06
0.00248443
-1.60243e-06
0.00248472
-1.60214e-06
0.00248501
-1.60187e-06
0.00248529
-1.6016e-06
0.00248558
-1.60132e-06
0.00248586
-1.60105e-06
0.00248614
-1.60078e-06
0.00248642
-1.60051e-06
0.0024867
-1.60024e-06
0.00248698
-1.59997e-06
0.00248725
-1.5997e-06
0.00248752
-1.59942e-06
0.00248779
-1.59915e-06
0.00248806
-1.59888e-06
0.00248833
-1.59861e-06
0.0024886
-1.59834e-06
0.00248886
-1.59807e-06
0.00248912
-1.59779e-06
0.00248938
-1.59752e-06
0.00248964
-1.59724e-06
0.0024899
-1.59699e-06
0.00249016
-1.59666e-06
0.00249041
-1.59645e-06
0.00249066
-1.59615e-06
0.00249091
-1.59583e-06
0.00249116
-1.59556e-06
0.00249141
-1.5953e-06
0.00249165
-1.59502e-06
0.0024919
-1.59475e-06
0.00249214
-1.59447e-06
0.00249238
-1.59418e-06
0.00249262
-1.5939e-06
0.00249285
-1.59362e-06
0.00249309
-1.59334e-06
0.00249332
-1.59305e-06
0.00249355
-1.59277e-06
0.00249378
-1.59248e-06
0.00249401
-1.5922e-06
0.00249424
-1.59192e-06
0.00249446
-1.59163e-06
0.00249468
-1.59134e-06
0.0024949
-1.59106e-06
0.00249512
-1.59077e-06
0.00249534
-1.59048e-06
0.00249555
-1.59019e-06
0.00249577
-1.58991e-06
0.00249598
-1.58962e-06
0.00249619
-1.58933e-06
0.0024964
-1.58904e-06
0.0024966
-1.58875e-06
0.00249681
-1.58845e-06
0.00249701
-1.58816e-06
0.00249721
-1.58787e-06
0.00249741
-1.58758e-06
0.00249761
-1.58728e-06
0.0024978
-1.587e-06
0.002498
-1.58669e-06
0.00249819
-1.58642e-06
0.00249838
-1.58611e-06
0.00249857
-1.5858e-06
0.00249875
-1.58551e-06
0.00249894
-1.58522e-06
0.00249912
-1.58493e-06
0.0024993
-1.58463e-06
0.00249948
-1.58433e-06
0.00249966
-1.58403e-06
0.00249983
-1.58373e-06
0.00250001
-1.58343e-06
0.00250018
-1.58313e-06
0.00250035
-1.58283e-06
0.00250052
-1.58253e-06
0.00250068
-1.58223e-06
0.00250085
-1.58192e-06
0.00250101
-1.58162e-06
0.00250117
-1.58132e-06
0.00250133
-1.58101e-06
0.00250149
-1.58071e-06
0.00250164
-1.58041e-06
0.00250179
-1.5801e-06
0.00250195
-1.57979e-06
0.0025021
-1.57949e-06
0.00250224
-1.57917e-06
0.00250239
-1.57889e-06
0.00250253
-1.57853e-06
0.00250268
-1.57828e-06
0.00250282
-1.57795e-06
0.00250295
-1.57759e-06
0.00250309
-1.57729e-06
0.00250322
-1.57699e-06
0.00250336
-1.57668e-06
0.00250349
-1.57637e-06
0.00250362
-1.57605e-06
0.00250374
-1.57573e-06
0.00250387
-1.57541e-06
0.00250399
-1.57509e-06
0.00250411
-1.57476e-06
0.00250423
-1.57444e-06
0.00250435
-1.57411e-06
0.00250447
-1.57379e-06
0.00250458
-1.57345e-06
0.00250469
-1.57313e-06
0.0025048
-1.57279e-06
0.00250491
-1.57245e-06
0.00250502
-1.57211e-06
0.00250512
-1.57177e-06
0.00250522
-1.57143e-06
0.00250532
-1.57108e-06
0.00250542
-1.57072e-06
0.00250552
-1.57036e-06
0.00250561
-1.57e-06
0.00250571
-1.56962e-06
0.0025058
-1.56924e-06
0.00250589
-1.56885e-06
0.00250597
-1.56846e-06
0.00250606
-1.56806e-06
0.00250614
-1.56765e-06
0.00250623
-1.56736e-06
0.00250631
-1.56659e-06
0.00250639
-1.5677e-06
0.00250646
-1.56312e-06
0.00250654
-1.57525e-06
0.00250661
-1.54573e-06
0.00250669
-1.61052e-06
0.00250675
-1.49734e-06
0.00250685
-1.66153e-06
0.00250694
-1.51565e-06
-1.46826e-06
0.00262153
-1.64963e-06
0.00262175
-1.66923e-06
0.00262197
-1.69402e-06
0.00262218
-1.67613e-06
0.00262241
-1.64541e-06
0.00262263
-1.63289e-06
0.00262284
-1.63169e-06
0.00262306
-1.63102e-06
0.00262327
-1.6297e-06
0.00262348
-1.62872e-06
0.00262369
-1.62804e-06
0.0026239
-1.62742e-06
0.00262411
-1.62683e-06
0.00262431
-1.62628e-06
0.00262452
-1.62577e-06
0.00262472
-1.6253e-06
0.00262492
-1.62486e-06
0.00262512
-1.62444e-06
0.00262531
-1.62405e-06
0.00262551
-1.62367e-06
0.0026257
-1.62331e-06
0.00262589
-1.62297e-06
0.00262608
-1.62262e-06
0.00262627
-1.62229e-06
0.00262646
-1.62196e-06
0.00262664
-1.62164e-06
0.00262683
-1.62132e-06
0.00262701
-1.621e-06
0.00262719
-1.62068e-06
0.00262737
-1.62036e-06
0.00262754
-1.62006e-06
0.00262772
-1.61974e-06
0.00262789
-1.61943e-06
0.00262806
-1.61911e-06
0.00262823
-1.61879e-06
0.0026284
-1.61848e-06
0.00262857
-1.61817e-06
0.00262873
-1.61786e-06
0.00262889
-1.61754e-06
0.00262906
-1.61723e-06
0.00262922
-1.61691e-06
0.00262937
-1.6166e-06
0.00262953
-1.61627e-06
0.00262968
-1.61599e-06
0.00262984
-1.61562e-06
0.00262999
-1.61535e-06
0.00263014
-1.61503e-06
0.00263028
-1.61466e-06
0.00263043
-1.61435e-06
0.00263057
-1.61405e-06
0.00263072
-1.61373e-06
0.00263086
-1.61341e-06
0.002631
-1.61309e-06
0.00263113
-1.61277e-06
0.00263127
-1.61244e-06
0.0026314
-1.61212e-06
0.00263153
-1.61179e-06
0.00263166
-1.61147e-06
0.00263179
-1.61114e-06
0.00263192
-1.61082e-06
0.00263204
-1.61049e-06
0.00263217
-1.61016e-06
0.00263229
-1.60984e-06
0.00263241
-1.60951e-06
0.00263252
-1.60918e-06
0.00263264
-1.60885e-06
0.00263275
-1.60852e-06
0.00263287
-1.60819e-06
0.00263298
-1.60786e-06
0.00263309
-1.60753e-06
0.00263319
-1.6072e-06
0.0026333
-1.60687e-06
0.0026334
-1.60653e-06
0.0026335
-1.6062e-06
0.0026336
-1.60587e-06
0.0026337
-1.60553e-06
0.0026338
-1.6052e-06
0.00263389
-1.60486e-06
0.00263398
-1.60453e-06
0.00263407
-1.60418e-06
0.00263416
-1.60386e-06
0.00263425
-1.60352e-06
0.00263434
-1.60317e-06
0.00263442
-1.60283e-06
0.0026345
-1.6025e-06
0.00263458
-1.60216e-06
0.00263466
-1.60182e-06
0.00263473
-1.60148e-06
0.00263481
-1.60114e-06
0.00263488
-1.6008e-06
0.00263495
-1.60046e-06
0.00263502
-1.60011e-06
0.00263509
-1.59977e-06
0.00263515
-1.59942e-06
0.00263522
-1.59909e-06
0.00263528
-1.59874e-06
0.00263534
-1.59839e-06
0.00263539
-1.59804e-06
0.00263545
-1.5977e-06
0.0026355
-1.59735e-06
0.00263556
-1.597e-06
0.00263561
-1.59666e-06
0.00263565
-1.59631e-06
0.0026357
-1.59596e-06
0.00263575
-1.5956e-06
0.00263579
-1.59528e-06
0.00263583
-1.59488e-06
0.00263587
-1.59458e-06
0.00263591
-1.59422e-06
0.00263594
-1.59382e-06
0.00263597
-1.59348e-06
0.00263601
-1.59315e-06
0.00263604
-1.5928e-06
0.00263606
-1.59244e-06
0.00263609
-1.59208e-06
0.00263611
-1.59173e-06
0.00263614
-1.59137e-06
0.00263616
-1.59102e-06
0.00263617
-1.59066e-06
0.00263619
-1.5903e-06
0.00263621
-1.58994e-06
0.00263622
-1.58959e-06
0.00263623
-1.58922e-06
0.00263624
-1.58887e-06
0.00263625
-1.58851e-06
0.00263625
-1.58814e-06
0.00263625
-1.58778e-06
0.00263626
-1.58742e-06
0.00263626
-1.58706e-06
0.00263625
-1.5867e-06
0.00263625
-1.58633e-06
0.00263624
-1.58596e-06
0.00263624
-1.5856e-06
0.00263623
-1.58523e-06
0.00263621
-1.58486e-06
0.0026362
-1.5845e-06
0.00263618
-1.58414e-06
0.00263617
-1.58382e-06
0.00263615
-1.58342e-06
0.00263613
-1.58341e-06
0.00263611
-1.58238e-06
0.00263608
-1.58463e-06
0.00263606
-1.57848e-06
0.00263603
-1.59418e-06
0.002636
-1.56107e-06
0.00263597
-1.63003e-06
0.00263595
-1.52175e-06
0.0026359
-1.67002e-06
0.00263588
-1.54886e-06
0.0026359
-1.53821e-06
-1.65921e-06
0.00265964
-1.63929e-06
0.00265982
-1.65188e-06
0.00266
-1.67014e-06
0.00266018
-1.65864e-06
0.00266037
-1.63414e-06
0.00266056
-1.62213e-06
0.00266074
-1.6199e-06
0.00266092
-1.61883e-06
0.0026611
-1.61737e-06
0.00266128
-1.61624e-06
0.00266146
-1.61544e-06
0.00266163
-1.61472e-06
0.00266181
-1.61404e-06
0.00266198
-1.61342e-06
0.00266215
-1.61284e-06
0.00266232
-1.6123e-06
0.00266249
-1.6118e-06
0.00266265
-1.61132e-06
0.00266281
-1.61087e-06
0.00266298
-1.61044e-06
0.00266314
-1.61003e-06
0.00266329
-1.60963e-06
0.00266345
-1.60924e-06
0.00266361
-1.60885e-06
0.00266376
-1.60848e-06
0.00266391
-1.60811e-06
0.00266406
-1.60774e-06
0.00266421
-1.60737e-06
0.00266436
-1.60701e-06
0.0026645
-1.60665e-06
0.00266465
-1.6063e-06
0.00266479
-1.60594e-06
0.00266493
-1.60558e-06
0.00266507
-1.60522e-06
0.0026652
-1.60487e-06
0.00266534
-1.60451e-06
0.00266547
-1.60415e-06
0.0026656
-1.6038e-06
0.00266573
-1.60344e-06
0.00266586
-1.60309e-06
0.00266599
-1.60273e-06
0.00266611
-1.60238e-06
0.00266623
-1.60201e-06
0.00266635
-1.60168e-06
0.00266647
-1.60128e-06
0.00266659
-1.60096e-06
0.00266671
-1.6006e-06
0.00266682
-1.6002e-06
0.00266694
-1.59984e-06
0.00266705
-1.59949e-06
0.00266716
-1.59914e-06
0.00266726
-1.59878e-06
0.00266737
-1.59841e-06
0.00266747
-1.59805e-06
0.00266757
-1.59769e-06
0.00266767
-1.59732e-06
0.00266777
-1.59696e-06
0.00266787
-1.59659e-06
0.00266797
-1.59622e-06
0.00266806
-1.59586e-06
0.00266815
-1.59549e-06
0.00266824
-1.59512e-06
0.00266833
-1.59475e-06
0.00266841
-1.59438e-06
0.0026685
-1.59401e-06
0.00266858
-1.59364e-06
0.00266866
-1.59327e-06
0.00266874
-1.5929e-06
0.00266882
-1.59253e-06
0.0026689
-1.59215e-06
0.00266897
-1.59178e-06
0.00266904
-1.59141e-06
0.00266911
-1.59103e-06
0.00266918
-1.59066e-06
0.00266925
-1.59028e-06
0.00266931
-1.5899e-06
0.00266937
-1.58953e-06
0.00266944
-1.58915e-06
0.00266949
-1.58878e-06
0.00266955
-1.58839e-06
0.00266961
-1.58802e-06
0.00266966
-1.58764e-06
0.00266971
-1.58725e-06
0.00266976
-1.58687e-06
0.00266981
-1.58649e-06
0.00266986
-1.58611e-06
0.0026699
-1.58573e-06
0.00266995
-1.58535e-06
0.00266999
-1.58496e-06
0.00267003
-1.58458e-06
0.00267007
-1.5842e-06
0.0026701
-1.58381e-06
0.00267013
-1.58343e-06
0.00267017
-1.58304e-06
0.0026702
-1.58266e-06
0.00267023
-1.58227e-06
0.00267025
-1.58187e-06
0.00267028
-1.58149e-06
0.0026703
-1.5811e-06
0.00267032
-1.58071e-06
0.00267034
-1.58033e-06
0.00267036
-1.57994e-06
0.00267037
-1.57954e-06
0.00267038
-1.57916e-06
0.0026704
-1.57876e-06
0.00267041
-1.57839e-06
0.00267041
-1.57796e-06
0.00267042
-1.57761e-06
0.00267042
-1.57722e-06
0.00267043
-1.57679e-06
0.00267043
-1.5764e-06
0.00267042
-1.57602e-06
0.00267042
-1.57564e-06
0.00267042
-1.57524e-06
0.00267041
-1.57485e-06
0.0026704
-1.57446e-06
0.00267039
-1.57407e-06
0.00267038
-1.57368e-06
0.00267036
-1.57329e-06
0.00267034
-1.5729e-06
0.00267033
-1.57251e-06
0.00267031
-1.57213e-06
0.00267028
-1.57173e-06
0.00267026
-1.57135e-06
0.00267023
-1.57097e-06
0.00267021
-1.57058e-06
0.00267018
-1.5702e-06
0.00267014
-1.56982e-06
0.00267011
-1.56944e-06
0.00267008
-1.56906e-06
0.00267004
-1.56869e-06
0.00267
-1.56832e-06
0.00266996
-1.56796e-06
0.00266992
-1.5676e-06
0.00266987
-1.56724e-06
0.00266982
-1.56691e-06
0.00266978
-1.56658e-06
0.00266973
-1.56632e-06
0.00266967
-1.56594e-06
0.00266962
-1.56616e-06
0.00266956
-1.56496e-06
0.00266951
-1.56799e-06
0.00266945
-1.56107e-06
0.00266939
-1.57852e-06
0.00266933
-1.54529e-06
0.00266926
-1.61164e-06
0.0026692
-1.51585e-06
0.00266913
-1.64284e-06
0.00266907
-1.54797e-06
0.00266903
-1.54983e-06
0.00266892
-1.60328e-06
-1.77054e-06
0.00266798
-1.61903e-06
0.00266816
-1.62723e-06
0.00266833
-1.64017e-06
0.0026685
-1.63277e-06
0.00266868
-1.61363e-06
0.00266886
-1.6026e-06
0.00266903
-1.59967e-06
0.00266921
-1.59827e-06
0.00266938
-1.59672e-06
0.00266955
-1.59549e-06
0.00266972
-1.59457e-06
0.00266988
-1.59377e-06
0.00267005
-1.59302e-06
0.00267021
-1.59232e-06
0.00267038
-1.59168e-06
0.00267054
-1.59108e-06
0.00267069
-1.59052e-06
0.00267085
-1.58999e-06
0.00267101
-1.58948e-06
0.00267116
-1.589e-06
0.00267131
-1.58853e-06
0.00267146
-1.58808e-06
0.00267161
-1.58764e-06
0.00267176
-1.58721e-06
0.0026719
-1.58678e-06
0.00267205
-1.58636e-06
0.00267219
-1.58595e-06
0.00267233
-1.58554e-06
0.00267247
-1.58513e-06
0.0026726
-1.58473e-06
0.00267274
-1.58433e-06
0.00267287
-1.58393e-06
0.002673
-1.58353e-06
0.00267313
-1.58313e-06
0.00267326
-1.58273e-06
0.00267339
-1.58233e-06
0.00267351
-1.58194e-06
0.00267364
-1.58154e-06
0.00267376
-1.58114e-06
0.00267388
-1.58075e-06
0.002674
-1.58035e-06
0.00267411
-1.57996e-06
0.00267423
-1.57955e-06
0.00267434
-1.57917e-06
0.00267445
-1.57874e-06
0.00267456
-1.57836e-06
0.00267467
-1.57797e-06
0.00267478
-1.57754e-06
0.00267488
-1.57713e-06
0.00267498
-1.57674e-06
0.00267509
-1.57635e-06
0.00267518
-1.57594e-06
0.00267528
-1.57554e-06
0.00267538
-1.57514e-06
0.00267547
-1.57473e-06
0.00267556
-1.57433e-06
0.00267565
-1.57392e-06
0.00267574
-1.57351e-06
0.00267583
-1.5731e-06
0.00267592
-1.5727e-06
0.002676
-1.57229e-06
0.00267608
-1.57188e-06
0.00267616
-1.57147e-06
0.00267624
-1.57106e-06
0.00267631
-1.57065e-06
0.00267639
-1.57024e-06
0.00267646
-1.56982e-06
0.00267653
-1.56941e-06
0.0026766
-1.569e-06
0.00267667
-1.56858e-06
0.00267673
-1.56817e-06
0.0026768
-1.56775e-06
0.00267686
-1.56734e-06
0.00267692
-1.56692e-06
0.00267698
-1.5665e-06
0.00267704
-1.56608e-06
0.00267709
-1.56567e-06
0.00267714
-1.56524e-06
0.0026772
-1.56483e-06
0.00267724
-1.5644e-06
0.00267729
-1.56399e-06
0.00267734
-1.56357e-06
0.00267738
-1.56313e-06
0.00267742
-1.56271e-06
0.00267746
-1.56229e-06
0.0026775
-1.56187e-06
0.00267754
-1.56145e-06
0.00267757
-1.56102e-06
0.00267761
-1.5606e-06
0.00267764
-1.56017e-06
0.00267767
-1.55974e-06
0.00267769
-1.55932e-06
0.00267772
-1.55889e-06
0.00267774
-1.55846e-06
0.00267777
-1.55803e-06
0.00267779
-1.55761e-06
0.0026778
-1.55717e-06
0.00267782
-1.55674e-06
0.00267784
-1.55632e-06
0.00267785
-1.55589e-06
0.00267786
-1.55546e-06
0.00267787
-1.55503e-06
0.00267788
-1.55459e-06
0.00267788
-1.55417e-06
0.00267788
-1.55373e-06
0.00267789
-1.55331e-06
0.00267788
-1.55286e-06
0.00267788
-1.55245e-06
0.00267788
-1.55202e-06
0.00267787
-1.55156e-06
0.00267786
-1.55113e-06
0.00267785
-1.55071e-06
0.00267784
-1.55029e-06
0.00267783
-1.54986e-06
0.00267781
-1.54943e-06
0.0026778
-1.549e-06
0.00267778
-1.54858e-06
0.00267776
-1.54815e-06
0.00267773
-1.54773e-06
0.00267771
-1.54731e-06
0.00267768
-1.54689e-06
0.00267765
-1.54648e-06
0.00267762
-1.54606e-06
0.00267759
-1.54565e-06
0.00267756
-1.54524e-06
0.00267752
-1.54483e-06
0.00267748
-1.54443e-06
0.00267744
-1.54403e-06
0.0026774
-1.54363e-06
0.00267736
-1.54325e-06
0.00267731
-1.54286e-06
0.00267727
-1.54249e-06
0.00267722
-1.54212e-06
0.00267717
-1.54177e-06
0.00267711
-1.54143e-06
0.00267706
-1.54111e-06
0.002677
-1.54081e-06
0.00267694
-1.54062e-06
0.00267688
-1.54027e-06
0.00267682
-1.54064e-06
0.00267676
-1.53943e-06
0.00267669
-1.54281e-06
0.00267662
-1.53594e-06
0.00267655
-1.55312e-06
0.00267649
-1.52308e-06
0.00267641
-1.58149e-06
0.00267635
-1.50398e-06
0.00267625
-1.60092e-06
0.00267619
-1.53837e-06
0.00267612
-1.53768e-06
0.00267607
-1.60396e-06
-1.71319e-06
0.00266953
-1.59645e-06
0.00266971
-1.60183e-06
0.00266988
-1.61049e-06
0.00267005
-1.60564e-06
0.00267023
-1.59085e-06
0.0026704
-1.58098e-06
0.00267058
-1.57761e-06
0.00267075
-1.57594e-06
0.00267092
-1.57432e-06
0.00267109
-1.573e-06
0.00267126
-1.57198e-06
0.00267142
-1.5711e-06
0.00267158
-1.57029e-06
0.00267175
-1.56953e-06
0.00267191
-1.56883e-06
0.00267206
-1.56817e-06
0.00267222
-1.56755e-06
0.00267238
-1.56697e-06
0.00267253
-1.56641e-06
0.00267268
-1.56587e-06
0.00267283
-1.56536e-06
0.00267298
-1.56485e-06
0.00267313
-1.56437e-06
0.00267327
-1.56389e-06
0.00267342
-1.56342e-06
0.00267356
-1.56296e-06
0.0026737
-1.5625e-06
0.00267384
-1.56204e-06
0.00267397
-1.56159e-06
0.00267411
-1.56115e-06
0.00267424
-1.5607e-06
0.00267438
-1.56026e-06
0.00267451
-1.55982e-06
0.00267463
-1.55938e-06
0.00267476
-1.55894e-06
0.00267489
-1.5585e-06
0.00267501
-1.55806e-06
0.00267513
-1.55762e-06
0.00267525
-1.55718e-06
0.00267537
-1.55674e-06
0.00267549
-1.5563e-06
0.0026756
-1.55587e-06
0.00267571
-1.55542e-06
0.00267582
-1.555e-06
0.00267593
-1.55454e-06
0.00267604
-1.55411e-06
0.00267615
-1.55368e-06
0.00267625
-1.55321e-06
0.00267636
-1.55276e-06
0.00267646
-1.55233e-06
0.00267656
-1.55189e-06
0.00267665
-1.55145e-06
0.00267675
-1.55101e-06
0.00267684
-1.55056e-06
0.00267694
-1.55012e-06
0.00267703
-1.54967e-06
0.00267712
-1.54922e-06
0.0026772
-1.54878e-06
0.00267729
-1.54833e-06
0.00267737
-1.54788e-06
0.00267745
-1.54743e-06
0.00267753
-1.54698e-06
0.00267761
-1.54653e-06
0.00267769
-1.54608e-06
0.00267776
-1.54562e-06
0.00267783
-1.54517e-06
0.00267791
-1.54472e-06
0.00267798
-1.54426e-06
0.00267804
-1.54381e-06
0.00267811
-1.54335e-06
0.00267817
-1.5429e-06
0.00267823
-1.54244e-06
0.0026783
-1.54198e-06
0.00267835
-1.54152e-06
0.00267841
-1.54106e-06
0.00267847
-1.5406e-06
0.00267852
-1.54015e-06
0.00267857
-1.53968e-06
0.00267862
-1.53922e-06
0.00267867
-1.53876e-06
0.00267871
-1.5383e-06
0.00267876
-1.53784e-06
0.0026788
-1.53736e-06
0.00267884
-1.5369e-06
0.00267888
-1.53644e-06
0.00267892
-1.53597e-06
0.00267895
-1.53551e-06
0.00267898
-1.53504e-06
0.00267901
-1.53457e-06
0.00267904
-1.53411e-06
0.00267907
-1.53364e-06
0.0026791
-1.53317e-06
0.00267912
-1.5327e-06
0.00267914
-1.53223e-06
0.00267916
-1.53176e-06
0.00267918
-1.53129e-06
0.0026792
-1.53081e-06
0.00267921
-1.53034e-06
0.00267923
-1.52987e-06
0.00267924
-1.5294e-06
0.00267925
-1.52893e-06
0.00267925
-1.52846e-06
0.00267926
-1.52799e-06
0.00267926
-1.52752e-06
0.00267927
-1.52704e-06
0.00267926
-1.52658e-06
0.00267926
-1.52609e-06
0.00267926
-1.52563e-06
0.00267925
-1.52517e-06
0.00267925
-1.52468e-06
0.00267924
-1.52421e-06
0.00267922
-1.52375e-06
0.00267921
-1.52329e-06
0.0026792
-1.52282e-06
0.00267918
-1.52235e-06
0.00267916
-1.52189e-06
0.00267914
-1.52143e-06
0.00267912
-1.52097e-06
0.00267909
-1.52052e-06
0.00267907
-1.52006e-06
0.00267904
-1.51961e-06
0.00267901
-1.51917e-06
0.00267898
-1.51872e-06
0.00267894
-1.51828e-06
0.00267891
-1.51785e-06
0.00267887
-1.51741e-06
0.00267883
-1.51699e-06
0.00267879
-1.51657e-06
0.00267874
-1.51616e-06
0.0026787
-1.51576e-06
0.00267865
-1.51537e-06
0.0026786
-1.51499e-06
0.00267855
-1.51462e-06
0.0026785
-1.51427e-06
0.00267844
-1.51394e-06
0.00267839
-1.51364e-06
0.00267833
-1.51337e-06
0.00267827
-1.51322e-06
0.00267821
-1.51292e-06
0.00267814
-1.51337e-06
0.00267808
-1.51228e-06
0.00267801
-1.51568e-06
0.00267794
-1.50953e-06
0.00267787
-1.52523e-06
0.0026778
-1.50004e-06
0.00267772
-1.54824e-06
0.00267766
-1.49003e-06
0.00267756
-1.55882e-06
0.0026775
-1.5283e-06
0.00267742
-1.51223e-06
0.00267735
-1.58932e-06
0.00267726
-1.67777e-06
-1.6903e-06
0.00266978
-1.57295e-06
0.00266996
-1.57659e-06
0.00267013
-1.58224e-06
0.00267031
-1.57887e-06
0.00267048
-1.56742e-06
0.00267066
-1.55871e-06
0.00267083
-1.55508e-06
0.002671
-1.55322e-06
0.00267117
-1.55156e-06
0.00267134
-1.55017e-06
0.0026715
-1.54907e-06
0.00267167
-1.54811e-06
0.00267183
-1.54724e-06
0.00267199
-1.54642e-06
0.00267215
-1.54567e-06
0.00267231
-1.54495e-06
0.00267247
-1.54428e-06
0.00267262
-1.54365e-06
0.00267278
-1.54304e-06
0.00267293
-1.54245e-06
0.00267308
-1.54189e-06
0.00267323
-1.54134e-06
0.00267337
-1.5408e-06
0.00267352
-1.54028e-06
0.00267366
-1.53976e-06
0.0026738
-1.53925e-06
0.00267394
-1.53875e-06
0.00267408
-1.53825e-06
0.00267422
-1.53776e-06
0.00267435
-1.53727e-06
0.00267449
-1.53679e-06
0.00267462
-1.5363e-06
0.00267475
-1.53582e-06
0.00267488
-1.53533e-06
0.002675
-1.53485e-06
0.00267513
-1.53437e-06
0.00267525
-1.53389e-06
0.00267537
-1.53341e-06
0.00267549
-1.53293e-06
0.00267561
-1.53245e-06
0.00267573
-1.53197e-06
0.00267584
-1.5315e-06
0.00267595
-1.53101e-06
0.00267606
-1.53054e-06
0.00267617
-1.53005e-06
0.00267628
-1.52957e-06
0.00267639
-1.5291e-06
0.00267649
-1.5286e-06
0.00267659
-1.52811e-06
0.00267669
-1.52764e-06
0.00267679
-1.52716e-06
0.00267689
-1.52667e-06
0.00267699
-1.52619e-06
0.00267708
-1.5257e-06
0.00267717
-1.52522e-06
0.00267726
-1.52473e-06
0.00267735
-1.52424e-06
0.00267744
-1.52375e-06
0.00267752
-1.52326e-06
0.00267761
-1.52277e-06
0.00267769
-1.52228e-06
0.00267777
-1.52179e-06
0.00267784
-1.5213e-06
0.00267792
-1.52081e-06
0.002678
-1.52031e-06
0.00267807
-1.51982e-06
0.00267814
-1.51932e-06
0.00267821
-1.51883e-06
0.00267828
-1.51833e-06
0.00267834
-1.51784e-06
0.0026784
-1.51734e-06
0.00267847
-1.51684e-06
0.00267853
-1.51634e-06
0.00267858
-1.51584e-06
0.00267864
-1.51534e-06
0.0026787
-1.51484e-06
0.00267875
-1.51434e-06
0.0026788
-1.51383e-06
0.00267885
-1.51333e-06
0.0026789
-1.51283e-06
0.00267894
-1.51232e-06
0.00267899
-1.51182e-06
0.00267903
-1.51131e-06
0.00267907
-1.5108e-06
0.00267911
-1.5103e-06
0.00267914
-1.50979e-06
0.00267918
-1.50928e-06
0.00267921
-1.50877e-06
0.00267924
-1.50827e-06
0.00267927
-1.50775e-06
0.0026793
-1.50724e-06
0.00267932
-1.50673e-06
0.00267935
-1.50622e-06
0.00267937
-1.50571e-06
0.00267939
-1.5052e-06
0.00267941
-1.50469e-06
0.00267942
-1.50417e-06
0.00267944
-1.50366e-06
0.00267945
-1.50315e-06
0.00267946
-1.50263e-06
0.00267947
-1.50212e-06
0.00267948
-1.50161e-06
0.00267948
-1.50109e-06
0.00267949
-1.50058e-06
0.00267949
-1.50006e-06
0.00267949
-1.49956e-06
0.00267948
-1.49904e-06
0.00267948
-1.49853e-06
0.00267947
-1.49803e-06
0.00267947
-1.49751e-06
0.00267946
-1.49699e-06
0.00267944
-1.4965e-06
0.00267943
-1.49599e-06
0.00267942
-1.49549e-06
0.0026794
-1.49499e-06
0.00267938
-1.49449e-06
0.00267936
-1.49399e-06
0.00267934
-1.4935e-06
0.00267931
-1.49301e-06
0.00267928
-1.49253e-06
0.00267926
-1.49204e-06
0.00267922
-1.49157e-06
0.00267919
-1.49109e-06
0.00267916
-1.49063e-06
0.00267912
-1.49016e-06
0.00267908
-1.48971e-06
0.00267904
-1.48926e-06
0.002679
-1.48882e-06
0.00267896
-1.4884e-06
0.00267891
-1.48798e-06
0.00267887
-1.48758e-06
0.00267882
-1.48719e-06
0.00267877
-1.48682e-06
0.00267871
-1.48647e-06
0.00267866
-1.48615e-06
0.0026786
-1.48587e-06
0.00267854
-1.48561e-06
0.00267848
-1.48551e-06
0.00267842
-1.48526e-06
0.00267836
-1.48575e-06
0.00267829
-1.48484e-06
0.00267822
-1.48804e-06
0.00267815
-1.48296e-06
0.00267808
-1.4965e-06
0.00267801
-1.47666e-06
0.00267793
-1.51479e-06
0.00267786
-1.47337e-06
0.00267777
-1.52089e-06
0.0026777
-1.50973e-06
0.00267763
-1.4956e-06
0.00267754
-1.5601e-06
0.00267746
-1.64944e-06
0.00267732
-1.60426e-06
-1.7047e-06
0.00266982
-1.54931e-06
0.00266999
-1.55171e-06
0.00267017
-1.55515e-06
0.00267034
-1.55266e-06
0.00267052
-1.54373e-06
0.00267069
-1.5361e-06
0.00267087
-1.53239e-06
0.00267104
-1.53037e-06
0.00267121
-1.52867e-06
0.00267137
-1.52723e-06
0.00267154
-1.52606e-06
0.00267171
-1.52504e-06
0.00267187
-1.52411e-06
0.00267203
-1.52324e-06
0.00267219
-1.52243e-06
0.00267235
-1.52167e-06