/*--------------------------------*- C++ -*----------------------------------*\
| =========                 |                                                 |
| \\      /  F ield         | OpenFOAM: The Open Source CFD Toolbox           |
|  \\    /   O peration     | Version:  2512                                  |
|   \\  /    A nd           | Website:  www.openfoam.com                      |
|    \\/     M anipulation  |                                                 |
\*---------------------------------------------------------------------------*/
FoamFile
{
    version     2.0;
    format      ascii;
    arch        "LSB;label=32;scalar=64";
    class       surfaceScalarField;
    location    "0.1";
    object      phiB;
}
// * * * * * * * * * * * * * * * * * * * * * * * * * * * * * * * * * * * * * //

dimensions      [1 2 -2 0 0 -1 0];

oriented        oriented;

internalField   nonuniform List<scalar> 
16431
(
7.8869e-09
0.00192
7.88778e-09
0.00192
7.88876e-09
0.00192
7.88983e-09
0.00192
7.89078e-09
0.00192
7.89159e-09
0.00192
7.89236e-09
0.00192
7.8931e-09
0.00192
7.89382e-09
0.00192
7.89451e-09
0.00192
7.89519e-09
0.00192
7.89583e-09
0.00192
7.89648e-09
0.00192
7.8971e-09
0.00192
7.89772e-09
0.00192
7.89833e-09
0.00192
7.89892e-09
0.00192
7.89951e-09
0.00192
7.90009e-09
0.00192
7.90067e-09
0.00192
7.90123e-09
0.00192
7.9018e-09
0.00192
7.90236e-09
0.00192
7.90291e-09
0.00192
7.90346e-09
0.00192
7.904e-09
0.00192
7.90454e-09
0.00192
7.90508e-09
0.00192
7.90561e-09
0.00192
7.90614e-09
0.00192
7.90667e-09
0.00192
7.9072e-09
0.00192
7.90772e-09
0.00192
7.90823e-09
0.00192
7.90875e-09
0.00192
7.90925e-09
0.00192
7.90976e-09
0.00192
7.91026e-09
0.00192
7.91076e-09
0.00192
7.91125e-09
0.00192
7.91174e-09
0.00192
7.91223e-09
0.00192
7.91271e-09
0.00192
7.91319e-09
0.00192
7.91366e-09
0.00192
7.91413e-09
0.00192
7.9146e-09
0.00192
7.91506e-09
0.00192
7.91551e-09
0.00192
7.91596e-09
0.00192
7.91641e-09
0.00192
7.91685e-09
0.00192
7.91729e-09
0.00192
7.91772e-09
0.00192
7.91814e-09
0.00192
7.91857e-09
0.00192
7.91898e-09
0.00192
7.91939e-09
0.00192
7.9198e-09
0.00192
7.9202e-09
0.00192
7.9206e-09
0.00192
7.92099e-09
0.00192
7.92138e-09
0.00192
7.92176e-09
0.00192
7.92213e-09
0.00192
7.9225e-09
0.00192
7.92287e-09
0.00192
7.92323e-09
0.00192
7.92358e-09
0.00192
7.92393e-09
0.00192
7.92427e-09
0.00192
7.92461e-09
0.00192
7.92494e-09
0.00192
7.92527e-09
0.00192
7.92559e-09
0.00192
7.9259e-09
0.00192
7.92621e-09
0.00192
7.92651e-09
0.00192
7.92681e-09
0.00192
7.9271e-09
0.00192
7.92739e-09
0.00192
7.92767e-09
0.00192
7.92795e-09
0.00192
7.92822e-09
0.00192
7.92848e-09
0.00192
7.92874e-09
0.00192
7.929e-09
0.00192
7.92925e-09
0.00192
7.92949e-09
0.00192
7.92973e-09
0.00192
7.92996e-09
0.00192
7.93019e-09
0.00192
7.93041e-09
0.00192
7.93063e-09
0.00192
7.93084e-09
0.00192
7.93105e-09
0.00192
7.93125e-09
0.00192
7.93145e-09
0.00192
7.93164e-09
0.00192
7.93183e-09
0.00192
7.93201e-09
0.00192
7.93219e-09
0.00192
7.93236e-09
0.00192
7.93253e-09
0.00192
7.93269e-09
0.00192
7.93285e-09
0.00192
7.93301e-09
0.00192
7.93316e-09
0.00192
7.93331e-09
0.00192
7.93345e-09
0.00192
7.93359e-09
0.00192
7.93373e-09
0.00192
7.93386e-09
0.00192
7.93399e-09
0.00192
7.93412e-09
0.00192
7.93425e-09
0.00192
7.93437e-09
0.00192
7.93448e-09
0.00192
7.9346e-09
0.00192
7.93471e-09
0.00192
7.93482e-09
0.00192
7.93493e-09
0.00192
7.93503e-09
0.00192
7.93513e-09
0.00192
7.93523e-09
0.00192
7.93533e-09
0.00192
7.93542e-09
0.00192
7.93552e-09
0.00192
7.9356e-09
0.00192
7.93569e-09
0.00192
7.93578e-09
0.00192
7.93586e-09
0.00192
7.93594e-09
0.00192
7.93601e-09
0.00192
7.93609e-09
0.00192
7.93615e-09
0.00192
7.93622e-09
0.00192
7.93627e-09
0.00192
7.93633e-09
0.00192
7.93638e-09
0.00192
7.93641e-09
0.00192
7.93645e-09
0.00192
7.93647e-09
0.00192
7.93649e-09
0.00192
7.93652e-09
0.00192
7.93648e-09
0.00192
7.93655e-09
0.00192
7.93639e-09
0.00192
0.00192
1.43629e-08
0.00192
1.43613e-08
0.00192
1.43598e-08
0.00192
1.43585e-08
0.00192
1.43571e-08
0.00192
1.43555e-08
0.00192
1.43539e-08
0.00192
1.43522e-08
0.00192
1.43506e-08
0.00192
1.43488e-08
0.00192
1.43471e-08
0.00192
1.43453e-08
0.00192
1.43435e-08
0.00192
1.43417e-08
0.00192
1.43399e-08
0.00192
1.43381e-08
0.00192
1.43362e-08
0.00192
1.43344e-08
0.00192
1.43325e-08
0.00192
1.43306e-08
0.00192
1.43288e-08
0.00192
1.43269e-08
0.00192
1.4325e-08
0.00192
1.43231e-08
0.00192
1.43212e-08
0.00192
1.43193e-08
0.00192
1.43174e-08
0.00192
1.43155e-08
0.00192
1.43136e-08
0.00192
1.43117e-08
0.00192
1.43098e-08
0.00192
1.43079e-08
0.00192
1.43059e-08
0.00192
1.4304e-08
0.00192
1.43021e-08
0.00192
1.43002e-08
0.00192
1.42982e-08
0.00192
1.42963e-08
0.00192
1.42944e-08
0.00192
1.42924e-08
0.00192
1.42905e-08
0.00192
1.42886e-08
0.00192
1.42866e-08
0.00192
1.42847e-08
0.00192
1.42827e-08
0.00192
1.42807e-08
0.00192
1.42788e-08
0.00192
1.42768e-08
0.00192
1.42748e-08
0.00192
1.42729e-08
0.00192
1.42709e-08
0.00192
1.42689e-08
0.00192
1.42669e-08
0.00192
1.42649e-08
0.00192
1.42629e-08
0.00192
1.42609e-08
0.00192
1.42589e-08
0.00192
1.42569e-08
0.00192
1.42549e-08
0.00192
1.42528e-08
0.00192
1.42508e-08
0.00192
1.42488e-08
0.00192
1.42467e-08
0.00192
1.42447e-08
0.00192
1.42426e-08
0.00192
1.42406e-08
0.00192
1.42385e-08
0.00192
1.42365e-08
0.00192
1.42344e-08
0.00192
1.42323e-08
0.00192
1.42302e-08
0.00192
1.42281e-08
0.00192
1.4226e-08
0.00192
1.42239e-08
0.00192
1.42218e-08
0.00192
1.42197e-08
0.00192
1.42176e-08
0.00192
1.42155e-08
0.00192
1.42134e-08
0.00192
1.42112e-08
0.00192
1.42091e-08
0.00192
1.4207e-08
0.00192
1.42048e-08
0.00192
1.42027e-08
0.00192
1.42005e-08
0.00192
1.41983e-08
0.00192
1.41962e-08
0.00192
1.4194e-08
0.00192
1.41918e-08
0.00192
1.41896e-08
0.00192
1.41874e-08
0.00192
1.41852e-08
0.00192
1.4183e-08
0.00192
1.41808e-08
0.00192
1.41786e-08
0.00192
1.41764e-08
0.00192
1.41742e-08
0.00192
1.4172e-08
0.00192
1.41697e-08
0.00192
1.41675e-08
0.00192
1.41653e-08
0.00192
1.4163e-08
0.00192
1.41608e-08
0.00192
1.41585e-08
0.00192
1.41563e-08
0.00192
1.4154e-08
0.00192
1.41518e-08
0.00192
1.41495e-08
0.00192
1.41472e-08
0.00192
1.4145e-08
0.00192
1.41427e-08
0.00192
1.41404e-08
0.00192
1.41381e-08
0.00192
1.41359e-08
0.00192
1.41336e-08
0.00192
1.41313e-08
0.00192
1.4129e-08
0.00192
1.41267e-08
0.00192
1.41244e-08
0.00192
1.41222e-08
0.00192
1.41199e-08
0.00192
1.41176e-08
0.00192
1.41153e-08
0.00192
1.4113e-08
0.00192
1.41107e-08
0.00192
1.41084e-08
0.00192
1.41061e-08
0.00192
1.41038e-08
0.00192
1.41015e-08
0.00192
1.40992e-08
0.00192
1.40969e-08
0.00192
1.40946e-08
0.00192
1.40923e-08
0.00192
1.409e-08
0.00192
1.40877e-08
0.00192
1.40854e-08
0.00192
1.40831e-08
0.00192
1.40808e-08
0.00192
1.40785e-08
0.00192
1.40761e-08
0.00192
1.40738e-08
0.00192
1.40715e-08
0.00192
1.40691e-08
0.00192
1.40668e-08
0.00192
1.40644e-08
0.00192
1.4062e-08
0.00192
1.40597e-08
0.00192
1.40573e-08
0.00192
0.00192
1.6463e-08
0.00192
1.646e-08
0.00192
1.6457e-08
0.00192
1.64542e-08
0.00192
1.64513e-08
0.00192
1.64483e-08
0.00192
1.64453e-08
0.00192
1.64422e-08
0.00192
1.64391e-08
0.00192
1.64359e-08
0.00192
1.64327e-08
0.00192
1.64295e-08
0.00192
1.64263e-08
0.00192
1.64231e-08
0.00192
1.64198e-08
0.00192
1.64165e-08
0.00192
1.64133e-08
0.00192
1.641e-08
0.00192
1.64067e-08
0.00192
1.64034e-08
0.00192
1.64001e-08
0.00192
1.63968e-08
0.00192
1.63935e-08
0.00192
1.63901e-08
0.00192
1.63868e-08
0.00192
1.63835e-08
0.00192
1.63802e-08
0.00192
1.63768e-08
0.00192
1.63735e-08
0.00192
1.63702e-08
0.00192
1.63668e-08
0.00192
1.63635e-08
0.00192
1.63601e-08
0.00192
1.63568e-08
0.00192
1.63535e-08
0.00192
1.63501e-08
0.00192
1.63467e-08
0.00192
1.63434e-08
0.00192
1.634e-08
0.00192
1.63367e-08
0.00192
1.63333e-08
0.00192
1.63299e-08
0.00192
1.63265e-08
0.00192
1.63232e-08
0.00192
1.63198e-08
0.00192
1.63164e-08
0.00192
1.6313e-08
0.00192
1.63096e-08
0.00192
1.63062e-08
0.00192
1.63028e-08
0.00192
1.62994e-08
0.00192
1.6296e-08
0.00192
1.62926e-08
0.00192
1.62892e-08
0.00192
1.62857e-08
0.00192
1.62823e-08
0.00192
1.62789e-08
0.00192
1.62754e-08
0.00192
1.6272e-08
0.00192
1.62686e-08
0.00192
1.62651e-08
0.00192
1.62616e-08
0.00192
1.62582e-08
0.00192
1.62547e-08
0.00192
1.62512e-08
0.00192
1.62478e-08
0.00192
1.62443e-08
0.00192
1.62408e-08
0.00192
1.62373e-08
0.00192
1.62338e-08
0.00192
1.62303e-08
0.00192
1.62268e-08
0.00192
1.62233e-08
0.00192
1.62197e-08
0.00192
1.62162e-08
0.00192
1.62127e-08
0.00192
1.62091e-08
0.00192
1.62056e-08
0.00192
1.62021e-08
0.00192
1.61985e-08
0.00192
1.61949e-08
0.00192
1.61914e-08
0.00192
1.61878e-08
0.00192
1.61842e-08
0.00192
1.61807e-08
0.00192
1.61771e-08
0.00192
1.61735e-08
0.00192
1.61699e-08
0.00192
1.61663e-08
0.00192
1.61627e-08
0.00192
1.61591e-08
0.00192
1.61555e-08
0.00192
1.61518e-08
0.00192
1.61482e-08
0.00192
1.61446e-08
0.00192
1.61409e-08
0.00192
1.61373e-08
0.00192
1.61337e-08
0.00192
1.613e-08
0.00192
1.61264e-08
0.00192
1.61227e-08
0.00192
1.6119e-08
0.00192
1.61154e-08
0.00192
1.61117e-08
0.00192
1.6108e-08
0.00192
1.61044e-08
0.00192
1.61007e-08
0.00192
1.6097e-08
0.00192
1.60933e-08
0.00192
1.60896e-08
0.00192
1.60859e-08
0.00192
1.60823e-08
0.00192
1.60786e-08
0.00192
1.60749e-08
0.00192
1.60712e-08
0.00192
1.60675e-08
0.00192
1.60638e-08
0.00192
1.60601e-08
0.00192
1.60564e-08
0.00192
1.60526e-08
0.00192
1.60489e-08
0.00192
1.60452e-08
0.00192
1.60415e-08
0.00192
1.60378e-08
0.00192
1.60341e-08
0.00192
1.60304e-08
0.00192
1.60267e-08
0.00192
1.6023e-08
0.00192
1.60193e-08
0.00192
1.60155e-08
0.00192
1.60118e-08
0.00192
1.60081e-08
0.00192
1.60044e-08
0.00192
1.60007e-08
0.00192
1.5997e-08
0.00192
1.59932e-08
0.00192
1.59895e-08
0.00192
1.59858e-08
0.00192
1.5982e-08
0.00192
1.59783e-08
0.00192
1.59745e-08
0.00192
1.59708e-08
0.00192
1.5967e-08
0.00192
1.59633e-08
0.00192
1.59595e-08
0.00192
1.59557e-08
0.00192
1.59519e-08
0.00192
1.59481e-08
0.00192
1.59443e-08
0.00192
0.00192
1.682e-08
0.00192
1.68166e-08
0.00192
1.68131e-08
0.00192
1.68098e-08
0.00192
1.68064e-08
0.00192
1.68029e-08
0.00192
1.67994e-08
0.00192
1.67958e-08
0.00192
1.67922e-08
0.00192
1.67885e-08
0.00192
1.67849e-08
0.00192
1.67812e-08
0.00192
1.67775e-08
0.00192
1.67737e-08
0.00192
1.677e-08
0.00192
1.67662e-08
0.00192
1.67625e-08
0.00192
1.67587e-08
0.00192
1.67549e-08
0.00192
1.67512e-08
0.00192
1.67474e-08
0.00192
1.67436e-08
0.00192
1.67398e-08
0.00192
1.6736e-08
0.00192
1.67322e-08
0.00192
1.67284e-08
0.00192
1.67246e-08
0.00192
1.67208e-08
0.00192
1.67169e-08
0.00192
1.67131e-08
0.00192
1.67093e-08
0.00192
1.67055e-08
0.00192
1.67017e-08
0.00192
1.66978e-08
0.00192
1.6694e-08
0.00192
1.66902e-08
0.00192
1.66863e-08
0.00192
1.66825e-08
0.00192
1.66787e-08
0.00192
1.66748e-08
0.00192
1.6671e-08
0.00192
1.66671e-08
0.00192
1.66633e-08
0.00192
1.66594e-08
0.00192
1.66555e-08
0.00192
1.66517e-08
0.00192
1.66478e-08
0.00192
1.66439e-08
0.00192
1.66401e-08
0.00192
1.66362e-08
0.00192
1.66323e-08
0.00192
1.66284e-08
0.00192
1.66245e-08
0.00192
1.66206e-08
0.00192
1.66167e-08
0.00192
1.66128e-08
0.00192
1.66089e-08
0.00192
1.6605e-08
0.00192
1.6601e-08
0.00192
1.65971e-08
0.00192
1.65932e-08
0.00192
1.65893e-08
0.00192
1.65853e-08
0.00192
1.65814e-08
0.00192
1.65774e-08
0.00192
1.65735e-08
0.00192
1.65695e-08
0.00192
1.65655e-08
0.00192
1.65616e-08
0.00192
1.65576e-08
0.00192
1.65536e-08
0.00192
1.65496e-08
0.00192
1.65456e-08
0.00192
1.65416e-08
0.00192
1.65376e-08
0.00192
1.65336e-08
0.00192
1.65296e-08
0.00192
1.65256e-08
0.00192
1.65216e-08
0.00192
1.65175e-08
0.00192
1.65135e-08
0.00192
1.65095e-08
0.00192
1.65054e-08
0.00192
1.65014e-08
0.00192
1.64973e-08
0.00192
1.64933e-08
0.00192
1.64892e-08
0.00192
1.64851e-08
0.00192
1.64811e-08
0.00192
1.6477e-08
0.00192
1.64729e-08
0.00192
1.64688e-08
0.00192
1.64647e-08
0.00192
1.64606e-08
0.00192
1.64565e-08
0.00192
1.64524e-08
0.00192
1.64483e-08
0.00192
1.64442e-08
0.00192
1.644e-08
0.00192
1.64359e-08
0.00192
1.64318e-08
0.00192
1.64277e-08
0.00192
1.64235e-08
0.00192
1.64194e-08
0.00192
1.64152e-08
0.00192
1.64111e-08
0.00192
1.64069e-08
0.00192
1.64028e-08
0.00192
1.63986e-08
0.00192
1.63945e-08
0.00192
1.63903e-08
0.00192
1.63861e-08
0.00192
1.6382e-08
0.00192
1.63778e-08
0.00192
1.63736e-08
0.00192
1.63695e-08
0.00192
1.63653e-08
0.00192
1.63611e-08
0.00192
1.63569e-08
0.00192
1.63528e-08
0.00192
1.63486e-08
0.00192
1.63444e-08
0.00192
1.63402e-08
0.00192
1.6336e-08
0.00192
1.63319e-08
0.00192
1.63277e-08
0.00192
1.63235e-08
0.00192
1.63193e-08
0.00192
1.63151e-08
0.00192
1.63109e-08
0.00192
1.63067e-08
0.00192
1.63026e-08
0.00192
1.62984e-08
0.00192
1.62942e-08
0.00192
1.629e-08
0.00192
1.62858e-08
0.00192
1.62816e-08
0.00192
1.62774e-08
0.00192
1.62732e-08
0.00192
1.6269e-08
0.00192
1.62647e-08
0.00192
1.62605e-08
0.00192
1.62563e-08
0.00192
1.6252e-08
0.00192
1.62477e-08
0.00192
1.62435e-08
0.00192
1.62391e-08
0.00192
1.62349e-08
0.00192
1.62305e-08
0.00192
1.62262e-08
0.00192
0.00192
1.66298e-08
0.00192
1.66264e-08
0.00192
1.66229e-08
0.00192
1.66195e-08
0.00192
1.6616e-08
0.00192
1.66124e-08
0.00192
1.66088e-08
0.00192
1.66052e-08
0.00192
1.66015e-08
0.00192
1.65978e-08
0.00192
1.6594e-08
0.00192
1.65902e-08
0.00192
1.65865e-08
0.00192
1.65827e-08
0.00192
1.65788e-08
0.00192
1.6575e-08
0.00192
1.65712e-08
0.00192
1.65674e-08
0.00192
1.65635e-08
0.00192
1.65597e-08
0.00192
1.65558e-08
0.00192
1.65519e-08
0.00192
1.65481e-08
0.00192
1.65442e-08
0.00192
1.65403e-08
0.00192
1.65364e-08
0.00192
1.65325e-08
0.00192
1.65287e-08
0.00192
1.65248e-08
0.00192
1.65209e-08
0.00192
1.6517e-08
0.00192
1.65131e-08
0.00192
1.65092e-08
0.00192
1.65053e-08
0.00192
1.65014e-08
0.00192
1.64975e-08
0.00192
1.64936e-08
0.00192
1.64897e-08
0.00192
1.64858e-08
0.00192
1.64818e-08
0.00192
1.64779e-08
0.00192
1.6474e-08
0.00192
1.64701e-08
0.00192
1.64661e-08
0.00192
1.64622e-08
0.00192
1.64583e-08
0.00192
1.64543e-08
0.00192
1.64504e-08
0.00192
1.64464e-08
0.00192
1.64425e-08
0.00192
1.64385e-08
0.00192
1.64346e-08
0.00192
1.64306e-08
0.00192
1.64266e-08
0.00192
1.64227e-08
0.00192
1.64187e-08
0.00192
1.64147e-08
0.00192
1.64107e-08
0.00192
1.64067e-08
0.00192
1.64027e-08
0.00192
1.63987e-08
0.00192
1.63947e-08
0.00192
1.63907e-08
0.00192
1.63867e-08
0.00192
1.63827e-08
0.00192
1.63787e-08
0.00192
1.63746e-08
0.00192
1.63706e-08
0.00192
1.63666e-08
0.00192
1.63625e-08
0.00192
1.63585e-08
0.00192
1.63544e-08
0.00192
1.63504e-08
0.00192
1.63463e-08
0.00192
1.63422e-08
0.00192
1.63381e-08
0.00192
1.63341e-08
0.00192
1.633e-08
0.00192
1.63259e-08
0.00192
1.63218e-08
0.00192
1.63177e-08
0.00192
1.63136e-08
0.00192
1.63095e-08
0.00192
1.63054e-08
0.00192
1.63012e-08
0.00192
1.62971e-08
0.00192
1.6293e-08
0.00192
1.62888e-08
0.00192
1.62847e-08
0.00192
1.62805e-08
0.00192
1.62764e-08
0.00192
1.62722e-08
0.00192
1.62681e-08
0.00192
1.62639e-08
0.00192
1.62597e-08
0.00192
1.62556e-08
0.00192
1.62514e-08
0.00192
1.62472e-08
0.00192
1.6243e-08
0.00192
1.62388e-08
0.00192
1.62346e-08
0.00192
1.62304e-08
0.00192
1.62262e-08
0.00192
1.6222e-08
0.00192
1.62178e-08
0.00192
1.62136e-08
0.00192
1.62094e-08
0.00192
1.62052e-08
0.00192
1.6201e-08
0.00192
1.61967e-08
0.00192
1.61925e-08
0.00192
1.61883e-08
0.00192
1.6184e-08
0.00192
1.61798e-08
0.00192
1.61756e-08
0.00192
1.61713e-08
0.00192
1.61671e-08
0.00192
1.61629e-08
0.00192
1.61586e-08
0.00192
1.61544e-08
0.00192
1.61501e-08
0.00192
1.61459e-08
0.00192
1.61417e-08
0.00192
1.61374e-08
0.00192
1.61332e-08
0.00192
1.61289e-08
0.00192
1.61247e-08
0.00192
1.61204e-08
0.00192
1.61162e-08
0.00192
1.61119e-08
0.00192
1.61077e-08
0.00192
1.61034e-08
0.00192
1.60992e-08
0.00192
1.60949e-08
0.00192
1.60907e-08
0.00192
1.60864e-08
0.00192
1.60821e-08
0.00192
1.60779e-08
0.00192
1.60736e-08
0.00192
1.60693e-08
0.00192
1.6065e-08
0.00192
1.60607e-08
0.00192
1.60564e-08
0.00192
1.60521e-08
0.00192
1.60477e-08
0.00192
1.60434e-08
0.00192
1.60389e-08
0.00192
1.60346e-08
0.00192
1.60301e-08
0.00192
1.60255e-08
0.00192
1.60209e-08
0.00192
0.00192
1.63002e-08
0.00192
1.62969e-08
0.00192
1.62935e-08
0.00192
1.62902e-08
0.00192
1.62867e-08
0.00192
1.62832e-08
0.00192
1.62796e-08
0.00192
1.6276e-08
0.00192
1.62724e-08
0.00192
1.62687e-08
0.00192
1.6265e-08
0.00192
1.62613e-08
0.00192
1.62576e-08
0.00192
1.62538e-08
0.00192
1.625e-08
0.00192
1.62463e-08
0.00192
1.62425e-08
0.00192
1.62387e-08
0.00192
1.62349e-08
0.00192
1.62311e-08
0.00192
1.62273e-08
0.00192
1.62235e-08
0.00192
1.62196e-08
0.00192
1.62158e-08
0.00192
1.6212e-08
0.00192
1.62082e-08
0.00192
1.62043e-08
0.00192
1.62005e-08
0.00192
1.61967e-08
0.00192
1.61928e-08
0.00192
1.6189e-08
0.00192
1.61851e-08
0.00192
1.61813e-08
0.00192
1.61774e-08
0.00192
1.61736e-08
0.00192
1.61697e-08
0.00192
1.61659e-08
0.00192
1.6162e-08
0.00192
1.61582e-08
0.00192
1.61543e-08
0.00192
1.61504e-08
0.00192
1.61466e-08
0.00192
1.61427e-08
0.00192
1.61388e-08
0.00192
1.61349e-08
0.00192
1.6131e-08
0.00192
1.61272e-08
0.00192
1.61233e-08
0.00192
1.61194e-08
0.00192
1.61155e-08
0.00192
1.61116e-08
0.00192
1.61077e-08
0.00192
1.61037e-08
0.00192
1.60998e-08
0.00192
1.60959e-08
0.00192
1.6092e-08
0.00192
1.60881e-08
0.00192
1.60841e-08
0.00192
1.60802e-08
0.00192
1.60763e-08
0.00192
1.60723e-08
0.00192
1.60684e-08
0.00192
1.60644e-08
0.00192
1.60604e-08
0.00192
1.60565e-08
0.00192
1.60525e-08
0.00192
1.60485e-08
0.00192
1.60446e-08
0.00192
1.60406e-08
0.00192
1.60366e-08
0.00192
1.60326e-08
0.00192
1.60286e-08
0.00192
1.60246e-08
0.00192
1.60206e-08
0.00192
1.60166e-08
0.00192
1.60125e-08
0.00192
1.60085e-08
0.00192
1.60045e-08
0.00192
1.60005e-08
0.00192
1.59964e-08
0.00192
1.59924e-08
0.00192
1.59883e-08
0.00192
1.59843e-08
0.00192
1.59802e-08
0.00192
1.59761e-08
0.00192
1.59721e-08
0.00192
1.5968e-08
0.00192
1.59639e-08
0.00192
1.59598e-08
0.00192
1.59557e-08
0.00192
1.59517e-08
0.00192
1.59476e-08
0.00192
1.59435e-08
0.00192
1.59393e-08
0.00192
1.59352e-08
0.00192
1.59311e-08
0.00192
1.5927e-08
0.00192
1.59229e-08
0.00192
1.59188e-08
0.00192
1.59146e-08
0.00192
1.59105e-08
0.00192
1.59063e-08
0.00192
1.59022e-08
0.00192
1.58981e-08
0.00192
1.58939e-08
0.00192
1.58897e-08
0.00192
1.58856e-08
0.00192
1.58814e-08
0.00192
1.58773e-08
0.00192
1.58731e-08
0.00192
1.58689e-08
0.00192
1.58648e-08
0.00192
1.58606e-08
0.00192
1.58564e-08
0.00192
1.58522e-08
0.00192
1.58481e-08
0.00192
1.58439e-08
0.00192
1.58397e-08
0.00192
1.58355e-08
0.00192
1.58314e-08
0.00192
1.58272e-08
0.00192
1.5823e-08
0.00192
1.58188e-08
0.00192
1.58146e-08
0.00192
1.58104e-08
0.00192
1.58062e-08
0.00192
1.58021e-08
0.00192
1.57979e-08
0.00192
1.57937e-08
0.00192
1.57895e-08
0.00192
1.57853e-08
0.00192
1.57811e-08
0.00192
1.57769e-08
0.00192
1.57727e-08
0.00192
1.57685e-08
0.00192
1.57643e-08
0.00192
1.57601e-08
0.00192
1.57559e-08
0.00192
1.57517e-08
0.00192
1.57475e-08
0.00192
1.57432e-08
0.00192
1.5739e-08
0.00192
1.57347e-08
0.00192
1.57304e-08
0.00192
1.57261e-08
0.00192
1.57218e-08
0.00192
1.57174e-08
0.00192
1.57131e-08
0.00192
1.57086e-08
0.00192
1.5704e-08
0.00192
1.56994e-08
0.00192
0.00192
1.59408e-08
0.00192
1.59376e-08
0.00192
1.59344e-08
0.00192
1.59311e-08
0.00192
1.59278e-08
0.00192
1.59243e-08
0.00192
1.59208e-08
0.00192
1.59173e-08
0.00192
1.59138e-08
0.00192
1.59102e-08
0.00192
1.59065e-08
0.00192
1.59029e-08
0.00192
1.58992e-08
0.00192
1.58956e-08
0.00192
1.58919e-08
0.00192
1.58882e-08
0.00192
1.58845e-08
0.00192
1.58808e-08
0.00192
1.5877e-08
0.00192
1.58733e-08
0.00192
1.58696e-08
0.00192
1.58658e-08
0.00192
1.58621e-08
0.00192
1.58584e-08
0.00192
1.58546e-08
0.00192
1.58509e-08
0.00192
1.58471e-08
0.00192
1.58434e-08
0.00192
1.58396e-08
0.00192
1.58358e-08
0.00192
1.58321e-08
0.00192
1.58283e-08
0.00192
1.58246e-08
0.00192
1.58208e-08
0.00192
1.5817e-08
0.00192
1.58132e-08
0.00192
1.58095e-08
0.00192
1.58057e-08
0.00192
1.58019e-08
0.00192
1.57981e-08
0.00192
1.57943e-08
0.00192
1.57906e-08
0.00192
1.57868e-08
0.00192
1.5783e-08
0.00192
1.57792e-08
0.00192
1.57754e-08
0.00192
1.57716e-08
0.00192
1.57678e-08
0.00192
1.57639e-08
0.00192
1.57601e-08
0.00192
1.57563e-08
0.00192
1.57525e-08
0.00192
1.57487e-08
0.00192
1.57448e-08
0.00192
1.5741e-08
0.00192
1.57371e-08
0.00192
1.57333e-08
0.00192
1.57295e-08
0.00192
1.57256e-08
0.00192
1.57217e-08
0.00192
1.57179e-08
0.00192
1.5714e-08
0.00192
1.57101e-08
0.00192
1.57063e-08
0.00192
1.57024e-08
0.00192
1.56985e-08
0.00192
1.56946e-08
0.00192
1.56907e-08
0.00192
1.56868e-08
0.00192
1.56829e-08
0.00192
1.5679e-08
0.00192
1.56751e-08
0.00192
1.56712e-08
0.00192
1.56672e-08
0.00192
1.56633e-08
0.00192
1.56594e-08
0.00192
1.56554e-08
0.00192
1.56515e-08
0.00192
1.56476e-08
0.00192
1.56436e-08
0.00192
1.56396e-08
0.00192
1.56357e-08
0.00192
1.56317e-08
0.00192
1.56277e-08
0.00192
1.56238e-08
0.00192
1.56198e-08
0.00192
1.56158e-08
0.00192
1.56118e-08
0.00192
1.56078e-08
0.00192
1.56038e-08
0.00192
1.55998e-08
0.00192
1.55958e-08
0.00192
1.55918e-08
0.00192
1.55877e-08
0.00192
1.55837e-08
0.00192
1.55797e-08
0.00192
1.55757e-08
0.00192
1.55716e-08
0.00192
1.55676e-08
0.00192
1.55635e-08
0.00192
1.55595e-08
0.00192
1.55554e-08
0.00192
1.55514e-08
0.00192
1.55473e-08
0.00192
1.55433e-08
0.00192
1.55392e-08
0.00192
1.55351e-08
0.00192
1.55311e-08
0.00192
1.5527e-08
0.00192
1.55229e-08
0.00192
1.55188e-08
0.00192
1.55148e-08
0.00192
1.55107e-08
0.00192
1.55066e-08
0.00192
1.55025e-08
0.00192
1.54984e-08
0.00192
1.54943e-08
0.00192
1.54902e-08
0.00192
1.54861e-08
0.00192
1.54821e-08
0.00192
1.5478e-08
0.00192
1.54739e-08
0.00192
1.54698e-08
0.00192
1.54657e-08
0.00192
1.54616e-08
0.00192
1.54575e-08
0.00192
1.54534e-08
0.00192
1.54493e-08
0.00192
1.54452e-08
0.00192
1.54411e-08
0.00192
1.5437e-08
0.00192
1.54329e-08
0.00192
1.54288e-08
0.00192
1.54247e-08
0.00192
1.54206e-08
0.00192
1.54164e-08
0.00192
1.54123e-08
0.00192
1.54082e-08
0.00192
1.54041e-08
0.00192
1.53999e-08
0.00192
1.53958e-08
0.00192
1.53916e-08
0.00192
1.53874e-08
0.00192
1.53832e-08
0.00192
1.5379e-08
0.00192
1.53748e-08
0.00192
1.53704e-08
0.00192
1.53662e-08
0.00192
1.53618e-08
0.00192
1.53571e-08
0.00192
1.53526e-08
0.00192
1.53482e-08
0.00192
0.00192
1.5576e-08
0.00192
1.55729e-08
0.00192
1.55698e-08
0.00192
1.55666e-08
0.00192
1.55633e-08
0.00192
1.556e-08
0.00192
1.55566e-08
0.00192
1.55531e-08
0.00192
1.55497e-08
0.00192
1.55461e-08
0.00192
1.55426e-08
0.00192
1.5539e-08
0.00192
1.55355e-08
0.00192
1.55319e-08
0.00192
1.55283e-08
0.00192
1.55247e-08
0.00192
1.55211e-08
0.00192
1.55174e-08
0.00192
1.55138e-08
0.00192
1.55101e-08
0.00192
1.55065e-08
0.00192
1.55028e-08
0.00192
1.54992e-08
0.00192
1.54955e-08
0.00192
1.54919e-08
0.00192
1.54882e-08
0.00192
1.54845e-08
0.00192
1.54809e-08
0.00192
1.54772e-08
0.00192
1.54735e-08
0.00192
1.54698e-08
0.00192
1.54662e-08
0.00192
1.54625e-08
0.00192
1.54588e-08
0.00192
1.54551e-08
0.00192
1.54514e-08
0.00192
1.54478e-08
0.00192
1.54441e-08
0.00192
1.54404e-08
0.00192
1.54367e-08
0.00192
1.5433e-08
0.00192
1.54293e-08
0.00192
1.54256e-08
0.00192
1.54219e-08
0.00192
1.54182e-08
0.00192
1.54144e-08
0.00192
1.54107e-08
0.00192
1.5407e-08
0.00192
1.54033e-08
0.00192
1.53996e-08
0.00192
1.53958e-08
0.00192
1.53921e-08
0.00192
1.53883e-08
0.00192
1.53846e-08
0.00192
1.53809e-08
0.00192
1.53771e-08
0.00192
1.53734e-08
0.00192
1.53696e-08
0.00192
1.53658e-08
0.00192
1.53621e-08
0.00192
1.53583e-08
0.00192
1.53545e-08
0.00192
1.53507e-08
0.00192
1.53469e-08
0.00192
1.53432e-08
0.00192
1.53394e-08
0.00192
1.53356e-08
0.00192
1.53318e-08
0.00192
1.53279e-08
0.00192
1.53241e-08
0.00192
1.53203e-08
0.00192
1.53165e-08
0.00192
1.53127e-08
0.00192
1.53088e-08
0.00192
1.5305e-08
0.00192
1.53012e-08
0.00192
1.52973e-08
0.00192
1.52934e-08
0.00192
1.52896e-08
0.00192
1.52857e-08
0.00192
1.52819e-08
0.00192
1.5278e-08
0.00192
1.52741e-08
0.00192
1.52702e-08
0.00192
1.52663e-08
0.00192
1.52625e-08
0.00192
1.52586e-08
0.00192
1.52547e-08
0.00192
1.52508e-08
0.00192
1.52468e-08
0.00192
1.52429e-08
0.00192
1.5239e-08
0.00192
1.52351e-08
0.00192
1.52312e-08
0.00192
1.52272e-08
0.00192
1.52233e-08
0.00192
1.52194e-08
0.00192
1.52154e-08
0.00192
1.52115e-08
0.00192
1.52075e-08
0.00192
1.52036e-08
0.00192
1.51996e-08
0.00192
1.51957e-08
0.00192
1.51917e-08
0.00192
1.51877e-08
0.00192
1.51837e-08
0.00192
1.51798e-08
0.00192
1.51758e-08
0.00192
1.51718e-08
0.00192
1.51678e-08
0.00192
1.51639e-08
0.00192
1.51599e-08
0.00192
1.51559e-08
0.00192
1.51519e-08
0.00192
1.51479e-08
0.00192
1.51439e-08
0.00192
1.51399e-08
0.00192
1.51359e-08
0.00192
1.51319e-08
0.00192
1.51279e-08
0.00192
1.51239e-08
0.00192
1.51199e-08
0.00192
1.51159e-08
0.00192
1.51119e-08
0.00192
1.51079e-08
0.00192
1.51039e-08
0.00192
1.50999e-08
0.00192
1.50959e-08
0.00192
1.50919e-08
0.00192
1.50879e-08
0.00192
1.50839e-08
0.00192
1.50799e-08
0.00192
1.50759e-08
0.00192
1.50719e-08
0.00192
1.50678e-08
0.00192
1.50638e-08
0.00192
1.50598e-08
0.00192
1.50558e-08
0.00192
1.50517e-08
0.00192
1.50477e-08
0.00192
1.50436e-08
0.00192
1.50395e-08
0.00192
1.50354e-08
0.00192
1.50313e-08
0.00192
1.50272e-08
0.00192
1.5023e-08
0.00192
1.50188e-08
0.00192
1.50146e-08
0.00192
1.50102e-08
0.00192
1.50057e-08
0.00192
1.50012e-08
0.00192
1.49969e-08
0.00192
1.49924e-08
0.00192
0.00192
1.52102e-08
0.00192
1.52072e-08
0.00192
1.52042e-08
0.00192
1.52011e-08
0.00192
1.51979e-08
0.00192
1.51947e-08
0.00192
1.51914e-08
0.00192
1.5188e-08
0.00192
1.51846e-08
0.00192
1.51812e-08
0.00192
1.51777e-08
0.00192
1.51743e-08
0.00192
1.51708e-08
0.00192
1.51673e-08
0.00192
1.51637e-08
0.00192
1.51602e-08
0.00192
1.51567e-08
0.00192
1.51531e-08
0.00192
1.51496e-08
0.00192
1.5146e-08
0.00192
1.51425e-08
0.00192
1.51389e-08
0.00192
1.51353e-08
0.00192
1.51318e-08
0.00192
1.51282e-08
0.00192
1.51246e-08
0.00192
1.5121e-08
0.00192
1.51175e-08
0.00192
1.51139e-08
0.00192
1.51103e-08
0.00192
1.51067e-08
0.00192
1.51031e-08
0.00192
1.50995e-08
0.00192
1.50959e-08
0.00192
1.50923e-08
0.00192
1.50887e-08
0.00192
1.50851e-08
0.00192
1.50815e-08
0.00192
1.50779e-08
0.00192
1.50743e-08
0.00192
1.50707e-08
0.00192
1.50671e-08
0.00192
1.50635e-08
0.00192
1.50599e-08
0.00192
1.50562e-08
0.00192
1.50526e-08
0.00192
1.5049e-08
0.00192
1.50454e-08
0.00192
1.50417e-08
0.00192
1.50381e-08
0.00192
1.50344e-08
0.00192
1.50308e-08
0.00192
1.50271e-08
0.00192
1.50235e-08
0.00192
1.50198e-08
0.00192
1.50162e-08
0.00192
1.50125e-08
0.00192
1.50088e-08
0.00192
1.50052e-08
0.00192
1.50015e-08
0.00192
1.49978e-08
0.00192
1.49941e-08
0.00192
1.49904e-08
0.00192
1.49867e-08
0.00192
1.4983e-08
0.00192
1.49793e-08
0.00192
1.49756e-08
0.00192
1.49719e-08
0.00192
1.49682e-08
0.00192
1.49645e-08
0.00192
1.49607e-08
0.00192
1.4957e-08
0.00192
1.49533e-08
0.00192
1.49495e-08
0.00192
1.49458e-08
0.00192
1.4942e-08
0.00192
1.49383e-08
0.00192
1.49345e-08
0.00192
1.49308e-08
0.00192
1.4927e-08
0.00192
1.49232e-08
0.00192
1.49194e-08
0.00192
1.49156e-08
0.00192
1.49119e-08
0.00192
1.49081e-08
0.00192
1.49043e-08
0.00192
1.49005e-08
0.00192
1.48967e-08
0.00192
1.48928e-08
0.00192
1.4889e-08
0.00192
1.48852e-08
0.00192
1.48814e-08
0.00192
1.48776e-08
0.00192
1.48737e-08
0.00192
1.48699e-08
0.00192
1.4866e-08
0.00192
1.48622e-08
0.00192
1.48584e-08
0.00192
1.48545e-08
0.00192
1.48506e-08
0.00192
1.48468e-08
0.00192
1.48429e-08
0.00192
1.48391e-08
0.00192
1.48352e-08
0.00192
1.48313e-08
0.00192
1.48274e-08
0.00192
1.48236e-08
0.00192
1.48197e-08
0.00192
1.48158e-08
0.00192
1.48119e-08
0.00192
1.4808e-08
0.00192
1.48041e-08
0.00192
1.48002e-08
0.00192
1.47963e-08
0.00192
1.47924e-08
0.00192
1.47885e-08
0.00192
1.47847e-08
0.00192
1.47808e-08
0.00192
1.47769e-08
0.00192
1.47729e-08
0.00192
1.4769e-08
0.00192
1.47651e-08
0.00192
1.47612e-08
0.00192
1.47573e-08
0.00192
1.47534e-08
0.00192
1.47495e-08
0.00192
1.47456e-08
0.00192
1.47417e-08
0.00192
1.47378e-08
0.00192
1.47339e-08
0.00192
1.473e-08
0.00192
1.47261e-08
0.00192
1.47221e-08
0.00192
1.47182e-08
0.00192
1.47143e-08
0.00192
1.47104e-08
0.00192
1.47064e-08
0.00192
1.47025e-08
0.00192
1.46985e-08
0.00192
1.46946e-08
0.00192
1.46906e-08
0.00192
1.46866e-08
0.00192
1.46826e-08
0.00192
1.46786e-08
0.00192
1.46745e-08
0.00192
1.46705e-08
0.00192
1.46663e-08
0.00192
1.46622e-08
0.00192
1.46579e-08
0.00192
1.46534e-08
0.00192
1.46491e-08
0.00192
1.46449e-08
0.00192
1.46405e-08
0.00192
0.00192
1.48443e-08
0.00192
1.48414e-08
0.00192
1.48384e-08
0.00192
1.48354e-08
0.00192
1.48323e-08
0.00192
1.48292e-08
0.00192
1.48259e-08
0.00192
1.48227e-08
0.00192
1.48194e-08
0.00192
1.4816e-08
0.00192
1.48127e-08
0.00192
1.48093e-08
0.00192
1.48059e-08
0.00192
1.48024e-08
0.00192
1.4799e-08
0.00192
1.47956e-08
0.00192
1.47921e-08
0.00192
1.47887e-08
0.00192
1.47852e-08
0.00192
1.47817e-08
0.00192
1.47783e-08
0.00192
1.47748e-08
0.00192
1.47713e-08
0.00192
1.47678e-08
0.00192
1.47643e-08
0.00192
1.47608e-08
0.00192
1.47573e-08
0.00192
1.47538e-08
0.00192
1.47503e-08
0.00192
1.47468e-08
0.00192
1.47433e-08
0.00192
1.47398e-08
0.00192
1.47363e-08
0.00192
1.47328e-08
0.00192
1.47293e-08
0.00192
1.47258e-08
0.00192
1.47223e-08
0.00192
1.47188e-08
0.00192
1.47153e-08
0.00192
1.47118e-08
0.00192
1.47082e-08
0.00192
1.47047e-08
0.00192
1.47012e-08
0.00192
1.46976e-08
0.00192
1.46941e-08
0.00192
1.46906e-08
0.00192
1.4687e-08
0.00192
1.46835e-08
0.00192
1.468e-08
0.00192
1.46764e-08
0.00192
1.46729e-08
0.00192
1.46693e-08
0.00192
1.46657e-08
0.00192
1.46622e-08
0.00192
1.46586e-08
0.00192
1.4655e-08
0.00192
1.46515e-08
0.00192
1.46479e-08
0.00192
1.46443e-08
0.00192
1.46407e-08
0.00192
1.46371e-08
0.00192
1.46335e-08
0.00192
1.46299e-08
0.00192
1.46263e-08
0.00192
1.46227e-08
0.00192
1.46191e-08
0.00192
1.46155e-08
0.00192
1.46119e-08
0.00192
1.46082e-08
0.00192
1.46046e-08
0.00192
1.4601e-08
0.00192
1.45973e-08
0.00192
1.45937e-08
0.00192
1.459e-08
0.00192
1.45864e-08
0.00192
1.45827e-08
0.00192
1.4579e-08
0.00192
1.45754e-08
0.00192
1.45717e-08
0.00192
1.4568e-08
0.00192
1.45643e-08
0.00192
1.45607e-08
0.00192
1.4557e-08
0.00192
1.45533e-08
0.00192
1.45496e-08
0.00192
1.45459e-08
0.00192
1.45422e-08
0.00192
1.45384e-08
0.00192
1.45347e-08
0.00192
1.4531e-08
0.00192
1.45273e-08
0.00192
1.45236e-08
0.00192
1.45198e-08
0.00192
1.45161e-08
0.00192
1.45123e-08
0.00192
1.45086e-08
0.00192
1.45048e-08
0.00192
1.45011e-08
0.00192
1.44973e-08
0.00192
1.44936e-08
0.00192
1.44898e-08
0.00192
1.4486e-08
0.00192