/*--------------------------------*- C++ -*----------------------------------*\
| =========                 |                                                 |
| \\      /  F ield         | OpenFOAM: The Open Source CFD Toolbox           |
|  \\    /   O peration     | Version:  2512                                  |
|   \\  /    A nd           | Website:  www.openfoam.com                      |
|    \\/     M anipulation  |                                                 |
\*---------------------------------------------------------------------------*/
FoamFile
{
    version     2.0;
    format      ascii;
    arch        "LSB;label=32;scalar=64";
    class       volVectorField;
    location    "0.1";
    object      U;
}
// * * * * * * * * * * * * * * * * * * * * * * * * * * * * * * * * * * * * * //

dimensions      [0 1 -1 0 0 0 0];

internalField   nonuniform List<vector> 
8333
(
(0.0247686 -6.09913e-06 6.19447e-20)
(0.0247854 -6.08542e-06 6.1786e-20)
(0.0248028 -6.06709e-06 6.19137e-20)
(0.02482 -5.9298e-06 6.18376e-20)
(0.0248365 -5.85896e-06 6.22086e-20)
(0.0248527 -5.86276e-06 6.0169e-20)
(0.0248688 -5.87089e-06 6.78416e-20)
(0.0248849 -5.86459e-06 4.13227e-20)
(0.024901 -5.85442e-06 1.13701e-19)
(0.024917 -5.84552e-06 -5.28836e-20)
(0.024933 -5.83718e-06 2.20157e-19)
(0.0249489 -5.82871e-06 -9.12502e-20)
(0.0249648 -5.82018e-06 1.28992e-20)
(0.0249807 -5.81167e-06 3.87957e-20)
(0.0249965 -5.80321e-06 3.83823e-19)
(0.0250123 -5.79474e-06 3.48123e-20)
(0.0250281 -5.78629e-06 7.4223e-20)
(0.0250438 -5.77784e-06 4.39709e-20)
(0.0250594 -5.76939e-06 3.74315e-19)
(0.0250751 -5.76095e-06 1.47461e-20)
(0.0250907 -5.75249e-06 5.17634e-20)
(0.0251062 -5.74401e-06 3.72497e-20)
(0.0251217 -5.73553e-06 3.70052e-19)
(0.0251372 -5.72704e-06 1.44575e-20)
(0.0251526 -5.71851e-06 5.36112e-20)
(0.025168 -5.70999e-06 3.3876e-20)
(0.0251833 -5.70142e-06 3.64705e-19)
(0.0251986 -5.69285e-06 7.12915e-21)
(0.0252139 -5.68429e-06 4.87436e-20)
(0.0252291 -5.67568e-06 3.14586e-20)
(0.0252443 -5.66708e-06 3.65642e-19)
(0.0252595 -5.65843e-06 6.0436e-21)
(0.0252746 -5.64979e-06 4.59466e-20)
(0.0252896 -5.64111e-06 3.74615e-20)
(0.0253047 -5.63244e-06 3.64356e-19)
(0.0253197 -5.62375e-06 6.00502e-21)
(0.0253346 -5.61504e-06 5.01784e-20)
(0.0253495 -5.60632e-06 3.50178e-20)
(0.0253644 -5.59757e-06 3.62359e-19)
(0.0253792 -5.5888e-06 -1.17394e-21)
(0.025394 -5.58e-06 4.25922e-20)
(0.0254087 -5.57122e-06 3.67768e-20)
(0.0254234 -5.56235e-06 3.63262e-19)
(0.025438 -5.5536e-06 2.92385e-21)
(0.0254527 -5.54462e-06 4.71978e-20)
(0.0254672 -5.53596e-06 3.50814e-20)
(0.0254818 -5.52678e-06 3.60886e-19)
(0.0254962 -5.51789e-06 -1.87183e-22)
(0.0255107 -5.50897e-06 4.50042e-20)
(0.0255251 -5.50002e-06 3.36637e-20)
(0.0255395 -5.49106e-06 3.64758e-19)
(0.0255538 -5.48206e-06 -9.81793e-23)
(0.0255681 -5.47301e-06 4.30373e-20)
(0.0255823 -5.46395e-06 3.91965e-20)
(0.0255965 -5.45487e-06 3.64262e-19)
(0.0256106 -5.44575e-06 3.30245e-21)
(0.0256248 -5.43661e-06 4.81942e-20)
(0.0256388 -5.42744e-06 3.62569e-20)
(0.0256529 -5.41824e-06 3.63059e-19)
(0.0256668 -5.40901e-06 -2.90445e-21)
(0.0256808 -5.39976e-06 4.27769e-20)
(0.0256947 -5.39048e-06 4.40821e-20)
(0.0257085 -5.38117e-06 3.62895e-19)
(0.0257223 -5.37183e-06 3.61399e-21)
(0.0257361 -5.36246e-06 4.88089e-20)
(0.0257498 -5.35306e-06 4.7258e-20)
(0.0257635 -5.34363e-06 3.48379e-19)
(0.0257772 -5.33417e-06 3.62973e-20)
(0.0257908 -5.32467e-06 -5.12462e-20)
(0.0258043 -5.31513e-06 2.67266e-19)
(0.0258178 -5.30556e-06 4.70298e-20)
(0.0258313 -5.29597e-06 2.72899e-19)
(0.0258447 -5.28634e-06 1.36401e-19)
(0.0258581 -5.27666e-06 -1.09707e-19)
(0.0258714 -5.26696e-06 -1.95821e-19)
(0.0258847 -5.25722e-06 -1.41173e-19)
(0.025898 -5.24745e-06 -5.55873e-20)
(0.0259112 -5.23763e-06 4.33258e-21)
(0.0259244 -5.22781e-06 3.51047e-20)
(0.0259375 -5.2179e-06 4.81286e-20)
(0.0259506 -5.20804e-06 5.32902e-20)
(0.0259636 -5.198e-06 5.55788e-20)
(0.0259766 -5.188e-06 5.68449e-20)
(0.0259895 -5.17798e-06 5.77498e-20)
(0.0260024 -5.16792e-06 5.83764e-20)
(0.0260153 -5.15782e-06 5.89053e-20)
(0.0260281 -5.14767e-06 5.9359e-20)
(0.0260409 -5.13749e-06 5.96722e-20)
(0.0260536 -5.12727e-06 5.99427e-20)
(0.0260663 -5.11702e-06 6.01487e-20)
(0.0260789 -5.10673e-06 6.03114e-20)
(0.0260915 -5.09641e-06 6.04582e-20)
(0.026104 -5.08605e-06 6.06024e-20)
(0.0261165 -5.07565e-06 6.06106e-20)
(0.026129 -5.06522e-06 6.04789e-20)
(0.0261414 -5.05471e-06 6.05621e-20)
(0.0261538 -5.0442e-06 6.07524e-20)
(0.0261661 -5.03365e-06 6.08811e-20)
(0.0261784 -5.02306e-06 6.10051e-20)
(0.0261906 -5.01243e-06 6.10722e-20)
(0.0262028 -5.00176e-06 6.11832e-20)
(0.0262149 -4.99105e-06 6.13145e-20)
(0.026227 -4.98029e-06 6.13075e-20)
(0.0262391 -4.96953e-06 6.13324e-20)
(0.0262511 -4.95868e-06 6.13533e-20)
(0.0262631 -4.94791e-06 6.14753e-20)
(0.026275 -4.93691e-06 6.15072e-20)
(0.0262869 -4.9262e-06 6.15275e-20)
(0.0262987 -4.91501e-06 6.15374e-20)
(0.0263105 -4.90406e-06 6.1588e-20)
(0.0263222 -4.8931e-06 6.14201e-20)
(0.0263339 -4.88209e-06 6.13529e-20)
(0.0263455 -4.87105e-06 6.13738e-20)
(0.0263571 -4.85996e-06 6.14034e-20)
(0.0263687 -4.84884e-06 6.15372e-20)
(0.0263802 -4.83771e-06 6.15663e-20)
(0.0263917 -4.82655e-06 6.15601e-20)
(0.0264031 -4.81538e-06 6.14629e-20)
(0.0264144 -4.8042e-06 6.13931e-20)
(0.0264258 -4.79303e-06 6.15855e-20)
(0.026437 -4.78186e-06 6.17978e-20)
(0.0264483 -4.77073e-06 6.17413e-20)
(0.0264595 -4.75959e-06 6.17757e-20)
(0.0264706 -4.7485e-06 6.17174e-20)
(0.0264817 -4.73739e-06 6.17742e-20)
(0.0264927 -4.72634e-06 6.17794e-20)
(0.0265037 -4.71533e-06 6.16979e-20)
(0.0265147 -4.70434e-06 6.1754e-20)
(0.0265256 -4.69339e-06 6.15478e-20)
(0.0265364 -4.68247e-06 6.15106e-20)
(0.0265472 -4.67156e-06 5.99441e-20)
(0.026558 -4.66067e-06 6.5249e-20)
(0.0265687 -4.64979e-06 4.50231e-20)
(0.0265794 -4.6389e-06 1.04678e-19)
(0.02659 -4.62801e-06 -4.54589e-20)
(0.0266006 -4.61706e-06 2.23318e-19)
(0.0266111 -4.60611e-06 -1.144e-19)
(0.0266216 -4.59491e-06 1.54151e-20)
(0.026632 -4.58394e-06 7.0962e-20)
(0.0266423 -4.57187e-06 3.98214e-19)
(0.0266527 -4.56118e-06 7.57995e-21)
(0.0266629 -4.54754e-06 5.6874e-20)
(0.0266731 -4.53506e-06 6.89337e-20)
(0.0266833 -4.52815e-06 3.84449e-19)
(0.0266933 -4.48728e-06 -1.13968e-20)
(0.0267034 -4.54139e-06 4.64014e-20)
(0.0267132 -4.35711e-06 6.35471e-20)
(0.0267228 -4.44716e-06 3.78151e-19)
(0.0267325 -4.12226e-06 -1.77119e-20)
(0.0491955 -1.36408e-05 9.8531e-20)
(0.0492081 -1.38944e-05 9.80488e-20)
(0.0492215 -1.40954e-05 9.84634e-20)
(0.0492353 -1.37927e-05 9.76896e-20)
(0.0492488 -1.34984e-05 1.01694e-19)
(0.0492617 -1.34308e-05 8.48864e-20)
(0.0492745 -1.34438e-05 1.44606e-19)
(0.0492873 -1.34415e-05 -3.72493e-20)
(0.0493001 -1.3428e-05 4.19706e-19)
(0.0493129 -1.34162e-05 -5.04303e-19)
(0.0493256 -1.34061e-05 8.7139e-19)
(0.0493382 -1.3396e-05 -4.57405e-19)
(0.0493508 -1.33857e-05 3.22841e-20)
(0.0493634 -1.33757e-05 -9.89337e-20)
(0.0493759 -1.33658e-05 1.71891e-18)
(0.0493884 -1.33561e-05 3.14322e-19)
(0.0494008 -1.33466e-05 5.22566e-19)
(0.0494133 -1.33371e-05 9.01891e-20)
(0.0494256 -1.33276e-05 1.78006e-18)
(0.0494379 -1.33182e-05 3.04068e-19)
(0.0494502 -1.33089e-05 4.61078e-19)
(0.0494625 -1.32996e-05 7.44171e-20)
(0.0494747 -1.32903e-05 1.77814e-18)
(0.0494868 -1.3281e-05 3.14086e-19)
(0.049499 -1.32717e-05 4.82419e-19)
(0.0495111 -1.32624e-05 7.87407e-20)
(0.0495231 -1.3253e-05 1.76986e-18)
(0.0495351 -1.32437e-05 2.88526e-19)
(0.0495471 -1.32344e-05 4.68907e-19)
(0.049559 -1.3225e-05 7.03361e-20)
(0.0495709 -1.32157e-05 1.77673e-18)
(0.0495827 -1.32063e-05 2.89409e-19)
(0.0495945 -1.31969e-05 4.52374e-19)
(0.0496063 -1.31874e-05 9.46642e-20)
(0.049618 -1.3178e-05 1.78016e-18)
(0.0496297 -1.31685e-05 2.86628e-19)
(0.0496413 -1.3159e-05 4.73224e-19)
(0.0496529 -1.31495e-05 9.1325e-20)
(0.0496645 -1.314e-05 1.77779e-18)
(0.049676 -1.31305e-05 2.66084e-19)
(0.0496875 -1.31209e-05 4.30223e-19)
(0.0496989 -1.31114e-05 8.99076e-20)
(0.0497103 -1.31017e-05 1.77832e-18)
(0.0497216 -1.30923e-05 2.76212e-19)
(0.0497329 -1.30823e-05 4.59239e-19)
(0.0497442 -1.30733e-05 9.37709e-20)
(0.0497554 -1.30632e-05 1.7687e-18)
(0.0497666 -1.30534e-05 2.64137e-19)
(0.0497778 -1.30438e-05 4.4958e-19)
(0.0497888 -1.30342e-05 7.98378e-20)
(0.0497999 -1.30246e-05 1.78103e-18)
(0.0498109 -1.30149e-05 2.6732e-19)
(0.0498219 -1.30052e-05 4.34246e-19)
(0.0498328 -1.29954e-05 1.03013e-19)
(0.0498437 -1.29857e-05 1.78178e-18)
(0.0498546 -1.2976e-05 2.76426e-19)
(0.0498654 -1.29663e-05 4.63592e-19)
(0.0498761 -1.29565e-05 9.56351e-20)
(0.0498869 -1.29468e-05 1.7797e-18)
(0.0498975 -1.29371e-05 2.49536e-19)
(0.0499082 -1.29273e-05 4.28935e-19)
(0.0499188 -1.29176e-05 1.25453e-19)
(0.0499293 -1.29078e-05 1.77945e-18)
(0.0499398 -1.28981e-05 2.71128e-19)
(0.0499503 -1.28883e-05 4.50838e-19)
(0.0499607 -1.28786e-05 1.50698e-19)
(0.0499711 -1.28688e-05 1.68249e-18)
(0.0499814 -1.28591e-05 4.85775e-19)
(0.0499917 -1.28494e-05 -1.69188e-19)
(0.050002 -1.28397e-05 1.28556e-18)
(0.0500122 -1.28299e-05 2.65518e-19)
(0.0500223 -1.28202e-05 1.2798e-18)
(0.0500324 -1.28105e-05 8.01423e-19)
(0.0500425 -1.28008e-05 -2.87882e-19)
(0.0500526 -1.27911e-05 -8.6386e-19)
(0.0500625 -1.27814e-05 -7.8324e-19)
(0.0500725 -1.27718e-05 -4.52053e-19)
(0.0500824 -1.27621e-05 -1.73941e-19)
(0.0500923 -1.27525e-05 -1.77594e-20)
(0.0501021 -1.27427e-05 5.08907e-20)
(0.0501118 -1.27332e-05 7.66856e-20)
(0.0501216 -1.27235e-05 8.59319e-20)
(0.0501313 -1.27138e-05 8.94778e-20)
(0.0501409 -1.27042e-05 9.13648e-20)
(0.0501505 -1.26947e-05 9.24931e-20)
(0.05016 -1.26851e-05 9.3378e-20)
(0.0501695 -1.26755e-05 9.42172e-20)
(0.050179 -1.26659e-05 9.47411e-20)
(0.0501884 -1.26563e-05 9.51665e-20)
(0.0501978 -1.26468e-05 9.55533e-20)
(0.0502071 -1.26372e-05 9.5812e-20)
(0.0502164 -1.26277e-05 9.59683e-20)
(0.0502257 -1.26181e-05 9.62836e-20)
(0.0502349 -1.26085e-05 9.64304e-20)
(0.050244 -1.2599e-05 9.60388e-20)
(0.0502531 -1.25894e-05 9.60668e-20)
(0.0502622 -1.25799e-05 9.63892e-20)
(0.0502712 -1.25703e-05 9.65816e-20)
(0.0502802 -1.25608e-05 9.69109e-20)
(0.0502891 -1.25513e-05 9.70182e-20)
(0.050298 -1.25417e-05 9.71552e-20)
(0.0503068 -1.25322e-05 9.74821e-20)
(0.0503156 -1.25226e-05 9.746e-20)
(0.0503244 -1.2513e-05 9.74505e-20)
(0.0503331 -1.25033e-05 9.74218e-20)
(0.0503417 -1.24939e-05 9.76732e-20)
(0.0503503 -1.24839e-05 9.76565e-20)
(0.0503589 -1.24748e-05 9.77215e-20)
(0.0503674 -1.24647e-05 9.7715e-20)
(0.0503759 -1.24549e-05 9.80498e-20)
(0.0503843 -1.24452e-05 9.77328e-20)
(0.0503927 -1.24354e-05 9.75019e-20)
(0.0504011 -1.24256e-05 9.74733e-20)
(0.0504094 -1.24157e-05 9.74938e-20)
(0.0504176 -1.24057e-05 9.78231e-20)
(0.0504258 -1.23957e-05 9.78786e-20)
(0.050434 -1.23857e-05 9.79398e-20)
(0.0504421 -1.23757e-05 9.77983e-20)
(0.0504502 -1.23656e-05 9.7447e-20)
(0.0504582 -1.23554e-05 9.77513e-20)
(0.0504662 -1.23453e-05 9.83668e-20)
(0.0504741 -1.23352e-05 9.81885e-20)
(0.050482 -1.23249e-05 9.82458e-20)
(0.0504898 -1.23148e-05 9.79795e-20)
(0.0504976 -1.23045e-05 9.8078e-20)
(0.0505054 -1.22942e-05 9.8254e-20)
(0.0505131 -1.22839e-05 9.80183e-20)
(0.0505207 -1.22736e-05 9.82409e-20)
(0.0505283 -1.22632e-05 9.76935e-20)
(0.0505359 -1.22528e-05 9.97833e-20)
(0.0505434 -1.22423e-05 8.7946e-20)
(0.0505509 -1.22317e-05 1.30995e-19)
(0.0505583 -1.22209e-05 -1.16819e-20)
(0.0505657 -1.22101e-05 3.78241e-19)
(0.050573 -1.21991e-05 -4.8102e-19)
(0.0505803 -1.21879e-05 9.15062e-19)
(0.0505875 -1.21765e-05 -5.5656e-19)
(0.0505947 -1.21646e-05 9.91333e-21)
(0.0506018 -1.21531e-05 4.67794e-20)
(0.0506089 -1.21396e-05 1.83668e-18)
(0.050616 -1.21281e-05 2.35299e-19)
(0.050623 -1.21143e-05 4.12997e-19)
(0.05063 -1.20925e-05 1.77085e-19)
(0.0506368 -1.21147e-05 1.86804e-18)
(0.0506438 -1.19825e-05 2.00607e-19)
(0.0506506 -1.22496e-05 4.04015e-19)
(0.0506574 -1.16796e-05 1.88809e-19)
(0.0506642 -1.2327e-05 1.86954e-18)
(0.0506702 -1.15062e-05 1.92615e-19)
(0.0597305 -1.39521e-05 1.2842e-19)
(0.0597378 -1.42707e-05 1.27073e-19)
(0.0597452 -1.45385e-05 1.28179e-19)
(0.0597535 -1.42664e-05 1.25832e-19)
(0.0597617 -1.39384e-05 1.38221e-19)
(0.0597695 -1.38445e-05 8.6585e-20)
(0.0597772 -1.3854e-05 2.68949e-19)
(0.0597849 -1.38555e-05 -2.7434e-19)
(0.0597926 -1.38475e-05 1.06892e-18)
(0.0598002 -1.38425e-05 -1.61369e-18)
(0.0598078 -1.38396e-05 2.48149e-18)
(0.0598153 -1.38369e-05 -1.96272e-18)
(0.0598228 -1.38341e-05 1.01932e-18)
(0.0598302 -1.38316e-05 2.2424e-19)
(0.0598376 -1.38294e-05 5.12753e-18)
(0.059845 -1.38275e-05 3.3112e-19)
(0.0598523 -1.38258e-05 2.47856e-18)
(0.0598596 -1.38242e-05 8.74974e-19)
(0.0598669 -1.38228e-05 5.38027e-18)
(0.0598741 -1.38215e-05 3.90549e-19)
(0.0598812 -1.38203e-05 2.38379e-18)
(0.0598884 -1.38192e-05 8.41441e-19)
(0.0598954 -1.38181e-05 5.37902e-18)
(0.0599025 -1.38171e-05 4.2618e-19)
(0.0599095 -1.38161e-05 2.43588e-18)
(0.0599164 -1.38151e-05 8.60347e-19)
(0.0599234 -1.38141e-05 5.37954e-18)
(0.0599302 -1.38131e-05 3.51781e-19)
(0.0599371 -1.38122e-05 2.42611e-18)
(0.0599439 -1.38113e-05 8.61623e-19)
(0.0599506 -1.38104e-05 5.40601e-18)
(0.0599574 -1.38095e-05 3.61522e-19)
(0.059964 -1.38086e-05 2.38001e-18)
(0.0599707 -1.38077e-05 9.12714e-19)
(0.0599773 -1.38068e-05 5.42351e-18)
(0.0599838 -1.38059e-05 3.52977e-19)
(0.0599903 -1.38051e-05 2.44845e-18)
(0.0599968 -1.38042e-05 9.14887e-19)
(0.0600033 -1.38034e-05 5.41711e-18)
(0.0600096 -1.38025e-05 3.38751e-19)
(0.060016 -1.38017e-05 2.30842e-18)
(0.0600223 -1.38008e-05 8.80762e-19)
(0.0600286 -1.37999e-05 5.41429e-18)
(0.0600348 -1.37994e-05 3.32242e-19)
(0.060041 -1.37981e-05 2.39986e-18)
(0.0600471 -1.37979e-05 9.29737e-19)
(0.0600532 -1.37969e-05 5.39612e-18)
(0.0600593 -1.37957e-05 3.01798e-19)
(0.0600653 -1.3795e-05 2.38722e-18)
(0.0600713 -1.37944e-05 8.86731e-19)
(0.0600772 -1.37938e-05 5.41497e-18)
(0.0600831 -1.3793e-05 3.14798e-19)
(0.060089 -1.37923e-05 2.32877e-18)
(0.0600948 -1.37916e-05 9.35371e-19)
(0.0601005 -1.37909e-05 5.42209e-18)
(0.0601063 -1.37902e-05 3.2206e-19)
(0.0601119 -1.37896e-05 2.42413e-18)
(0.0601176 -1.37889e-05 9.31747e-19)
(0.0601232 -1.37882e-05 5.4306e-18)
(0.0601287 -1.37876e-05 2.45521e-19)
(0.0601342 -1.3787e-05 2.32606e-18)
(0.0601397 -1.37864e-05 1.01357e-18)
(0.0601451 -1.37858e-05 5.43624e-18)
(0.0601505 -1.37852e-05 3.06742e-19)
(0.0601559 -1.37847e-05 2.38858e-18)
(0.0601612 -1.37842e-05 1.08581e-18)
(0.0601664 -1.37836e-05 5.14031e-18)
(0.0601716 -1.37831e-05 9.61679e-19)
(0.0601768 -1.37827e-05 5.70522e-19)
(0.0601819 -1.37822e-05 4.36368e-18)
(0.060187 -1.37817e-05 8.25714e-19)
(0.0601921 -1.37813e-05 4.24575e-18)
(0.060197 -1.37808e-05 1.35573e-18)
(0.060202 -1.37804e-05 -1.36462e-18)
(0.0602069 -1.378e-05 -2.56854e-18)
(0.0602118 -1.37796e-05 -2.24779e-18)
(0.0602166 -1.37792e-05 -1.35548e-18)
(0.0602214 -1.37788e-05 -6.08886e-19)
(0.0602261 -1.37785e-05 -1.80619e-19)
(0.0602308 -1.3778e-05 1.14804e-20)
(0.0602355 -1.37779e-05 8.37601e-20)
(0.0602401 -1.37774e-05 1.08466e-19)
(0.0602446 -1.3777e-05 1.16306e-19)
(0.0602491 -1.37767e-05 1.19518e-19)
(0.0602536 -1.37765e-05 1.20985e-19)
(0.060258 -1.37762e-05 1.2195e-19)
(0.0602624 -1.3776e-05 1.23203e-19)
(0.0602668 -1.37757e-05 1.23742e-19)
(0.0602711 -1.37755e-05 1.24127e-19)
(0.0602753 -1.37753e-05 1.24722e-19)
(0.0602795 -1.37751e-05 1.25036e-19)
(0.0602837 -1.37749e-05 1.24864e-19)
(0.0602878 -1.37748e-05 1.25423e-19)
(0.0602919 -1.37746e-05 1.25963e-19)
(0.0602959 -1.37745e-05 1.24863e-19)
(0.0602999 -1.37743e-05 1.24731e-19)
(0.0603038 -1.37742e-05 1.2528e-19)
(0.0603077 -1.37741e-05 1.25353e-19)
(0.0603116 -1.37741e-05 1.26167e-19)
(0.0603154 -1.3774e-05 1.26291e-19)
(0.0603191 -1.3774e-05 1.26278e-19)
(0.0603229 -1.37739e-05 1.27092e-19)
(0.0603265 -1.37739e-05 1.26921e-19)
(0.0603302 -1.37739e-05 1.26822e-19)
(0.0603337 -1.37738e-05 1.26594e-19)
(0.0603373 -1.37741e-05 1.27207e-19)
(0.0603408 -1.37736e-05 1.26867e-19)
(0.0603442 -1.37742e-05 1.2703e-19)
(0.0603476 -1.37738e-05 1.26736e-19)
(0.060351 -1.37734e-05 1.27984e-19)
(0.0603543 -1.37734e-05 1.27349e-19)
(0.0603576 -1.37734e-05 1.26778e-19)
(0.0603608 -1.37733e-05 1.26634e-19)
(0.060364 -1.37732e-05 1.26571e-19)
(0.0603671 -1.37729e-05 1.2744e-19)
(0.0603702 -1.37727e-05 1.27402e-19)
(0.0603732 -1.37725e-05 1.27646e-19)
(0.0603762 -1.37722e-05 1.27559e-19)
(0.0603792 -1.37719e-05 1.26397e-19)
(0.0603821 -1.37716e-05 1.26846e-19)
(0.0603849 -1.37712e-05 1.28569e-19)
(0.0603877 -1.37708e-05 1.27867e-19)
(0.0603905 -1.37703e-05 1.28076e-19)
(0.0603932 -1.37699e-05 1.27124e-19)
(0.0603959 -1.37692e-05 1.27222e-19)
(0.0603985 -1.37685e-05 1.27996e-19)
(0.0604011 -1.37678e-05 1.27293e-19)
(0.0604036 -1.37669e-05 1.27753e-19)
(0.0604061 -1.3766e-05 1.26648e-19)
(0.0604086 -1.3765e-05 1.33923e-19)
(0.060411 -1.37638e-05 9.78848e-20)
(0.0604133 -1.37626e-05 2.30369e-19)
(0.0604157 -1.37612e-05 -1.99693e-19)
(0.0604179 -1.37597e-05 9.61684e-19)
(0.0604201 -1.37581e-05 -1.56604e-18)
(0.0604223 -1.37563e-05 2.62077e-18)
(0.0604244 -1.37544e-05 -2.22101e-18)
(0.0604265 -1.37523e-05 9.54454e-19)
(0.0604286 -1.37502e-05 6.21163e-19)
(0.0604306 -1.3748e-05 5.45573e-18)
(0.0604325 -1.37441e-05 2.01674e-19)
(0.0604344 -1.37502e-05 2.20352e-18)
(0.0604364 -1.37185e-05 1.04477e-18)
(0.060438 -1.38106e-05 5.6153e-18)
(0.0604401 -1.3567e-05 1.1009e-19)
(0.0604417 -1.41289e-05 2.25033e-18)
(0.0604433 -1.30891e-05 1.14756e-18)
(0.0604458 -1.46659e-05 5.66933e-18)
(0.0604457 -1.30453e-05 1.1546e-19)
(0.0604498 -1.29754e-05 2.23545e-18)
(0.0632099 -1.40925e-05 2.49942e-19)
(0.0632148 -1.42873e-05 2.45373e-19)
(0.0632194 -1.4522e-05 2.4749e-19)
(0.063225 -1.43389e-05 2.48821e-19)
(0.0632306 -1.40466e-05 2.55109e-19)
(0.0632359 -1.39346e-05 2.05007e-19)
(0.0632411 -1.39277e-05 4.32471e-19)
(0.0632463 -1.39239e-05 -3.38812e-19)
(0.0632515 -1.39134e-05 1.74714e-18)
(0.0632566 -1.39058e-05 -2.77575e-18)
(0.0632617 -1.39008e-05 5.00654e-18)
(0.0632667 -1.38963e-05 -5.9881e-18)
(0.0632717 -1.38919e-05 8.82467e-18)
(0.0632767 -1.38878e-05 3.4285e-18)
(0.0632816 -1.38841e-05 1.04129e-17)
(0.0632865 -1.38807e-05 -1.92284e-18)
(0.0632913 -1.38776e-05 1.07976e-17)
(0.0632961 -1.38747e-05 4.42053e-18)
(0.0633009 -1.3872e-05 1.08103e-17)
(0.0633056 -1.38694e-05 -1.82582e-18)
(0.0633103 -1.38669e-05 1.09556e-17)
(0.063315 -1.38646e-05 4.40015e-18)
(0.0633196 -1.38623e-05 1.07915e-17)
(0.0633241 -1.38601e-05 -1.75662e-18)
(0.0633286 -1.38579e-05 1.10461e-17)
(0.0633331 -1.38558e-05 4.40305e-18)
(0.0633376 -1.38537e-05 1.08103e-17)
(0.0633419 -1.38515e-05 -1.9167e-18)
(0.0633463 -1.38495e-05 1.10463e-17)
(0.0633506 -1.38475e-05 4.46223e-18)
(0.0633549 -1.38455e-05 1.08765e-17)
(0.0633591 -1.38435e-05 -1.88942e-18)
(0.0633633 -1.38414e-05 1.09054e-17)
(0.0633675 -1.38394e-05 4.53083e-18)
(0.0633716 -1.38374e-05 1.09082e-17)
(0.0633757 -1.38354e-05 -1.9366e-18)
(0.0633797 -1.38334e-05 1.12076e-17)
(0.0633837 -1.38315e-05 4.58279e-18)
(0.0633877 -1.38295e-05 1.08774e-17)
(0.0633916 -1.38275e-05 -1.86513e-18)
(0.0633954 -1.38256e-05 1.07412e-17)
(0.0633993 -1.38236e-05 4.42969e-18)
(0.063403 -1.38216e-05 1.08642e-17)
(0.0634068 -1.38199e-05 -1.94011e-18)
(0.0634105 -1.38175e-05 1.10496e-17)
(0.0634141 -1.3816e-05 4.57764e-18)
(0.0634178 -1.3814e-05 1.0861e-17)
(0.0634213 -1.38116e-05 -1.99317e-18)
(0.0634249 -1.38097e-05 1.09627e-17)
(0.0634284 -1.38079e-05 4.52142e-18)
(0.0634318 -1.3806e-05 1.08771e-17)
(0.0634352 -1.38041e-05 -1.95374e-18)
(0.0634386 -1.38021e-05 1.08956e-17)
(0.0634419 -1.38002e-05 4.56435e-18)
(0.0634452 -1.37982e-05 1.08886e-17)
(0.0634485 -1.37962e-05 -1.98511e-18)
(0.0634517 -1.37942e-05 1.10556e-17)
(0.0634548 -1.37923e-05 4.59664e-18)
(0.0634579 -1.37903e-05 1.09341e-17)
(0.063461 -1.37883e-05 -2.11846e-18)
(0.063464 -1.37863e-05 1.08993e-17)
(0.063467 -1.37842e-05 4.7463e-18)
(0.06347 -1.37822e-05 1.09534e-17)
(0.0634729 -1.37802e-05 -2.02797e-18)
(0.0634757 -1.37781e-05 1.10722e-17)
(0.0634785 -1.3776e-05 4.87243e-18)
(0.0634813 -1.3774e-05 1.0469e-17)
(0.063484 -1.37719e-05 -9.90192e-19)
(0.0634867 -1.37698e-05 8.24711e-18)
(0.0634894 -1.37676e-05 1.06744e-17)
(0.063492 -1.37655e-05 1.60102e-18)
(0.0634945 -1.37633e-05 1.01848e-17)
(0.063497 -1.37611e-05 -4.85285e-18)
(0.0634995 -1.37589e-05 -5.46691e-18)
(0.0635019 -1.37567e-05 -5.32145e-18)
(0.0635043 -1.37544e-05 -3.92024e-18)
(0.0635067 -1.37521e-05 -2.1995e-18)
(0.063509 -1.37498e-05 -9.40429e-19)
(0.0635112 -1.37475e-05 -2.4076e-19)
(0.0635134 -1.37449e-05 6.84898e-20)
(0.0635156 -1.37427e-05 1.82907e-19)
(0.0635177 -1.37402e-05 2.2232e-19)
(0.0635198 -1.37376e-05 2.33435e-19)
(0.0635218 -1.37351e-05 2.38152e-19)
(0.0635238 -1.37326e-05 2.39534e-19)
(0.0635257 -1.37301e-05 2.40084e-19)
(0.0635277 -1.37275e-05 2.42775e-19)
(0.0635295 -1.37249e-05 2.43027e-19)
(0.0635313 -1.37223e-05 2.43215e-19)
(0.0635331 -1.37196e-05 2.44195e-19)
(0.0635348 -1.37169e-05 2.4463e-19)
(0.0635365 -1.37142e-05 2.43116e-19)
(0.0635381 -1.37115e-05 2.44764e-19)
(0.0635397 -1.37087e-05 2.46582e-19)
(0.0635413 -1.3706e-05 2.42544e-19)
(0.0635428 -1.37031e-05 2.41738e-19)
(0.0635442 -1.37002e-05 2.43338e-19)
(0.0635456 -1.36974e-05 2.42974e-19)
(0.063547 -1.36945e-05 2.45597e-19)
(0.0635483 -1.36917e-05 2.45768e-19)
(0.0635496 -1.36887e-05 2.44995e-19)
(0.0635509 -1.36858e-05 2.48198e-19)
(0.063552 -1.36828e-05 2.4714e-19)
(0.0635532 -1.36799e-05 2.46781e-19)
(0.0635543 -1.36768e-05 2.45582e-19)
(0.0635553 -1.3674e-05 2.47695e-19)
(0.0635564 -1.36705e-05 2.46144e-19)
(0.0635573 -1.36679e-05 2.46688e-19)
(0.0635582 -1.36647e-05 2.45229e-19)
(0.0635591 -1.36613e-05 2.49825e-19)
(0.0635599 -1.36583e-05 2.47662e-19)
(0.0635607 -1.36553e-05 2.45759e-19)
(0.0635615 -1.36522e-05 2.45693e-19)
(0.0635622 -1.36491e-05 2.45113e-19)
(0.0635628 -1.36459e-05 2.48158e-19)
(0.0635634 -1.36428e-05 2.47689e-19)
(0.063564 -1.36396e-05 2.48811e-19)
(0.0635645 -1.36364e-05 2.48789e-19)
(0.0635649 -1.36332e-05 2.44414e-19)
(0.0635654 -1.36299e-05 2.45475e-19)
(0.0635657 -1.36267e-05 2.51765e-19)
(0.0635661 -1.36234e-05 2.48613e-19)
(0.0635664 -1.36201e-05 2.49737e-19)
(0.0635666 -1.36168e-05 2.46122e-19)
(0.0635668 -1.36135e-05 2.46031e-19)
(0.0635669 -1.36101e-05 2.48996e-19)
(0.063567 -1.36067e-05 2.46419e-19)
(0.0635671 -1.36034e-05 2.46638e-19)
(0.0635671 -1.35999e-05 2.48968e-19)
(0.0635671 -1.35965e-05 2.52017e-19)
(0.063567 -1.3593e-05 2.15544e-19)
(0.0635669 -1.35895e-05 3.75605e-19)
(0.0635667 -1.35859e-05 -2.24303e-19)
(0.0635665 -1.35823e-05 1.57311e-18)
(0.0635662 -1.35787e-05 -2.69014e-18)
(0.0635659 -1.35751e-05 5.22573e-18)
(0.0635656 -1.35714e-05 -6.41303e-18)
(0.0635652 -1.35679e-05 8.74254e-18)
(0.0635648 -1.3564e-05 4.10834e-18)
(0.0635643 -1.35623e-05 1.08633e-17)
(0.0635638 -1.3554e-05 -2.07034e-18)
(0.0635632 -1.35687e-05 1.05446e-17)
(0.0635627 -1.35207e-05 4.64071e-18)
(0.0635618 -1.3644e-05 1.11063e-17)
(0.0635614 -1.33666e-05 -2.37943e-18)
(0.0635605 -1.39552e-05 1.10471e-17)
(0.0635597 -1.29927e-05 4.97504e-18)
(0.0635596 -1.43243e-05 1.12685e-17)
(0.0635573 -1.32964e-05 -2.30693e-18)
(0.063558 -1.28001e-05 1.0749e-17)
(0.063559 -1.47039e-05 4.93519e-18)
(0.0641291 -1.4471e-05 8.0102e-19)
(0.0641331 -1.46026e-05 7.82795e-19)
(0.0641369 -1.4791e-05 7.87989e-19)
(0.0641417 -1.46696e-05 8.17094e-19)
(0.0641465 -1.44323e-05 7.48511e-19)
(0.0641509 -1.43255e-05 8.90101e-19)
(0.0641553 -1.43102e-05 6.81238e-19)
(0.0641597 -1.43024e-05 7.89511e-19)
(0.0641641 -1.42899e-05 1.33388e-18)
(0.0641684 -1.42803e-05 -7.18831e-19)
(0.0641727 -1.42734e-05 2.97863e-18)
(0.064177 -1.42671e-05 -7.48496e-19)
(0.0641812 -1.42611e-05 9.76494e-19)
(0.0641853 -1.42556e-05 5.01551e-19)
(0.0641895 -1.42503e-05 5.00473e-18)
(0.0641935 -1.42455e-05 1.13019e-18)
(0.0641976 -1.42409e-05 2.23534e-18)
(0.0642016 -1.42366e-05 1.07457e-18)
(0.0642055 -1.42324e-05 5.23693e-18)
(0.0642095 -1.42284e-05 1.19297e-18)
(0.0642133 -1.42246e-05 2.13858e-18)
(0.0642172 -1.42208e-05 1.04124e-18)
(0.064221 -1.42171e-05 5.23519e-18)
(0.0642247 -1.42135e-05 1.21986e-18)
(0.0642285 -1.42099e-05 2.19069e-18)
(0.0642321 -1.42064e-05 1.05038e-18)
(0.0642358 -1.42029e-05 5.23999e-18)
(0.0642394 -1.41994e-05 1.14303e-18)
(0.0642429 -1.4196e-05 2.17883e-18)
(0.0642465 -1.41925e-05 1.05863e-18)
(0.0642499 -1.41891e-05 5.261e-18)
(0.0642534 -1.41856e-05 1.16174e-18)
(0.0642568 -1.41822e-05 2.1279e-18)
(0.0642601 -1.41788e-05 1.10857e-18)
(0.0642634 -1.41753e-05 5.29231e-18)
(0.0642667 -1.41719e-05 1.14852e-18)
(0.06427 -1.41685e-05 2.18345e-18)
(0.0642731 -1.4165e-05 1.11506e-18)
(0.0642763 -1.41616e-05 5.28897e-18)
(0.0642794 -1.41581e-05 1.13902e-18)
(0.0642825 -1.41547e-05 2.04747e-18)
(0.0642855 -1.41513e-05 1.0725e-18)
(0.0642885 -1.41477e-05 5.29162e-18)
(0.0642914 -1.41445e-05 1.13617e-18)
(0.0642943 -1.41406e-05 2.14843e-18)
(0.0642972 -1.41375e-05 1.13883e-18)
(0.0643 -1.4134e-05 5.25753e-18)
(0.0643028 -1.41301e-05 1.10361e-18)
(0.0643055 -1.41266e-05 2.12849e-18)
(0.0643082 -1.41233e-05 1.08205e-18)
(0.0643109 -1.41198e-05 5.29491e-18)
(0.0643135 -1.41164e-05 1.12005e-18)
(0.0643161 -1.41129e-05 2.06202e-18)
(0.0643186 -1.41093e-05 1.13174e-18)
(0.0643211 -1.41058e-05 5.29101e-18)
(0.0643235 -1.41023e-05 1.11597e-18)
(0.0643259 -1.40988e-05 2.15153e-18)
(0.0643283 -1.40953e-05 1.12978e-18)
(0.0643306 -1.40918e-05 5.30875e-18)
(0.0643329 -1.40883e-05 1.04278e-18)
(0.0643351 -1.40847e-05 2.05343e-18)
(0.0643373 -1.40812e-05 1.22282e-18)
(0.0643394 -1.40777e-05 5.32534e-18)
(0.0643415 -1.40742e-05 1.10818e-18)
(0.0643436 -1.40707e-05 2.10697e-18)
(0.0643456 -1.40672e-05 1.29649e-18)
(0.0643476 -1.40638e-05 4.99347e-18)
(0.0643495 -1.40603e-05 1.82099e-18)
(0.0643514 -1.40568e-05 2.11705e-19)
(0.0643532 -1.40533e-05 4.54569e-18)
(0.064355 -1.40498e-05 1.03004e-18)
(0.0643568 -1.40463e-05 4.36611e-18)
(0.0643585 -1.40428e-05 1.68533e-18)
(0.0643602 -1.40394e-05 -1.07011e-18)
(0.0643618 -1.40359e-05 -2.37638e-18)
(0.0643634 -1.40324e-05 -2.03715e-18)
(0.0643649 -1.4029e-05 -9.89694e-19)
(0.0643664 -1.40255e-05 -1.38876e-19)
(0.0643679 -1.40221e-05 3.99174e-19)
(0.0643693 -1.40186e-05 6.4434e-19)
(0.0643707 -1.40153e-05 7.30615e-19)
(0.064372 -1.40118e-05 7.65348e-19)
(0.0643733 -1.40083e-05 7.72539e-19)
(0.0643745 -1.40049e-05 7.80622e-19)
(0.0643757 -1.40015e-05 7.79346e-19)
(0.0643768 -1.39981e-05 7.77493e-19)
(0.0643779 -1.39947e-05 7.85663e-19)
(0.064379 -1.39913e-05 7.84473e-19)
(0.06438 -1.39879e-05 7.85225e-19)
(0.064381 -1.39845e-05 7.8587e-19)
(0.0643819 -1.39811e-05 7.86838e-19)
(0.0643828 -1.39777e-05 7.81541e-19)
(0.0643836 -1.39743e-05 7.87862e-19)
(0.0643844 -1.39709e-05 7.94191e-19)
(0.0643852 -1.39676e-05 7.78324e-19)
(0.0643859 -1.39642e-05 7.7394e-19)
(0.0643865 -1.39608e-05 7.81073e-19)
(0.0643871 -1.39574e-05 7.79759e-19)
(0.0643877 -1.3954e-05 7.87771e-19)
(0.0643882 -1.39507e-05 7.8788e-19)
(0.0643887 -1.39473e-05 7.84256e-19)
(0.0643892 -1.39439e-05 7.98277e-19)
(0.0643896 -1.39406e-05 7.93463e-19)
(0.0643899 -1.39372e-05 7.92757e-19)
(0.0643902 -1.39338e-05 7.86291e-19)
(0.0643905 -1.39306e-05 7.94557e-19)
(0.0643907 -1.39269e-05 7.90219e-19)
(0.0643908 -1.39239e-05 7.91041e-19)
(0.064391 -1.39206e-05 7.85959e-19)
(0.064391 -1.39169e-05 8.01394e-19)
(0.0643911 -1.39136e-05 7.92744e-19)
(0.064391 -1.39104e-05 7.85557e-19)
(0.064391 -1.39071e-05 7.88831e-19)
(0.0643909 -1.39038e-05 7.84013e-19)
(0.0643907 -1.39004e-05 7.95118e-19)
(0.0643905 -1.38971e-05 7.93849e-19)
(0.0643903 -1.38938e-05 7.99016e-19)
(0.06439 -1.38905e-05 7.98322e-19)
(0.0643897 -1.38872e-05 7.81773e-19)
(0.0643893 -1.38839e-05 7.84328e-19)
(0.0643889 -1.38806e-05 8.0906e-19)
(0.0643884 -1.38773e-05 7.95839e-19)
(0.0643879 -1.3874e-05 8.02114e-19)
(0.0643873 -1.38708e-05 7.89412e-19)
(0.0643867 -1.38676e-05 7.88417e-19)
(0.0643861 -1.38643e-05 7.97739e-19)
(0.0643854 -1.3861e-05 7.86475e-19)
(0.0643846 -1.38578e-05 7.86996e-19)
(0.0643839 -1.38546e-05 8.08149e-19)
(0.064383 -1.38514e-05 7.61569e-19)
(0.0643822 -1.38482e-05 8.5369e-19)
(0.0643812 -1.3845e-05 6.60758e-19)
(0.0643803 -1.38418e-05 8.41451e-19)
(0.0643793 -1.38387e-05 1.18923e-18)
(0.0643782 -1.38356e-05 -6.37953e-19)
(0.0643771 -1.38326e-05 3.166e-18)
(0.064376 -1.38297e-05 -1.04677e-18)
(0.0643748 -1.38273e-05 8.19369e-19)
(0.0643735 -1.3824e-05 8.90256e-19)
(0.0643722 -1.38252e-05 5.39445e-18)
(0.064371 -1.38153e-05 1.01813e-18)
(0.0643695 -1.38394e-05 1.88916e-18)
(0.0643682 -1.37804e-05 1.2455e-18)
(0.0643666 -1.39298e-05 5.53196e-18)
(0.0643654 -1.36324e-05 9.01631e-19)
(0.0643636 -1.42367e-05 1.93101e-18)
(0.0643621 -1.33323e-05 1.35691e-18)
(0.0643609 -1.45534e-05 5.59568e-18)
(0.0643584 -1.36066e-05 9.24227e-19)
(0.0643576 -1.36263e-05 1.91173e-18)
(0.0643572 -1.41935e-05 1.34582e-18)
(0.0643547 -1.62035e-05 5.61431e-18)
(0.0643303 -1.40648e-05 2.90778e-18)
(0.0643341 -1.41552e-05 2.83771e-18)
(0.0643377 -1.42851e-05 2.85855e-18)
(0.0643424 -1.42044e-05 2.9767e-18)
(0.0643469 -1.40173e-05 2.68804e-18)
(0.0643512 -1.39167e-05 3.36997e-18)
(0.0643554 -1.38932e-05 1.96975e-18)
(0.0643596 -1.38821e-05 4.35516e-18)
(0.0643637 -1.38691e-05 1.39365e-18)
(0.0643679 -1.3859e-05 3.60683e-18)
(0.0643719 -1.38518e-05 2.84827e-18)
(0.064376 -1.38454e-05 3.84297e-18)
(0.06438 -1.38395e-05 -2.64561e-19)
(0.064384 -1.38341e-05 1.88091e-18)
(0.0643879 -1.38291e-05 1.49626e-18)
(0.0643918 -1.38244e-05 3.02235e-18)
(0.0643956 -1.38201e-05 -6.57863e-19)
(0.0643994 -1.3816e-05 1.64257e-18)
(0.0644032 -1.38121e-05 1.39701e-18)
(0.0644069 -1.38084e-05 2.96606e-18)
(0.0644106 -1.38048e-05 -7.57337e-19)
(0.0644142 -1.38014e-05 1.63554e-18)
(0.0644178 -1.37981e-05 1.40258e-18)
(0.0644214 -1.37948e-05 2.94443e-18)
(0.0644249 -1.37916e-05 -7.22727e-19)
(0.0644284 -1.37885e-05 1.58776e-18)
(0.0644318 -1.37853e-05 1.38914e-18)
(0.0644352 -1.37822e-05 2.91723e-18)
(0.0644386 -1.37792e-05 -7.42187e-19)
(0.0644419 -1.37761e-05 1.61547e-18)
(0.0644452 -1.37731e-05 1.37686e-18)
(0.0644484 -1.37701e-05 2.94409e-18)
(0.0644516 -1.37671e-05 -7.66483e-19)
(0.0644548 -1.37641e-05 1.6481e-18)
(0.0644579 -1.37611e-05 1.43144e-18)
(0.064461 -1.3758e-05 2.92421e-18)
(0.064464 -1.3755e-05 -7.94737e-19)
(0.064467 -1.3752e-05 1.64088e-18)
(0.06447 -1.3749e-05 1.43507e-18)
(0.0644729 -1.3746e-05 2.91879e-18)