/*--------------------------------*- C++ -*----------------------------------*\
| =========                 |                                                 |
| \\      /  F ield         | OpenFOAM: The Open Source CFD Toolbox           |
|  \\    /   O peration     | Version:  2512                                  |
|   \\  /    A nd           | Website:  www.openfoam.com                      |
|    \\/     M anipulation  |                                                 |
\*---------------------------------------------------------------------------*/
FoamFile
{
    version     2.0;
    format      ascii;
    arch        "LSB;label=32;scalar=64";
    class       volScalarField;
    location    "0.1";
    object      Ux;
}
// * * * * * * * * * * * * * * * * * * * * * * * * * * * * * * * * * * * * * //

dimensions      [0 1 -1 0 0 0 0];

internalField   nonuniform List<scalar> 
8333
(
0.0247686
0.0247854
0.0248028
0.02482
0.0248365
0.0248527
0.0248688
0.0248849
0.024901
0.024917
0.024933
0.0249489
0.0249648
0.0249807
0.0249965
0.0250123
0.0250281
0.0250438
0.0250594
0.0250751
0.0250907
0.0251062
0.0251217
0.0251372
0.0251526
0.025168
0.0251833
0.0251986
0.0252139
0.0252291
0.0252443
0.0252595
0.0252746
0.0252896
0.0253047
0.0253197
0.0253346
0.0253495
0.0253644
0.0253792
0.025394
0.0254087
0.0254234
0.025438
0.0254527
0.0254672
0.0254818
0.0254962
0.0255107
0.0255251
0.0255395
0.0255538
0.0255681
0.0255823
0.0255965
0.0256106
0.0256248
0.0256388
0.0256529
0.0256668
0.0256808
0.0256947
0.0257085
0.0257223
0.0257361
0.0257498
0.0257635
0.0257772
0.0257908
0.0258043
0.0258178
0.0258313
0.0258447
0.0258581
0.0258714
0.0258847
0.025898
0.0259112
0.0259244
0.0259375
0.0259506
0.0259636
0.0259766
0.0259895
0.0260024
0.0260153
0.0260281
0.0260409
0.0260536
0.0260663
0.0260789
0.0260915
0.026104
0.0261165
0.026129
0.0261414
0.0261538
0.0261661
0.0261784
0.0261906
0.0262028
0.0262149
0.026227
0.0262391
0.0262511
0.0262631
0.026275
0.0262869
0.0262987
0.0263105
0.0263222
0.0263339
0.0263455
0.0263571
0.0263687
0.0263802
0.0263917
0.0264031
0.0264144
0.0264258
0.026437
0.0264483
0.0264595
0.0264706
0.0264817
0.0264927
0.0265037
0.0265147
0.0265256
0.0265364
0.0265472
0.026558
0.0265687
0.0265794
0.02659
0.0266006
0.0266111
0.0266216
0.026632
0.0266423
0.0266527
0.0266629
0.0266731
0.0266833
0.0266933
0.0267034
0.0267132
0.0267228
0.0267325
0.0491955
0.0492081
0.0492215
0.0492353
0.0492488
0.0492617
0.0492745
0.0492873
0.0493001
0.0493129
0.0493256
0.0493382
0.0493508
0.0493634
0.0493759
0.0493884
0.0494008
0.0494133
0.0494256
0.0494379
0.0494502
0.0494625
0.0494747
0.0494868
0.049499
0.0495111
0.0495231
0.0495351
0.0495471
0.049559
0.0495709
0.0495827
0.0495945
0.0496063
0.049618
0.0496297
0.0496413
0.0496529
0.0496645
0.049676
0.0496875
0.0496989
0.0497103
0.0497216
0.0497329
0.0497442
0.0497554
0.0497666
0.0497778
0.0497888
0.0497999
0.0498109
0.0498219
0.0498328
0.0498437
0.0498546
0.0498654
0.0498761
0.0498869
0.0498975
0.0499082
0.0499188
0.0499293
0.0499398
0.0499503
0.0499607
0.0499711
0.0499814
0.0499917
0.050002
0.0500122
0.0500223
0.0500324
0.0500425
0.0500526
0.0500625
0.0500725
0.0500824
0.0500923
0.0501021
0.0501118
0.0501216
0.0501313
0.0501409
0.0501505
0.05016
0.0501695
0.050179
0.0501884
0.0501978
0.0502071
0.0502164
0.0502257
0.0502349
0.050244
0.0502531
0.0502622
0.0502712
0.0502802
0.0502891
0.050298
0.0503068
0.0503156
0.0503244
0.0503331
0.0503417
0.0503503
0.0503589
0.0503674
0.0503759
0.0503843
0.0503927
0.0504011
0.0504094
0.0504176
0.0504258
0.050434
0.0504421
0.0504502
0.0504582
0.0504662
0.0504741
0.050482
0.0504898
0.0504976
0.0505054
0.0505131
0.0505207
0.0505283
0.0505359
0.0505434
0.0505509
0.0505583
0.0505657
0.050573
0.0505803
0.0505875
0.0505947
0.0506018
0.0506089
0.050616
0.050623
0.05063
0.0506368
0.0506438
0.0506506
0.0506574
0.0506642
0.0506702
0.0597305
0.0597378
0.0597452
0.0597535
0.0597617
0.0597695
0.0597772
0.0597849
0.0597926
0.0598002
0.0598078
0.0598153
0.0598228
0.0598302
0.0598376
0.059845
0.0598523
0.0598596
0.0598669
0.0598741
0.0598812
0.0598884
0.0598954
0.0599025
0.0599095
0.0599164
0.0599234
0.0599302
0.0599371
0.0599439
0.0599506
0.0599574
0.059964
0.0599707
0.0599773
0.0599838
0.0599903
0.0599968
0.0600033
0.0600096
0.060016
0.0600223
0.0600286
0.0600348
0.060041
0.0600471
0.0600532
0.0600593
0.0600653
0.0600713
0.0600772
0.0600831
0.060089
0.0600948
0.0601005
0.0601063
0.0601119
0.0601176
0.0601232
0.0601287
0.0601342
0.0601397
0.0601451
0.0601505
0.0601559
0.0601612
0.0601664
0.0601716
0.0601768
0.0601819
0.060187
0.0601921
0.060197
0.060202
0.0602069
0.0602118
0.0602166
0.0602214
0.0602261
0.0602308
0.0602355
0.0602401
0.0602446
0.0602491
0.0602536
0.060258
0.0602624
0.0602668
0.0602711
0.0602753
0.0602795
0.0602837
0.0602878
0.0602919
0.0602959
0.0602999
0.0603038
0.0603077
0.0603116
0.0603154
0.0603191
0.0603229
0.0603265
0.0603302
0.0603337
0.0603373
0.0603408
0.0603442
0.0603476
0.060351
0.0603543
0.0603576
0.0603608
0.060364
0.0603671
0.0603702
0.0603732
0.0603762
0.0603792
0.0603821
0.0603849
0.0603877
0.0603905
0.0603932
0.0603959
0.0603985
0.0604011
0.0604036
0.0604061
0.0604086
0.060411
0.0604133
0.0604157
0.0604179
0.0604201
0.0604223
0.0604244
0.0604265
0.0604286
0.0604306
0.0604325
0.0604344
0.0604364
0.060438
0.0604401
0.0604417
0.0604433
0.0604458
0.0604457
0.0604498
0.0632099
0.0632148
0.0632194
0.063225
0.0632306
0.0632359
0.0632411
0.0632463
0.0632515
0.0632566
0.0632617
0.0632667
0.0632717
0.0632767
0.0632816
0.0632865
0.0632913
0.0632961
0.0633009
0.0633056
0.0633103
0.063315
0.0633196
0.0633241
0.0633286
0.0633331
0.0633376
0.0633419
0.0633463
0.0633506
0.0633549
0.0633591
0.0633633
0.0633675
0.0633716
0.0633757
0.0633797
0.0633837
0.0633877
0.0633916
0.0633954
0.0633993
0.063403
0.0634068
0.0634105
0.0634141
0.0634178
0.0634213
0.0634249
0.0634284
0.0634318
0.0634352
0.0634386
0.0634419
0.0634452
0.0634485
0.0634517
0.0634548
0.0634579
0.063461
0.063464
0.063467
0.06347
0.0634729
0.0634757
0.0634785
0.0634813
0.063484
0.0634867
0.0634894
0.063492
0.0634945
0.063497
0.0634995
0.0635019
0.0635043
0.0635067
0.063509
0.0635112
0.0635134
0.0635156
0.0635177
0.0635198
0.0635218
0.0635238
0.0635257
0.0635277
0.0635295
0.0635313
0.0635331
0.0635348
0.0635365
0.0635381
0.0635397
0.0635413
0.0635428
0.0635442
0.0635456
0.063547
0.0635483
0.0635496
0.0635509
0.063552
0.0635532
0.0635543
0.0635553
0.0635564
0.0635573
0.0635582
0.0635591
0.0635599
0.0635607
0.0635615
0.0635622
0.0635628
0.0635634
0.063564
0.0635645
0.0635649
0.0635654
0.0635657
0.0635661
0.0635664
0.0635666
0.0635668
0.0635669
0.063567
0.0635671
0.0635671
0.0635671
0.063567
0.0635669
0.0635667
0.0635665
0.0635662
0.0635659
0.0635656
0.0635652
0.0635648
0.0635643
0.0635638
0.0635632
0.0635627
0.0635618
0.0635614
0.0635605
0.0635597
0.0635596
0.0635573
0.063558
0.063559
0.0641291
0.0641331
0.0641369
0.0641417
0.0641465
0.0641509
0.0641553
0.0641597
0.0641641
0.0641684
0.0641727
0.064177
0.0641812
0.0641853
0.0641895
0.0641935
0.0641976
0.0642016
0.0642055
0.0642095
0.0642133
0.0642172
0.064221
0.0642247
0.0642285
0.0642321
0.0642358
0.0642394
0.0642429
0.0642465
0.0642499
0.0642534
0.0642568
0.0642601
0.0642634
0.0642667
0.06427
0.0642731
0.0642763
0.0642794
0.0642825
0.0642855
0.0642885
0.0642914
0.0642943
0.0642972
0.0643
0.0643028
0.0643055
0.0643082
0.0643109
0.0643135
0.0643161
0.0643186
0.0643211
0.0643235
0.0643259
0.0643283
0.0643306
0.0643329
0.0643351
0.0643373
0.0643394
0.0643415
0.0643436
0.0643456
0.0643476
0.0643495
0.0643514
0.0643532
0.064355
0.0643568
0.0643585
0.0643602
0.0643618
0.0643634
0.0643649
0.0643664
0.0643679
0.0643693
0.0643707
0.064372
0.0643733
0.0643745
0.0643757
0.0643768
0.0643779
0.064379
0.06438
0.064381
0.0643819
0.0643828
0.0643836
0.0643844
0.0643852
0.0643859
0.0643865
0.0643871
0.0643877
0.0643882
0.0643887
0.0643892
0.0643896
0.0643899
0.0643902
0.0643905
0.0643907
0.0643908
0.064391
0.064391
0.0643911
0.064391
0.064391
0.0643909
0.0643907
0.0643905
0.0643903
0.06439
0.0643897
0.0643893
0.0643889
0.0643884
0.0643879
0.0643873
0.0643867
0.0643861
0.0643854
0.0643846
0.0643839
0.064383
0.0643822
0.0643812
0.0643803
0.0643793
0.0643782
0.0643771
0.064376
0.0643748
0.0643735
0.0643722
0.064371
0.0643695
0.0643682
0.0643666
0.0643654
0.0643636
0.0643621
0.0643609
0.0643584
0.0643576
0.0643572
0.0643547
0.0643303
0.0643341
0.0643377
0.0643424
0.0643469
0.0643512
0.0643554
0.0643596
0.0643637
0.0643679
0.0643719
0.064376
0.06438
0.064384
0.0643879
0.0643918
0.0643956
0.0643994
0.0644032
0.0644069
0.0644106
0.0644142
0.0644178
0.0644214
0.0644249
0.0644284
0.0644318
0.0644352
0.0644386
0.0644419
0.0644452
0.0644484
0.0644516
0.0644548
0.0644579
0.064461
0.064464
0.064467
0.06447
0.0644729
0.0644758
0.0644786
0.0644814
0.0644841
0.0644868
0.0644895
0.0644921
0.0644947
0.0644972
0.0644997
0.0645022
0.0645046
0.064507
0.0645093
0.0645116
0.0645138
0.064516
0.0645182
0.0645203
0.0645224
0.0645244
0.0645264
0.0645284
0.0645303
0.0645321
0.0645339
0.0645357
0.0645375
0.0645391
0.0645408
0.0645424
0.064544
0.0645455
0.0645469
0.0645484
0.0645498
0.0645511
0.0645524
0.0645537
0.0645549
0.064556
0.0645572
0.0645583
0.0645593
0.0645603
0.0645612
0.0645621
0.064563
0.0645638
0.0645646
0.0645653
0.064566
0.0645666
0.0645672
0.0645678
0.0645683
0.0645688
0.0645692
0.0645695
0.0645699
0.0645702
0.0645704
0.0645706
0.0645707
0.0645708
0.0645709
0.0645709
0.0645709
0.0645708
0.0645707
0.0645705
0.0645703
0.0645701
0.0645697
0.0645694
0.064569
0.0645686
0.0645681
0.0645676
0.064567
0.0645664
0.0645657
0.064565
0.0645642
0.0645634
0.0645626
0.0645617
0.0645608
0.0645598
0.0645587
0.0645577
0.0645566
0.0645554
0.0645542
0.0645529
0.0645516
0.0645503
0.0645489
0.0645475
0.064546
0.0645445
0.0645429
0.0645414
0.0645396
0.0645381
0.0645362
0.0645344
0.064533
0.0645304
0.0645293
0.0645281
0.0645256
0.0643678
0.0643716
0.0643752
0.0643798
0.0643843
0.0643885
0.0643926
0.0643968
0.0644009
0.064405
0.064409
0.064413
0.064417
0.0644209
0.0644248
0.0644287
0.0644325
0.0644362
0.0644399
0.0644436
0.0644473
0.0644509
0.0644544
0.064458
0.0644614
0.0644649
0.0644683
0.0644716
0.064475
0.0644783
0.0644815
0.0644847
0.0644878
0.064491
0.064494
0.0644971
0.0645001
0.064503
0.0645059
0.0645088
0.0645116
0.0645144
0.0645172
0.0645199
0.0645226
0.0645252
0.0645278
0.0645303
0.0645328
0.0645353
0.0645377
0.06454
0.0645424
0.0645447
0.0645469
0.0645491
0.0645513
0.0645534
0.0645555
0.0645575
0.0645595
0.0645615
0.0645634
0.0645652
0.0645671
0.0645688
0.0645706
0.0645723
0.0645739
0.0645755
0.0645771
0.0645786
0.0645801
0.0645815
0.0645829
0.0645842
0.0645856
0.0645868
0.064588
0.0645892
0.0645903
0.0645914
0.0645925
0.0645935
0.0645944
0.0645953
0.0645962
0.064597
0.0645978
0.0645985
0.0645992
0.0645998
0.0646004
0.064601
0.0646015
0.064602
0.0646024
0.0646028
0.0646031
0.0646034
0.0646036
0.0646038
0.064604
0.0646041
0.0646042
0.0646042
0.0646042
0.0646041
0.064604
0.0646038
0.0646036
0.0646034
0.0646031
0.0646027
0.0646023
0.0646019
0.0646014
0.0646009
0.0646003
0.0645997
0.0645991
0.0645983
0.0645976
0.0645968
0.064596
0.0645951
0.0645941
0.0645932
0.0645921
0.0645911
0.06459
0.0645888
0.0645876
0.0645863
0.0645851
0.0645837
0.0645823
0.0645809
0.0645794
0.0645779
0.0645764
0.0645747
0.0645732
0.0645714
0.0645698
0.0645679
0.064566
0.0645645
0.0645621
0.0645607
0.0645593
0.0645567
0.0645541
0.0643738
0.0643776
0.0643812
0.0643858
0.0643904
0.0643946
0.0643987
0.0644028
0.064407
0.064411
0.0644151
0.0644191
0.064423
0.0644269
0.0644308
0.0644346
0.0644384
0.0644422
0.0644459
0.0644496
0.0644532
0.0644568
0.0644604
0.0644639
0.0644674
0.0644708
0.0644742
0.0644775
0.0644809
0.0644841
0.0644874
0.0644906
0.0644937
0.0644968
0.0644999
0.0645029
0.0645059
0.0645088
0.0645118
0.0645146
0.0645174
0.0645202
0.064523
0.0645257
0.0645283
0.0645309
0.0645335
0.0645361
0.0645385
0.064541
0.0645434
0.0645458
0.0645481
0.0645504
0.0645526
0.0645548
0.064557
0.0645591
0.0645612
0.0645632
0.0645652
0.0645671
0.064569
0.0645709
0.0645727
0.0645745
0.0645762
0.0645779
0.0645795
0.0645811
0.0645827
0.0645842
0.0645857
0.0645871
0.0645885
0.0645898
0.0645911
0.0645924
0.0645936
0.0645947
0.0645959
0.0645969
0.064598
0.064599
0.0645999
0.0646008
0.0646017
0.0646025
0.0646032
0.064604
0.0646047
0.0646053
0.0646059
0.0646064
0.0646069
0.0646074
0.0646078
0.0646082
0.0646085
0.0646088
0.064609
0.0646092
0.0646094
0.0646095
0.0646095
0.0646095
0.0646095
0.0646094
0.0646093
0.0646091
0.0646089
0.0646087
0.0646084
0.064608
0.0646076
0.0646072
0.0646067
0.0646062
0.0646056
0.064605
0.0646043
0.0646036
0.0646028
0.064602
0.0646012
0.0646003
0.0645993
0.0645984
0.0645973
0.0645963
0.0645951
0.064594
0.0645928
0.0645915
0.0645902
0.0645889
0.0645875
0.064586
0.0645845
0.064583
0.0645815
0.0645798
0.0645782
0.0645764
0.0645748
0.064573
0.0645711
0.0645695
0.0645672
0.0645656
0.0645641
0.0645615
0.0645589
0.0645564
0.0643747
0.0643785
0.0643821
0.0643867
0.0643913
0.0643954
0.0643995
0.0644037
0.0644078
0.0644119
0.0644159
0.0644199
0.0644239
0.0644278
0.0644317
0.0644355
0.0644393
0.064443
0.0644468
0.0644504
0.0644541
0.0644577
0.0644612
0.0644647
0.0644682
0.0644716
0.064475
0.0644784
0.0644817
0.064485
0.0644882
0.0644914
0.0644945
0.0644977
0.0645007
0.0645037
0.0645067
0.0645097
0.0645126
0.0645155
0.0645183
0.0645211
0.0645238
0.0645265
0.0645292
0.0645318
0.0645343
0.0645369
0.0645394
0.0645418
0.0645442
0.0645466
0.0645489
0.0645512
0.0645534
0.0645556
0.0645578
0.0645599
0.064562
0.064564
0.064566
0.0645679
0.0645698
0.0645717
0.0645735
0.0645753
0.064577
0.0645787
0.0645803
0.0645819
0.0645835
0.064585
0.0645865
0.0645879
0.0645893
0.0645906
0.0645919
0.0645931
0.0645944
0.0645955
0.0645966
0.0645977
0.0645988
0.0645997
0.0646007
0.0646016
0.0646024
0.0646033
0.064604
0.0646048
0.0646054
0.0646061
0.0646067
0.0646072
0.0646077
0.0646082
0.0646086
0.064609
0.0646093
0.0646096
0.0646098
0.06461
0.0646101
0.0646102
0.0646103
0.0646103
0.0646103
0.0646102
0.0646101
0.0646099
0.0646097
0.0646094
0.0646091
0.0646088
0.0646084
0.0646079
0.0646074
0.0646069
0.0646063
0.0646057
0.064605
0.0646043
0.0646036
0.0646028
0.0646019
0.064601
0.0646001
0.0645991
0.0645981
0.064597
0.0645959
0.0645947
0.0645935
0.0645922
0.0645909
0.0645896
0.0645882
0.0645868
0.0645853
0.0645837
0.0645822
0.0645805
0.0645789
0.0645772
0.0645755
0.0645737
0.0645718
0.0645701
0.0645679
0.0645662
0.0645645
0.0645623
0.0645595
0.0645571
0.0643748
0.0643786
0.0643822
0.0643869
0.0643914
0.0643956
0.0643997
0.0644038
0.064408
0.064412
0.0644161
0.06442
0.064424
0.0644279
0.0644318
0.0644356
0.0644394
0.0644432
0.0644469
0.0644505
0.0644542
0.0644578
0.0644613
0.0644648
0.0644683
0.0644717
0.0644751
0.0644785
0.0644818
0.0644851
0.0644883
0.0644915
0.0644947
0.0644978
0.0645008
0.0645039
0.0645068
0.0645098
0.0645127
0.0645156
0.0645184
0.0645212
0.0645239
0.0645266
0.0645293
0.0645319
0.0645345
0.064537
0.0645395
0.0645419
0.0645443
0.0645467
0.064549
0.0645513
0.0645535
0.0645557
0.0645579
0.06456
0.0645621
0.0645641
0.0645661
0.064568
0.0645699
0.0645718
0.0645736
0.0645754
0.0645771
0.0645788
0.0645804
0.064582
0.0645836
0.0645851
0.0645866
0.064588
0.0645894
0.0645907
0.064592
0.0645933
0.0645945
0.0645956
0.0645967
0.0645978
0.0645989
0.0645998
0.0646008
0.0646017
0.0646026
0.0646034
0.0646041
0.0646049
0.0646055
0.0646062
0.0646068
0.0646073
0.0646078
0.0646083
0.0646087
0.0646091
0.0646094
0.0646097
0.0646099
0.0646101
0.0646102
0.0646103
0.0646104
0.0646104
0.0646104
0.0646103
0.0646102
0.06461
0.0646098
0.0646095
0.0646092
0.0646089
0.0646085
0.064608
0.0646075
0.064607
0.0646064
0.0646058
0.0646051
0.0646044
0.0646037
0.0646029
0.064602
0.0646011
0.0646002
0.0645992
0.0645982
0.0645971
0.064596
0.0645948
0.0645936
0.0645923
0.064591
0.0645897
0.0645883
0.0645868
0.0645854
0.0645838
0.0645823
0.0645806
0.064579
0.0645773
0.0645756
0.0645738
0.0645719
0.0645702
0.064568
0.0645662
0.0645645
0.0645622
0.0645596
0.064557
0.0645547
0.0643748
0.0643786
0.0643822
0.0643869
0.0643915
0.0643956
0.0643997
0.0644039
0.064408
0.064412
0.0644161
0.0644201
0.064424
0.0644279
0.0644318
0.0644356
0.0644394
0.0644432
0.0644469
0.0644506
0.0644542
0.0644578
0.0644613
0.0644649
0.0644683
0.0644718
0.0644752
0.0644785
0.0644818
0.0644851
0.0644883
0.0644915
0.0644947
0.0644978
0.0645008
0.0645039
0.0645069
0.0645098
0.0645127
0.0645156
0.0645184
0.0645212
0.0645239
0.0645266
0.0645293
0.0645319
0.0645345
0.064537
0.0645395
0.0645419
0.0645443
0.0645467
0.064549
0.0645513
0.0645536
0.0645558
0.0645579
0.06456
0.0645621
0.0645641
0.0645661
0.064568
0.0645699
0.0645718
0.0645736
0.0645754
0.0645771
0.0645788
0.0645804
0.064582
0.0645836
0.0645851
0.0645866
0.064588
0.0645894
0.0645907
0.064592
0.0645933
0.0645945
0.0645956
0.0645968
0.0645978
0.0645989
0.0645999
0.0646008
0.0646017
0.0646026
0.0646034
0.0646041
0.0646049
0.0646056
0.0646062
0.0646068
0.0646073
0.0646078
0.0646083
0.0646087
0.0646091
0.0646094
0.0646097
0.0646099
0.0646101
0.0646103
0.0646104
0.0646104
0.0646104
0.0646104
0.0646103
0.0646102
0.06461
0.0646098
0.0646095
0.0646092
0.0646089
0.0646085
0.064608
0.0646076
0.064607
0.0646064
0.0646058
0.0646052
0.0646044
0.0646037
0.0646029
0.064602
0.0646011
0.0646002
0.0645992
0.0645982
0.0645971
0.064596
0.0645948
0.0645936
0.0645923
0.064591
0.0645897
0.0645883
0.0645868
0.0645854
0.0645838
0.0645823
0.0645806
0.064579
0.0645773
0.0645755
0.0645737
0.0645718
0.0645701
0.064568
0.0645662
0.0645643
0.0645621
0.0645596
0.064557
0.0645546
0.064552
0.0643748
0.0643786
0.0643822
0.0643869
0.0643915
0.0643956
0.0643997
0.0644039
0.064408
0.0644121
0.0644161
0.0644201
0.064424
0.0644279
0.0644318
0.0644356
0.0644394
0.0644432
0.0644469
0.0644506
0.0644542
0.0644578
0.0644614
0.0644649
0.0644683
0.0644718
0.0644752
0.0644785
0.0644818
0.0644851
0.0644883
0.0644915
0.0644947
0.0644978
0.0645009
0.0645039
0.0645069
0.0645098
0.0645127
0.0645156
0.0645184
0.0645212
0.0645239
0.0645266
0.0645293
0.0645319
0.0645345
0.064537
0.0645395
0.0645419
0.0645444
0.0645467
0.064549
0.0645513
0.0645536
0.0645558
0.0645579
0.06456
0.0645621
0.0645641
0.0645661
0.064568
0.0645699
0.0645718
0.0645736
0.0645754
0.0645771
0.0645788
0.0645804
0.064582
0.0645836
0.0645851
0.0645866
0.064588
0.0645894
0.0645907
0.064592
0.0645933
0.0645945
0.0645956
0.0645968
0.0645978
0.0645989
0.0645999
0.0646008
0.0646017
0.0646026
0.0646034
0.0646042
0.0646049
0.0646056
0.0646062
0.0646068
0.0646073
0.0646078
0.0646083
0.0646087
0.0646091
0.0646094
0.0646097
0.0646099
0.0646101
0.0646103
0.0646104
0.0646104
0.0646104
0.0646104
0.0646103
0.0646102
0.06461
0.0646098
0.0646095
0.0646092
0.0646089
0.0646085
0.064608
0.0646076
0.064607
0.0646065
0.0646058
0.0646052
0.0646044
0.0646037
0.0646029
0.064602
0.0646011
0.0646002
0.0645992
0.0645982
0.0645971
0.064596
0.0645948
0.0645936
0.0645923
0.064591
0.0645897
0.0645883
0.0645868
0.0645854
0.0645838
0.0645823
0.0645806
0.064579
0.0645773
0.0645755
0.0645737
0.0645718
0.0645701
0.064568
0.0645661
0.0645642
0.064562
0.0645596
0.064557
0.0645546
0.064552
0.0645494
0.0643748
0.0643786
0.0643822
0.0643869
0.0643915
0.0643957
0.0643997
0.0644039
0.064408
0.0644121
0.0644161
0.0644201
0.064424
0.0644279
0.0644318
0.0644357
0.0644394
0.0644432
0.0644469
0.0644506
0.0644542
0.0644578
0.0644614
0.0644649
0.0644683
0.0644718
0.0644752
0.0644785
0.0644818
0.0644851
0.0644883
0.0644915
0.0644947
0.0644978
0.0645009
0.0645039
0.0645069
0.0645098
0.0645127
0.0645156
0.0645184
0.0645212
0.0645239
0.0645266
0.0645293
0.0645319
0.0645345
0.064537
0.0645395
0.064542
0.0645444
0.0645467
0.064549
0.0645513
0.0645536
0.0645558
0.0645579
0.06456
0.0645621
0.0645641
0.0645661
0.0645681
0.06457
0.0645718
0.0645736
0.0645754
0.0645771
0.0645788
0.0645804
0.064582
0.0645836
0.0645851
0.0645866
0.064588
0.0645894
0.0645907
0.064592
0.0645933
0.0645945
0.0645957
0.0645968
0.0645978
0.0645989
0.0645999
0.0646008
0.0646017
0.0646026
0.0646034
0.0646042
0.0646049
0.0646056
0.0646062
0.0646068
0.0646073
0.0646078
0.0646083
0.0646087
0.0646091
0.0646094
0.0646097
0.0646099
0.0646101
0.0646103
0.0646104
0.0646104
0.0646104
0.0646104
0.0646103
0.0646102
0.06461
0.0646098
0.0646095
0.0646092
0.0646089
0.0646085
0.0646081
0.0646076
0.064607
0.0646065
0.0646058
0.0646052
0.0646045
0.0646037
0.0646029
0.064602
0.0646011
0.0646002
0.0645992
0.0645982
0.0645971
0.064596
0.0645948
0.0645936
0.0645923
0.064591
0.0645897
0.0645883
0.0645868
0.0645854
0.0645838
0.0645823
0.0645806
0.064579
0.0645773
0.0645755
0.0645737
0.0645718
0.06457
0.064568
0.0645661
0.0645641
0.0645619
0.0645596
0.0645569
0.0645547
0.0645519
0.0645494
0.0643748
0.0643786
0.0643822
0.0643869
0.0643916
0.0643957
0.0643998
0.0644039
0.064408
0.0644121
0.0644161
0.0644201
0.0644241
0.064428
0.0644318
0.0644357
0.0644395
0.0644432
0.0644469
0.0644506
0.0644542
0.0644578
0.0644614
0.0644649
0.0644684
0.0644718
0.0644752
0.0644785
0.0644818
0.0644851
0.0644883
0.0644915
0.0644947
0.0644978
0.0645009
0.0645039
0.0645069
0.0645098
0.0645127
0.0645156
0.0645184
0.0645212
0.0645239
0.0645266
0.0645293
0.0645319
0.0645345
0.064537
0.0645395
0.064542
0.0645444
0.0645467
0.0645491
0.0645513
0.0645536
0.0645558
0.0645579
0.06456
0.0645621
0.0645641
0.0645661
0.0645681
0.06457
0.0645718
0.0645736
0.0645754
0.0645771
0.0645788
0.0645805
0.0645821
0.0645836
0.0645851
0.0645866
0.064588
0.0645894
0.0645907
0.064592
0.0645933
0.0645945
0.0645957
0.0645968
0.0645979
0.0645989
0.0645999
0.0646008
0.0646017
0.0646026
0.0646034
0.0646042
0.0646049
0.0646056
0.0646062
0.0646068
0.0646073
0.0646078
0.0646083
0.0646087
0.0646091
0.0646094
0.0646097
0.0646099
0.0646101
0.0646103
0.0646104
0.0646104
0.0646104
0.0646104
0.0646103
0.0646102
0.06461
0.0646098
0.0646095
0.0646092
0.0646089
0.0646085
0.0646081
0.0646076
0.064607
0.0646065
0.0646058
0.0646052
0.0646045
0.0646037
0.0646029
0.064602
0.0646011
0.0646002
0.0645992
0.0645982
0.0645971
0.064596
0.0645948
0.0645936
0.0645923
0.064591
0.0645897
0.0645883
0.0645868
0.0645854
0.0645838
0.0645822
0.0645806
0.064579
0.0645772
0.0645755
0.0645737
0.0645718
0.06457
0.064568
0.064566
0.064564
0.0645618
0.0645595
0.0645569
0.0645547
0.0645521
0.0645493
0.0645471
0.0643748
0.0643786
0.0643822
0.064387
0.0643916
0.0643957
0.0643998
0.0644039
0.064408
0.0644121
0.0644161
0.0644201
0.0644241
0.064428
0.0644318
0.0644357
0.0644395
0.0644432
0.0644469
0.0644506
0.0644542
0.0644578
0.0644614
0.0644649
0.0644684
0.0644718
0.0644752
0.0644785
0.0644818
0.0644851
0.0644884
0.0644915
0.0644947
0.0644978
0.0645009
0.0645039
0.0645069
0.0645098
0.0645127
0.0645156
0.0645184
0.0645212
0.0645239
0.0645266
0.0645293
0.0645319
0.0645345
0.064537
0.0645395
0.064542
0.0645444
0.0645467
0.0645491
0.0645513
0.0645536
0.0645558
0.0645579
0.06456
0.0645621
0.0645641
0.0645661
0.0645681
0.06457
0.0645718
0.0645736
0.0645754
0.0645771
0.0645788
0.0645805
0.0645821
0.0645836
0.0645851
0.0645866
0.064588
0.0645894
0.0645907
0.064592
0.0645933
0.0645945
0.0645957
0.0645968
0.0645979
0.0645989
0.0645999
0.0646008
0.0646017
0.0646026
0.0646034
0.0646042
0.0646049
0.0646056
0.0646062
0.0646068
0.0646073
0.0646079
0.0646083
0.0646087
0.0646091
0.0646094
0.0646097
0.0646099
0.0646101
0.0646103
0.0646104
0.0646104
0.0646104
0.0646104
0.0646103
0.0646102
0.06461
0.0646098
0.0646096
0.0646092
0.0646089
0.0646085
0.0646081
0.0646076
0.064607
0.0646065
0.0646058
0.0646052
0.0646045
0.0646037
0.0646029
0.064602
0.0646011
0.0646002
0.0645992
0.0645982
0.0645971
0.064596
0.0645948
0.0645936
0.0645923
0.064591
0.0645897
0.0645883
0.0645868
0.0645854
0.0645838
0.0645822
0.0645806
0.064579
0.0645772
0.0645755
0.0645737
0.0645718
0.0645699
0.064568
0.064566
0.064564
0.0645617
0.0645595
0.0645569
0.0645546
0.0645521
0.0645494
0.064547
0.0645444
0.0643748
0.0643786
0.0643822
0.064387
0.0643916
0.0643957
0.0643998
0.0644039
0.0644081
0.0644121
0.0644161
0.0644201
0.0644241
0.064428
0.0644318
0.0644357
0.0644395
0.0644432
0.0644469
0.0644506
0.0644542
0.0644578
0.0644614
0.0644649
0.0644684
0.0644718
0.0644752
0.0644785
0.0644819
0.0644851
0.0644884
0.0644915
0.0644947
0.0644978
0.0645009
0.0645039
0.0645069
0.0645098
0.0645127
0.0645156
0.0645184
0.0645212
0.0645239
0.0645266
0.0645293
0.0645319
0.0645345
0.064537
0.0645395
0.064542
0.0645444
0.0645467
0.0645491
0.0645513
0.0645536
0.0645558
0.0645579
0.06456
0.0645621
0.0645641
0.0645661
0.0645681
0.06457
0.0645718
0.0645736
0.0645754
0.0645771
0.0645788
0.0645805
0.0645821
0.0645836
0.0645851
0.0645866
0.064588
0.0645894
0.0645907
0.064592
0.0645933
0.0645945
0.0645957
0.0645968
0.0645979
0.0645989
0.0645999
0.0646008
0.0646017
0.0646026
0.0646034
0.0646042
0.0646049
0.0646056
0.0646062
0.0646068
0.0646074
0.0646079
0.0646083
0.0646087
0.0646091
0.0646094
0.0646097
0.0646099
0.0646101
0.0646103
0.0646104
0.0646104
0.0646104
0.0646104
0.0646103
0.0646102
0.06461
0.0646098
0.0646096
0.0646093
0.0646089
0.0646085
0.0646081
0.0646076
0.064607
0.0646065
0.0646058
0.0646052
0.0646045
0.0646037
0.0646029
0.064602
0.0646011
0.0646002
0.0645992
0.0645982
0.0645971
0.064596
0.0645948
0.0645936
0.0645923
0.064591
0.0645897
0.0645883
0.0645868
0.0645853
0.0645838
0.0645822
0.0645806
0.0645789
0.0645772
0.0645755
0.0645737
0.0645718
0.0645699
0.0645679
0.0645659
0.0645639
0.0645617
0.0645594
0.0645569
0.0645546
0.0645521
0.0645494
0.064547
0.0645443
0.0645415
0.0643748
0.0643786
0.0643822
0.064387
0.0643916
0.0643957
0.0643998
0.0644039
0.0644081
0.0644121
0.0644161
0.0644201
0.0644241
0.064428
0.0644319
0.0644357
0.0644395
0.0644432
0.0644469
0.0644506
0.0644542
0.0644578
0.0644614
0.0644649
0.0644684
0.0644718
0.0644752
0.0644785
0.0644819
0.0644851
0.0644884
0.0644916
0.0644947
0.0644978
0.0645009
0.0645039
0.0645069
0.0645098
0.0645127
0.0645156
0.0645184
0.0645212
0.064524
0.0645267
0.0645293
0.0645319
0.0645345
0.064537
0.0645395
0.064542
0.0645444
0.0645467
0.0645491
0.0645513
0.0645536
0.0645558
0.0645579
0.06456
0.0645621
0.0645641
0.0645661
0.0645681
0.06457
0.0645718
0.0645736
0.0645754
0.0645771
0.0645788
0.0645805
0.0645821
0.0645836
0.0645851
0.0645866
0.064588
0.0645894
0.0645907
0.064592
0.0645933
0.0645945
0.0645957
0.0645968
0.0645979
0.0645989
0.0645999
0.0646008
0.0646017
0.0646026
0.0646034
0.0646042
0.0646049
0.0646056
0.0646062
0.0646068
0.0646074
0.0646079
0.0646083
0.0646087
0.0646091
0.0646094
0.0646097
0.0646099
0.0646101
0.0646103
0.0646104
0.0646104
0.0646104
0.0646104
0.0646103
0.0646102
0.06461
0.0646098
0.0646096
0.0646093
0.0646089
0.0646085
0.0646081
0.0646076
0.064607
0.0646065
0.0646058
0.0646052
0.0646045
0.0646037
0.0646029
0.064602
0.0646011
0.0646002
0.0645992
0.0645982
0.0645971
0.064596
0.0645948
0.0645936
0.0645923
0.064591
0.0645897
0.0645883
0.0645868
0.0645853
0.0645838
0.0645822
0.0645806
0.0645789
0.0645772
0.0645754
0.0645736
0.0645718
0.0645699
0.0645679
0.0645659
0.0645638
0.0645616
0.0645594
0.0645569
0.0645545
0.0645521
0.0645494
0.0645471
0.0645443
0.0645416
0.0643748
0.0643786
0.0643822
0.064387
0.0643916
0.0643958
0.0643998
0.064404
0.0644081
0.0644121
0.0644162
0.0644201
0.0644241
0.064428
0.0644319
0.0644357
0.0644395
0.0644432
0.0644469
0.0644506
0.0644542
0.0644578
0.0644614
0.0644649
0.0644684
0.0644718
0.0644752
0.0644786
0.0644819
0.0644851
0.0644884
0.0644916
0.0644947
0.0644978
0.0645009
0.0645039
0.0645069
0.0645098
0.0645128
0.0645156
0.0645184
0.0645212
0.064524
0.0645267
0.0645293
0.0645319
0.0645345
0.064537
0.0645395
0.064542
0.0645444
0.0645467
0.0645491
0.0645514
0.0645536
0.0645558
0.0645579
0.0645601
0.0645621
0.0645641
0.0645661
0.0645681
0.06457
0.0645718
0.0645736
0.0645754
0.0645771
0.0645788
0.0645805
0.0645821
0.0645836
0.0645851
0.0645866
0.064588
0.0645894
0.0645908
0.0645921
0.0645933
0.0645945
0.0645957
0.0645968
0.0645979
0.0645989
0.0645999
0.0646008
0.0646017
0.0646026
0.0646034
0.0646042
0.0646049
0.0646056
0.0646062
0.0646068
0.0646074
0.0646079
0.0646083
0.0646087
0.0646091
0.0646094
0.0646097
0.0646099
0.0646101
0.0646103
0.0646104
0.0646104
0.0646105
0.0646104
0.0646103
0.0646102
0.06461
0.0646098
0.0646096
0.0646093
0.0646089
0.0646085
0.0646081
0.0646076
0.0646071
0.0646065
0.0646059
0.0646052
0.0646045
0.0646037
0.0646029
0.064602
0.0646012
0.0646002
0.0645992
0.0645982
0.0645971
0.064596
0.0645948
0.0645936
0.0645923
0.064591
0.0645897
0.0645883
0.0645868
0.0645853
0.0645838
0.0645822
0.0645806
0.0645789
0.0645772
0.0645754
0.0645736
0.0645718
0.0645699
0.0645679
0.0645659
0.0645638
0.0645616
0.0645593
0.0645569
0.0645545
0.0645521
0.0645494
0.064547
0.0645444
0.0645415
0.0645392
0.0643748
0.0643786
0.0643822
0.064387
0.0643916
0.0643958
0.0643998
0.064404
0.0644081
0.0644122
0.0644162
0.0644202
0.0644241
0.064428
0.0644319
0.0644357
0.0644395
0.0644432
0.064447
0.0644506
0.0644543
0.0644578
0.0644614
0.0644649
0.0644684
0.0644718
0.0644752
0.0644786
0.0644819
0.0644851
0.0644884
0.0644916
0.0644947
0.0644978
0.0645009
0.0645039
0.0645069
0.0645099
0.0645128
0.0645156
0.0645184
0.0645212
0.064524
0.0645267
0.0645293
0.0645319
0.0645345
0.064537
0.0645395
0.064542
0.0645444
0.0645468
0.0645491
0.0645514
0.0645536
0.0645558
0.0645579
0.0645601
0.0645621
0.0645642
0.0645661
0.0645681
0.06457
0.0645718
0.0645736
0.0645754
0.0645771
0.0645788
0.0645805
0.0645821
0.0645836
0.0645851
0.0645866
0.064588
0.0645894
0.0645908
0.0645921
0.0645933
0.0645945
0.0645957
0.0645968
0.0645979
0.0645989
0.0645999
0.0646008
0.0646017
0.0646026
0.0646034
0.0646042
0.0646049
0.0646056
0.0646062
0.0646068
0.0646074
0.0646079
0.0646083
0.0646087
0.0646091
0.0646094
0.0646097
0.06461
0.0646101
0.0646103
0.0646104
0.0646104
0.0646105
0.0646104
0.0646103
0.0646102
0.06461
0.0646098
0.0646096
0.0646093
0.0646089
0.0646085
0.0646081
0.0646076
0.0646071
0.0646065
0.0646059
0.0646052
0.0646045
0.0646037
0.0646029
0.0646021
0.0646012
0.0646002
0.0645992
0.0645982
0.0645971
0.064596
0.0645948
0.0645936
0.0645923
0.064591
0.0645897
0.0645883
0.0645868
0.0645853
0.0645838
0.0645822
0.0645806
0.0645789
0.0645772
0.0645754
0.0645736
0.0645717
0.0645698
0.0645679
0.0645658
0.0645637
0.0645615
0.0645593
0.0645569
0.0645545
0.0645521
0.0645494
0.064547
0.0645444