/*--------------------------------*- C++ -*----------------------------------*\
| =========                 |                                                 |
| \\      /  F ield         | OpenFOAM: The Open Source CFD Toolbox           |
|  \\    /   O peration     | Version:  2512                                  |
|   \\  /    A nd           | Website:  www.openfoam.com                      |
|    \\/     M anipulation  |                                                 |
\*---------------------------------------------------------------------------*/
FoamFile
{
    version     2.0;
    format      ascii;
    arch        "LSB;label=32;scalar=64";
    class       volScalarField;
    location    "0.1";
    object      Uy;
}
// * * * * * * * * * * * * * * * * * * * * * * * * * * * * * * * * * * * * * //

dimensions      [0 1 -1 0 0 0 0];

internalField   nonuniform List<scalar> 
8333
(
-6.09913e-06
-6.08542e-06
-6.06709e-06
-5.9298e-06
-5.85896e-06
-5.86276e-06
-5.87089e-06
-5.86459e-06
-5.85442e-06
-5.84552e-06
-5.83718e-06
-5.82871e-06
-5.82018e-06
-5.81167e-06
-5.80321e-06
-5.79474e-06
-5.78629e-06
-5.77784e-06
-5.76939e-06
-5.76095e-06
-5.75249e-06
-5.74401e-06
-5.73553e-06
-5.72704e-06
-5.71851e-06
-5.70999e-06
-5.70142e-06
-5.69285e-06
-5.68429e-06
-5.67568e-06
-5.66708e-06
-5.65843e-06
-5.64979e-06
-5.64111e-06
-5.63244e-06
-5.62375e-06
-5.61504e-06
-5.60632e-06
-5.59757e-06
-5.5888e-06
-5.58e-06
-5.57122e-06
-5.56235e-06
-5.5536e-06
-5.54462e-06
-5.53596e-06
-5.52678e-06
-5.51789e-06
-5.50897e-06
-5.50002e-06
-5.49106e-06
-5.48206e-06
-5.47301e-06
-5.46395e-06
-5.45487e-06
-5.44575e-06
-5.43661e-06
-5.42744e-06
-5.41824e-06
-5.40901e-06
-5.39976e-06
-5.39048e-06
-5.38117e-06
-5.37183e-06
-5.36246e-06
-5.35306e-06
-5.34363e-06
-5.33417e-06
-5.32467e-06
-5.31513e-06
-5.30556e-06
-5.29597e-06
-5.28634e-06
-5.27666e-06
-5.26696e-06
-5.25722e-06
-5.24745e-06
-5.23763e-06
-5.22781e-06
-5.2179e-06
-5.20804e-06
-5.198e-06
-5.188e-06
-5.17798e-06
-5.16792e-06
-5.15782e-06
-5.14767e-06
-5.13749e-06
-5.12727e-06
-5.11702e-06
-5.10673e-06
-5.09641e-06
-5.08605e-06
-5.07565e-06
-5.06522e-06
-5.05471e-06
-5.0442e-06
-5.03365e-06
-5.02306e-06
-5.01243e-06
-5.00176e-06
-4.99105e-06
-4.98029e-06
-4.96953e-06
-4.95868e-06
-4.94791e-06
-4.93691e-06
-4.9262e-06
-4.91501e-06
-4.90406e-06
-4.8931e-06
-4.88209e-06
-4.87105e-06
-4.85996e-06
-4.84884e-06
-4.83771e-06
-4.82655e-06
-4.81538e-06
-4.8042e-06
-4.79303e-06
-4.78186e-06
-4.77073e-06
-4.75959e-06
-4.7485e-06
-4.73739e-06
-4.72634e-06
-4.71533e-06
-4.70434e-06
-4.69339e-06
-4.68247e-06
-4.67156e-06
-4.66067e-06
-4.64979e-06
-4.6389e-06
-4.62801e-06
-4.61706e-06
-4.60611e-06
-4.59491e-06
-4.58394e-06
-4.57187e-06
-4.56118e-06
-4.54754e-06
-4.53506e-06
-4.52815e-06
-4.48728e-06
-4.54139e-06
-4.35711e-06
-4.44716e-06
-4.12226e-06
-1.36408e-05
-1.38944e-05
-1.40954e-05
-1.37927e-05
-1.34984e-05
-1.34308e-05
-1.34438e-05
-1.34415e-05
-1.3428e-05
-1.34162e-05
-1.34061e-05
-1.3396e-05
-1.33857e-05
-1.33757e-05
-1.33658e-05
-1.33561e-05
-1.33466e-05
-1.33371e-05
-1.33276e-05
-1.33182e-05
-1.33089e-05
-1.32996e-05
-1.32903e-05
-1.3281e-05
-1.32717e-05
-1.32624e-05
-1.3253e-05
-1.32437e-05
-1.32344e-05
-1.3225e-05
-1.32157e-05
-1.32063e-05
-1.31969e-05
-1.31874e-05
-1.3178e-05
-1.31685e-05
-1.3159e-05
-1.31495e-05
-1.314e-05
-1.31305e-05
-1.31209e-05
-1.31114e-05
-1.31017e-05
-1.30923e-05
-1.30823e-05
-1.30733e-05
-1.30632e-05
-1.30534e-05
-1.30438e-05
-1.30342e-05
-1.30246e-05
-1.30149e-05
-1.30052e-05
-1.29954e-05
-1.29857e-05
-1.2976e-05
-1.29663e-05
-1.29565e-05
-1.29468e-05
-1.29371e-05
-1.29273e-05
-1.29176e-05
-1.29078e-05
-1.28981e-05
-1.28883e-05
-1.28786e-05
-1.28688e-05
-1.28591e-05
-1.28494e-05
-1.28397e-05
-1.28299e-05
-1.28202e-05
-1.28105e-05
-1.28008e-05
-1.27911e-05
-1.27814e-05
-1.27718e-05
-1.27621e-05
-1.27525e-05
-1.27427e-05
-1.27332e-05
-1.27235e-05
-1.27138e-05
-1.27042e-05
-1.26947e-05
-1.26851e-05
-1.26755e-05
-1.26659e-05
-1.26563e-05
-1.26468e-05
-1.26372e-05
-1.26277e-05
-1.26181e-05
-1.26085e-05
-1.2599e-05
-1.25894e-05
-1.25799e-05
-1.25703e-05
-1.25608e-05
-1.25513e-05
-1.25417e-05
-1.25322e-05
-1.25226e-05
-1.2513e-05
-1.25033e-05
-1.24939e-05
-1.24839e-05
-1.24748e-05
-1.24647e-05
-1.24549e-05
-1.24452e-05
-1.24354e-05
-1.24256e-05
-1.24157e-05
-1.24057e-05
-1.23957e-05
-1.23857e-05
-1.23757e-05
-1.23656e-05
-1.23554e-05
-1.23453e-05
-1.23352e-05
-1.23249e-05
-1.23148e-05
-1.23045e-05
-1.22942e-05
-1.22839e-05
-1.22736e-05
-1.22632e-05
-1.22528e-05
-1.22423e-05
-1.22317e-05
-1.22209e-05
-1.22101e-05
-1.21991e-05
-1.21879e-05
-1.21765e-05
-1.21646e-05
-1.21531e-05
-1.21396e-05
-1.21281e-05
-1.21143e-05
-1.20925e-05
-1.21147e-05
-1.19825e-05
-1.22496e-05
-1.16796e-05
-1.2327e-05
-1.15062e-05
-1.39521e-05
-1.42707e-05
-1.45385e-05
-1.42664e-05
-1.39384e-05
-1.38445e-05
-1.3854e-05
-1.38555e-05
-1.38475e-05
-1.38425e-05
-1.38396e-05
-1.38369e-05
-1.38341e-05
-1.38316e-05
-1.38294e-05
-1.38275e-05
-1.38258e-05
-1.38242e-05
-1.38228e-05
-1.38215e-05
-1.38203e-05
-1.38192e-05
-1.38181e-05
-1.38171e-05
-1.38161e-05
-1.38151e-05
-1.38141e-05
-1.38131e-05
-1.38122e-05
-1.38113e-05
-1.38104e-05
-1.38095e-05
-1.38086e-05
-1.38077e-05
-1.38068e-05
-1.38059e-05
-1.38051e-05
-1.38042e-05
-1.38034e-05
-1.38025e-05
-1.38017e-05
-1.38008e-05
-1.37999e-05
-1.37994e-05
-1.37981e-05
-1.37979e-05
-1.37969e-05
-1.37957e-05
-1.3795e-05
-1.37944e-05
-1.37938e-05
-1.3793e-05
-1.37923e-05
-1.37916e-05
-1.37909e-05
-1.37902e-05
-1.37896e-05
-1.37889e-05
-1.37882e-05
-1.37876e-05
-1.3787e-05
-1.37864e-05
-1.37858e-05
-1.37852e-05
-1.37847e-05
-1.37842e-05
-1.37836e-05
-1.37831e-05
-1.37827e-05
-1.37822e-05
-1.37817e-05
-1.37813e-05
-1.37808e-05
-1.37804e-05
-1.378e-05
-1.37796e-05
-1.37792e-05
-1.37788e-05
-1.37785e-05
-1.3778e-05
-1.37779e-05
-1.37774e-05
-1.3777e-05
-1.37767e-05
-1.37765e-05
-1.37762e-05
-1.3776e-05
-1.37757e-05
-1.37755e-05
-1.37753e-05
-1.37751e-05
-1.37749e-05
-1.37748e-05
-1.37746e-05
-1.37745e-05
-1.37743e-05
-1.37742e-05
-1.37741e-05
-1.37741e-05
-1.3774e-05
-1.3774e-05
-1.37739e-05
-1.37739e-05
-1.37739e-05
-1.37738e-05
-1.37741e-05
-1.37736e-05
-1.37742e-05
-1.37738e-05
-1.37734e-05
-1.37734e-05
-1.37734e-05
-1.37733e-05
-1.37732e-05
-1.37729e-05
-1.37727e-05
-1.37725e-05
-1.37722e-05
-1.37719e-05
-1.37716e-05
-1.37712e-05
-1.37708e-05
-1.37703e-05
-1.37699e-05
-1.37692e-05
-1.37685e-05
-1.37678e-05
-1.37669e-05
-1.3766e-05
-1.3765e-05
-1.37638e-05
-1.37626e-05
-1.37612e-05
-1.37597e-05
-1.37581e-05
-1.37563e-05
-1.37544e-05
-1.37523e-05
-1.37502e-05
-1.3748e-05
-1.37441e-05
-1.37502e-05
-1.37185e-05
-1.38106e-05
-1.3567e-05
-1.41289e-05
-1.30891e-05
-1.46659e-05
-1.30453e-05
-1.29754e-05
-1.40925e-05
-1.42873e-05
-1.4522e-05
-1.43389e-05
-1.40466e-05
-1.39346e-05
-1.39277e-05
-1.39239e-05
-1.39134e-05
-1.39058e-05
-1.39008e-05
-1.38963e-05
-1.38919e-05
-1.38878e-05
-1.38841e-05
-1.38807e-05
-1.38776e-05
-1.38747e-05
-1.3872e-05
-1.38694e-05
-1.38669e-05
-1.38646e-05
-1.38623e-05
-1.38601e-05
-1.38579e-05
-1.38558e-05
-1.38537e-05
-1.38515e-05
-1.38495e-05
-1.38475e-05
-1.38455e-05
-1.38435e-05
-1.38414e-05
-1.38394e-05
-1.38374e-05
-1.38354e-05
-1.38334e-05
-1.38315e-05
-1.38295e-05
-1.38275e-05
-1.38256e-05
-1.38236e-05
-1.38216e-05
-1.38199e-05
-1.38175e-05
-1.3816e-05
-1.3814e-05
-1.38116e-05
-1.38097e-05
-1.38079e-05
-1.3806e-05
-1.38041e-05
-1.38021e-05
-1.38002e-05
-1.37982e-05
-1.37962e-05
-1.37942e-05
-1.37923e-05
-1.37903e-05
-1.37883e-05
-1.37863e-05
-1.37842e-05
-1.37822e-05
-1.37802e-05
-1.37781e-05
-1.3776e-05
-1.3774e-05
-1.37719e-05
-1.37698e-05
-1.37676e-05
-1.37655e-05
-1.37633e-05
-1.37611e-05
-1.37589e-05
-1.37567e-05
-1.37544e-05
-1.37521e-05
-1.37498e-05
-1.37475e-05
-1.37449e-05
-1.37427e-05
-1.37402e-05
-1.37376e-05
-1.37351e-05
-1.37326e-05
-1.37301e-05
-1.37275e-05
-1.37249e-05
-1.37223e-05
-1.37196e-05
-1.37169e-05
-1.37142e-05
-1.37115e-05
-1.37087e-05
-1.3706e-05
-1.37031e-05
-1.37002e-05
-1.36974e-05
-1.36945e-05
-1.36917e-05
-1.36887e-05
-1.36858e-05
-1.36828e-05
-1.36799e-05
-1.36768e-05
-1.3674e-05
-1.36705e-05
-1.36679e-05
-1.36647e-05
-1.36613e-05
-1.36583e-05
-1.36553e-05
-1.36522e-05
-1.36491e-05
-1.36459e-05
-1.36428e-05
-1.36396e-05
-1.36364e-05
-1.36332e-05
-1.36299e-05
-1.36267e-05
-1.36234e-05
-1.36201e-05
-1.36168e-05
-1.36135e-05
-1.36101e-05
-1.36067e-05
-1.36034e-05
-1.35999e-05
-1.35965e-05
-1.3593e-05
-1.35895e-05
-1.35859e-05
-1.35823e-05
-1.35787e-05
-1.35751e-05
-1.35714e-05
-1.35679e-05
-1.3564e-05
-1.35623e-05
-1.3554e-05
-1.35687e-05
-1.35207e-05
-1.3644e-05
-1.33666e-05
-1.39552e-05
-1.29927e-05
-1.43243e-05
-1.32964e-05
-1.28001e-05
-1.47039e-05
-1.4471e-05
-1.46026e-05
-1.4791e-05
-1.46696e-05
-1.44323e-05
-1.43255e-05
-1.43102e-05
-1.43024e-05
-1.42899e-05
-1.42803e-05
-1.42734e-05
-1.42671e-05
-1.42611e-05
-1.42556e-05
-1.42503e-05
-1.42455e-05
-1.42409e-05
-1.42366e-05
-1.42324e-05
-1.42284e-05
-1.42246e-05
-1.42208e-05
-1.42171e-05
-1.42135e-05
-1.42099e-05
-1.42064e-05
-1.42029e-05
-1.41994e-05
-1.4196e-05
-1.41925e-05
-1.41891e-05
-1.41856e-05
-1.41822e-05
-1.41788e-05
-1.41753e-05
-1.41719e-05
-1.41685e-05
-1.4165e-05
-1.41616e-05
-1.41581e-05
-1.41547e-05
-1.41513e-05
-1.41477e-05
-1.41445e-05
-1.41406e-05
-1.41375e-05
-1.4134e-05
-1.41301e-05
-1.41266e-05
-1.41233e-05
-1.41198e-05
-1.41164e-05
-1.41129e-05
-1.41093e-05
-1.41058e-05
-1.41023e-05
-1.40988e-05
-1.40953e-05
-1.40918e-05
-1.40883e-05
-1.40847e-05
-1.40812e-05
-1.40777e-05
-1.40742e-05
-1.40707e-05
-1.40672e-05
-1.40638e-05
-1.40603e-05
-1.40568e-05
-1.40533e-05
-1.40498e-05
-1.40463e-05
-1.40428e-05
-1.40394e-05
-1.40359e-05
-1.40324e-05
-1.4029e-05
-1.40255e-05
-1.40221e-05
-1.40186e-05
-1.40153e-05
-1.40118e-05
-1.40083e-05
-1.40049e-05
-1.40015e-05
-1.39981e-05
-1.39947e-05
-1.39913e-05
-1.39879e-05
-1.39845e-05
-1.39811e-05
-1.39777e-05
-1.39743e-05
-1.39709e-05
-1.39676e-05
-1.39642e-05
-1.39608e-05
-1.39574e-05
-1.3954e-05
-1.39507e-05
-1.39473e-05
-1.39439e-05
-1.39406e-05
-1.39372e-05
-1.39338e-05
-1.39306e-05
-1.39269e-05
-1.39239e-05
-1.39206e-05
-1.39169e-05
-1.39136e-05
-1.39104e-05
-1.39071e-05
-1.39038e-05
-1.39004e-05
-1.38971e-05
-1.38938e-05
-1.38905e-05
-1.38872e-05
-1.38839e-05
-1.38806e-05
-1.38773e-05
-1.3874e-05
-1.38708e-05
-1.38676e-05
-1.38643e-05
-1.3861e-05
-1.38578e-05
-1.38546e-05
-1.38514e-05
-1.38482e-05
-1.3845e-05
-1.38418e-05
-1.38387e-05
-1.38356e-05
-1.38326e-05
-1.38297e-05
-1.38273e-05
-1.3824e-05
-1.38252e-05
-1.38153e-05
-1.38394e-05
-1.37804e-05
-1.39298e-05
-1.36324e-05
-1.42367e-05
-1.33323e-05
-1.45534e-05
-1.36066e-05
-1.36263e-05
-1.41935e-05
-1.62035e-05
-1.40648e-05
-1.41552e-05
-1.42851e-05
-1.42044e-05
-1.40173e-05
-1.39167e-05
-1.38932e-05
-1.38821e-05
-1.38691e-05
-1.3859e-05
-1.38518e-05
-1.38454e-05
-1.38395e-05
-1.38341e-05
-1.38291e-05
-1.38244e-05
-1.38201e-05
-1.3816e-05
-1.38121e-05
-1.38084e-05
-1.38048e-05
-1.38014e-05
-1.37981e-05
-1.37948e-05
-1.37916e-05
-1.37885e-05
-1.37853e-05
-1.37822e-05
-1.37792e-05
-1.37761e-05
-1.37731e-05
-1.37701e-05
-1.37671e-05
-1.37641e-05
-1.37611e-05
-1.3758e-05
-1.3755e-05
-1.3752e-05
-1.3749e-05
-1.3746e-05
-1.37429e-05
-1.374e-05
-1.37368e-05
-1.3734e-05
-1.37307e-05
-1.37279e-05
-1.37249e-05
-1.37215e-05
-1.37184e-05
-1.37154e-05
-1.37124e-05
-1.37093e-05
-1.37062e-05
-1.3703e-05
-1.36999e-05
-1.36968e-05
-1.36936e-05
-1.36905e-05
-1.36873e-05
-1.36842e-05
-1.3681e-05
-1.36778e-05
-1.36746e-05
-1.36714e-05
-1.36682e-05
-1.3665e-05
-1.36617e-05
-1.36585e-05
-1.36552e-05
-1.3652e-05
-1.36487e-05
-1.36455e-05
-1.36422e-05
-1.36389e-05
-1.36356e-05
-1.36323e-05
-1.3629e-05
-1.36256e-05
-1.36223e-05
-1.36189e-05
-1.36156e-05
-1.36122e-05
-1.36087e-05
-1.36054e-05
-1.3602e-05
-1.35987e-05
-1.35953e-05
-1.35919e-05
-1.35884e-05
-1.3585e-05
-1.35816e-05
-1.35781e-05
-1.35747e-05
-1.35712e-05
-1.35678e-05
-1.35643e-05
-1.35607e-05
-1.35573e-05
-1.35538e-05
-1.35503e-05
-1.35468e-05
-1.35434e-05
-1.35398e-05
-1.35364e-05
-1.35327e-05
-1.35294e-05
-1.35256e-05
-1.35223e-05
-1.35189e-05
-1.35151e-05
-1.35115e-05
-1.35081e-05
-1.35047e-05
-1.35011e-05
-1.34976e-05
-1.34941e-05
-1.34906e-05
-1.34871e-05
-1.34836e-05
-1.34801e-05
-1.34766e-05
-1.34732e-05
-1.34697e-05
-1.34663e-05
-1.34628e-05
-1.34594e-05
-1.3456e-05
-1.34527e-05
-1.34494e-05
-1.34461e-05
-1.34428e-05
-1.34396e-05
-1.34364e-05
-1.34334e-05
-1.34304e-05
-1.34276e-05
-1.34249e-05
-1.3423e-05
-1.34198e-05
-1.34226e-05
-1.34119e-05
-1.34407e-05
-1.33793e-05
-1.35338e-05
-1.32536e-05
-1.38059e-05
-1.30427e-05
-1.40426e-05
-1.33122e-05
-1.34621e-05
-1.3696e-05
-1.51291e-05
-1.40041e-05
-1.40581e-05
-1.41472e-05
-1.40963e-05
-1.39527e-05
-1.38631e-05
-1.38355e-05
-1.3822e-05
-1.38082e-05
-1.3797e-05
-1.37884e-05
-1.3781e-05
-1.3774e-05
-1.37676e-05
-1.37617e-05
-1.37561e-05
-1.37509e-05
-1.37459e-05
-1.37412e-05
-1.37367e-05
-1.37324e-05
-1.37282e-05
-1.3724e-05
-1.372e-05
-1.3716e-05
-1.37121e-05
-1.37083e-05
-1.37045e-05
-1.37007e-05
-1.36969e-05
-1.36932e-05
-1.36894e-05
-1.36857e-05
-1.3682e-05
-1.36783e-05
-1.36746e-05
-1.36709e-05
-1.36673e-05
-1.36636e-05
-1.36599e-05
-1.36562e-05
-1.36525e-05
-1.36487e-05
-1.36452e-05
-1.36413e-05
-1.36377e-05
-1.36341e-05
-1.36302e-05
-1.36264e-05
-1.36228e-05
-1.36192e-05
-1.36155e-05
-1.36118e-05
-1.3608e-05
-1.36043e-05
-1.36005e-05
-1.35968e-05
-1.3593e-05
-1.35893e-05
-1.35855e-05
-1.35818e-05
-1.3578e-05
-1.35742e-05
-1.35705e-05
-1.35667e-05
-1.35629e-05
-1.35591e-05
-1.35553e-05
-1.35515e-05
-1.35477e-05
-1.35439e-05
-1.35401e-05
-1.35363e-05
-1.35324e-05
-1.35286e-05
-1.35248e-05
-1.3521e-05
-1.35171e-05
-1.35133e-05
-1.35094e-05
-1.35056e-05
-1.35018e-05
-1.34978e-05
-1.34939e-05
-1.34901e-05
-1.34862e-05
-1.34824e-05
-1.34785e-05
-1.34746e-05
-1.34707e-05
-1.34668e-05
-1.34629e-05
-1.3459e-05
-1.34551e-05
-1.34512e-05
-1.34473e-05
-1.34433e-05
-1.34394e-05
-1.34355e-05
-1.34316e-05
-1.34277e-05
-1.34238e-05
-1.34198e-05
-1.34159e-05
-1.34119e-05
-1.34082e-05
-1.34041e-05
-1.34003e-05
-1.33964e-05
-1.33923e-05
-1.33884e-05
-1.33846e-05
-1.33807e-05
-1.33768e-05
-1.33729e-05
-1.33691e-05
-1.33652e-05
-1.33614e-05
-1.33576e-05
-1.33538e-05
-1.335e-05
-1.33462e-05
-1.33425e-05
-1.33388e-05
-1.33352e-05
-1.33315e-05
-1.33279e-05
-1.33243e-05
-1.33208e-05
-1.33174e-05
-1.3314e-05
-1.33107e-05
-1.33075e-05
-1.33045e-05
-1.33015e-05
-1.32989e-05
-1.32964e-05
-1.32949e-05
-1.32921e-05
-1.32957e-05
-1.32855e-05
-1.33154e-05
-1.32581e-05
-1.34017e-05
-1.3162e-05
-1.36215e-05
-1.30501e-05
-1.37321e-05
-1.34137e-05
-1.3168e-05
-1.40548e-05
-1.43933e-05
-1.54062e-05
-1.37303e-05
-1.37699e-05
-1.38297e-05
-1.37941e-05
-1.36821e-05
-1.36021e-05
-1.35715e-05
-1.35559e-05
-1.35417e-05
-1.353e-05
-1.35209e-05
-1.3513e-05
-1.35057e-05
-1.34989e-05
-1.34927e-05
-1.34868e-05
-1.34812e-05
-1.34759e-05
-1.34708e-05
-1.34659e-05
-1.34612e-05
-1.34567e-05
-1.34522e-05
-1.34479e-05
-1.34436e-05
-1.34394e-05
-1.34353e-05
-1.34311e-05
-1.3427e-05
-1.3423e-05
-1.34189e-05
-1.34149e-05
-1.34109e-05
-1.34068e-05
-1.34028e-05
-1.33988e-05
-1.33948e-05
-1.33908e-05
-1.33868e-05
-1.33829e-05
-1.33789e-05
-1.3375e-05
-1.33709e-05
-1.3367e-05
-1.33629e-05
-1.33589e-05
-1.3355e-05
-1.33508e-05
-1.33467e-05
-1.33428e-05
-1.33388e-05
-1.33348e-05
-1.33307e-05
-1.33267e-05
-1.33227e-05
-1.33186e-05
-1.33146e-05
-1.33105e-05
-1.33064e-05
-1.33024e-05
-1.32983e-05
-1.32942e-05
-1.32901e-05
-1.3286e-05
-1.32818e-05
-1.32777e-05
-1.32736e-05
-1.32695e-05
-1.32654e-05
-1.32612e-05
-1.32571e-05
-1.32529e-05
-1.32488e-05
-1.32446e-05
-1.32405e-05
-1.32363e-05
-1.32321e-05
-1.32279e-05
-1.32238e-05
-1.32195e-05
-1.32154e-05
-1.32112e-05
-1.32069e-05
-1.32027e-05
-1.31985e-05
-1.31943e-05
-1.31901e-05
-1.31858e-05
-1.31816e-05
-1.31774e-05
-1.31731e-05
-1.31689e-05
-1.31646e-05
-1.31603e-05
-1.31561e-05
-1.31518e-05
-1.31475e-05
-1.31432e-05
-1.31389e-05
-1.31347e-05
-1.31304e-05
-1.31262e-05
-1.31219e-05
-1.31176e-05
-1.31133e-05
-1.31091e-05
-1.31048e-05
-1.31006e-05
-1.30964e-05
-1.3092e-05
-1.30877e-05
-1.30836e-05
-1.30794e-05
-1.30752e-05
-1.3071e-05
-1.30668e-05
-1.30627e-05
-1.30585e-05
-1.30544e-05
-1.30504e-05
-1.30463e-05
-1.30423e-05
-1.30384e-05
-1.30344e-05
-1.30305e-05
-1.30267e-05
-1.3023e-05
-1.30193e-05
-1.30157e-05
-1.30122e-05
-1.30087e-05
-1.30054e-05
-1.30023e-05
-1.29993e-05
-1.29965e-05
-1.29941e-05
-1.29918e-05
-1.29908e-05
-1.29886e-05
-1.2993e-05
-1.29845e-05
-1.30137e-05
-1.29652e-05
-1.30933e-05
-1.28993e-05
-1.32728e-05
-1.28502e-05
-1.33456e-05
-1.31778e-05
-1.30525e-05
-1.36295e-05
-1.45229e-05
-1.41106e-05
-1.55379e-05
-1.35702e-05
-1.35959e-05
-1.36327e-05
-1.3607e-05
-1.35204e-05
-1.34504e-05
-1.34185e-05
-1.34013e-05
-1.33865e-05
-1.33741e-05
-1.33641e-05
-1.33555e-05
-1.33475e-05
-1.33402e-05
-1.33333e-05
-1.33269e-05
-1.33208e-05
-1.3315e-05
-1.33095e-05
-1.33043e-05
-1.32991e-05
-1.32942e-05
-1.32893e-05
-1.32846e-05
-1.32799e-05
-1.32753e-05
-1.32708e-05
-1.32662e-05
-1.32618e-05
-1.32573e-05
-1.32529e-05
-1.32486e-05
-1.32442e-05
-1.32399e-05
-1.32355e-05
-1.32312e-05
-1.32268e-05
-1.32225e-05
-1.32181e-05
-1.32138e-05
-1.32094e-05
-1.32051e-05
-1.32007e-05
-1.31965e-05
-1.3192e-05
-1.31877e-05
-1.31834e-05
-1.3179e-05
-1.31746e-05
-1.31703e-05
-1.31659e-05
-1.31616e-05
-1.31572e-05
-1.31528e-05
-1.31484e-05
-1.3144e-05
-1.31396e-05
-1.31351e-05
-1.31307e-05
-1.31263e-05
-1.31218e-05
-1.31174e-05
-1.3113e-05
-1.31085e-05
-1.31041e-05
-1.30996e-05
-1.30951e-05
-1.30907e-05
-1.30862e-05
-1.30817e-05
-1.30772e-05
-1.30727e-05
-1.30681e-05
-1.30636e-05
-1.30591e-05
-1.30545e-05
-1.305e-05
-1.30455e-05
-1.30409e-05
-1.30363e-05
-1.30318e-05
-1.30273e-05
-1.30227e-05
-1.30181e-05
-1.30135e-05
-1.30089e-05
-1.30043e-05
-1.29997e-05
-1.29951e-05
-1.29905e-05
-1.29859e-05
-1.29812e-05
-1.29766e-05
-1.2972e-05
-1.29673e-05
-1.29627e-05
-1.29581e-05
-1.29535e-05
-1.29489e-05
-1.29442e-05
-1.29396e-05
-1.29349e-05
-1.29303e-05
-1.29257e-05
-1.2921e-05
-1.29164e-05
-1.29117e-05
-1.29071e-05
-1.29025e-05
-1.28979e-05
-1.28932e-05
-1.28887e-05
-1.28842e-05
-1.28797e-05
-1.28752e-05
-1.28707e-05
-1.28662e-05
-1.28618e-05
-1.28573e-05
-1.2853e-05
-1.28486e-05
-1.28443e-05
-1.28401e-05
-1.28359e-05
-1.28317e-05
-1.28276e-05
-1.28236e-05
-1.28197e-05
-1.28159e-05
-1.28122e-05
-1.28086e-05
-1.28052e-05
-1.28019e-05
-1.27988e-05
-1.27959e-05
-1.27936e-05
-1.27915e-05
-1.27905e-05
-1.27886e-05
-1.27928e-05
-1.27859e-05
-1.28123e-05
-1.27731e-05
-1.28804e-05
-1.27327e-05
-1.30204e-05
-1.27315e-05
-1.30612e-05
-1.30249e-05
-1.29351e-05
-1.33503e-05
-1.4262e-05
-1.37174e-05
-1.45839e-05
-1.33353e-05
-1.3352e-05
-1.3374e-05
-1.3354e-05
-1.32857e-05
-1.32244e-05
-1.31922e-05
-1.31742e-05
-1.31593e-05
-1.31467e-05
-1.31364e-05
-1.31274e-05
-1.31192e-05
-1.31115e-05
-1.31043e-05
-1.30975e-05
-1.30911e-05
-1.30849e-05
-1.3079e-05
-1.30733e-05
-1.30678e-05
-1.30624e-05
-1.30572e-05
-1.30521e-05
-1.3047e-05
-1.3042e-05
-1.30371e-05
-1.30323e-05
-1.30275e-05
-1.30227e-05
-1.30179e-05
-1.30131e-05
-1.30084e-05
-1.30036e-05
-1.29989e-05
-1.29942e-05
-1.29895e-05
-1.29848e-05
-1.298e-05
-1.29754e-05
-1.29707e-05
-1.2966e-05
-1.29613e-05
-1.29567e-05
-1.29519e-05
-1.29472e-05
-1.29426e-05
-1.29377e-05
-1.29329e-05
-1.29283e-05
-1.29236e-05
-1.29188e-05
-1.29141e-05
-1.29093e-05
-1.29046e-05
-1.28999e-05
-1.28951e-05
-1.28903e-05
-1.28856e-05
-1.28808e-05
-1.2876e-05
-1.28712e-05
-1.28664e-05
-1.28615e-05
-1.28567e-05
-1.28519e-05
-1.2847e-05
-1.28422e-05
-1.28373e-05
-1.28325e-05
-1.28277e-05
-1.28228e-05
-1.28179e-05
-1.28131e-05
-1.28082e-05
-1.28033e-05
-1.27984e-05
-1.27935e-05
-1.27886e-05
-1.27837e-05
-1.27787e-05
-1.27737e-05
-1.27688e-05
-1.27638e-05
-1.27589e-05
-1.2754e-05
-1.2749e-05
-1.27441e-05
-1.27391e-05
-1.27342e-05
-1.27292e-05
-1.27242e-05
-1.27192e-05
-1.27143e-05
-1.27093e-05
-1.27043e-05
-1.26992e-05
-1.26941e-05
-1.26892e-05
-1.26842e-05
-1.26792e-05
-1.26743e-05
-1.26693e-05
-1.26643e-05
-1.26593e-05
-1.26544e-05
-1.26494e-05
-1.26445e-05
-1.26396e-05
-1.26346e-05
-1.26296e-05
-1.26248e-05
-1.26199e-05
-1.2615e-05
-1.26102e-05
-1.26053e-05
-1.26006e-05
-1.25959e-05
-1.25912e-05
-1.25866e-05
-1.2582e-05
-1.25775e-05
-1.2573e-05
-1.25686e-05
-1.25643e-05
-1.256e-05
-1.25559e-05
-1.25519e-05
-1.25479e-05
-1.25441e-05
-1.25405e-05
-1.25372e-05
-1.2534e-05
-1.25311e-05
-1.25285e-05
-1.25262e-05
-1.25246e-05
-1.25242e-05
-1.25231e-05
-1.25276e-05
-1.25231e-05
-1.25469e-05
-1.25182e-05
-1.26066e-05
-1.25012e-05
-1.27188e-05
-1.25397e-05
-1.27502e-05
-1.28348e-05
-1.26959e-05
-1.32135e-05
-1.35985e-05
-1.39417e-05
-1.36792e-05
-1.44018e-05
-1.31463e-05
-1.31551e-05
-1.31664e-05
-1.31501e-05
-1.30956e-05
-1.30418e-05
-1.30101e-05
-1.29913e-05
-1.29761e-05
-1.2963e-05
-1.29521e-05
-1.29425e-05
-1.29337e-05
-1.29256e-05
-1.29179e-05
-1.29107e-05
-1.29038e-05
-1.28973e-05
-1.2891e-05
-1.28848e-05
-1.28789e-05
-1.28732e-05
-1.28676e-05
-1.28621e-05
-1.28567e-05
-1.28513e-05
-1.2846e-05
-1.28407e-05
-1.28355e-05
-1.28304e-05
-1.28253e-05
-1.28202e-05
-1.28151e-05
-1.28101e-05
-1.2805e-05
-1.27999e-05
-1.27949e-05
-1.27898e-05
-1.27848e-05
-1.27797e-05
-1.27746e-05
-1.27696e-05
-1.27645e-05
-1.27595e-05
-1.27545e-05
-1.27494e-05
-1.27444e-05
-1.27393e-05
-1.27342e-05
-1.27291e-05
-1.27241e-05
-1.2719e-05
-1.2714e-05
-1.27089e-05
-1.27037e-05
-1.26986e-05
-1.26935e-05
-1.26883e-05
-1.26832e-05
-1.26781e-05
-1.2673e-05
-1.26679e-05
-1.26627e-05
-1.26575e-05
-1.26524e-05
-1.26472e-05
-1.2642e-05
-1.26368e-05
-1.26316e-05
-1.26263e-05
-1.26211e-05
-1.26159e-05
-1.26106e-05
-1.26054e-05
-1.26002e-05
-1.2595e-05
-1.25897e-05
-1.25844e-05
-1.25792e-05
-1.25739e-05
-1.25686e-05
-1.25633e-05
-1.2558e-05
-1.25526e-05
-1.25473e-05
-1.2542e-05
-1.25367e-05
-1.25314e-05
-1.25261e-05
-1.25207e-05
-1.25154e-05
-1.25101e-05
-1.25047e-05
-1.24993e-05
-1.2494e-05
-1.24887e-05
-1.24833e-05
-1.24779e-05
-1.24725e-05
-1.24672e-05
-1.24618e-05
-1.24565e-05
-1.24511e-05
-1.24458e-05
-1.24404e-05
-1.24351e-05
-1.24297e-05
-1.24244e-05
-1.24192e-05
-1.24139e-05
-1.24086e-05
-1.24034e-05
-1.23982e-05
-1.2393e-05
-1.23878e-05
-1.23827e-05
-1.23776e-05
-1.23725e-05
-1.23675e-05
-1.23625e-05
-1.23576e-05
-1.23528e-05
-1.2348e-05
-1.23433e-05
-1.23387e-05
-1.23342e-05
-1.23298e-05
-1.23255e-05
-1.23213e-05
-1.23174e-05
-1.23135e-05
-1.23098e-05
-1.23064e-05
-1.23033e-05
-1.23006e-05
-1.22983e-05
-1.22962e-05
-1.22957e-05
-1.22947e-05
-1.22986e-05
-1.22959e-05
-1.23163e-05
-1.22967e-05
-1.23673e-05
-1.22944e-05
-1.24535e-05
-1.23487e-05
-1.24817e-05
-1.26103e-05
-1.25027e-05
-1.29459e-05
-1.32684e-05
-1.35708e-05
-1.36178e-05
-1.37514e-05
-1.40632e-05
-1.29346e-05
-1.29369e-05
-1.29409e-05
-1.29266e-05
-1.28816e-05
-1.28338e-05
-1.2803e-05
-1.27839e-05
-1.27687e-05
-1.27555e-05
-1.27442e-05
-1.27342e-05
-1.2725e-05
-1.27164e-05
-1.27083e-05
-1.27007e-05
-1.26934e-05
-1.26865e-05
-1.26798e-05
-1.26734e-05
-1.26672e-05
-1.26611e-05
-1.26551e-05
-1.26493e-05
-1.26436e-05
-1.26379e-05
-1.26322e-05
-1.26266e-05
-1.26209e-05
-1.26154e-05
-1.26098e-05
-1.26043e-05
-1.25989e-05
-1.25935e-05
-1.25881e-05
-1.25827e-05
-1.25774e-05
-1.2572e-05
-1.25666e-05
-1.25613e-05
-1.25559e-05
-1.25504e-05
-1.25449e-05
-1.25395e-05
-1.2534e-05
-1.25286e-05
-1.25232e-05
-1.25178e-05
-1.25123e-05
-1.2507e-05
-1.25017e-05
-1.24962e-05
-1.24908e-05
-1.24854e-05
-1.248e-05
-1.24745e-05
-1.2469e-05
-1.24634e-05
-1.24579e-05
-1.24524e-05
-1.24468e-05
-1.24413e-05
-1.24358e-05
-1.24303e-05
-1.24248e-05
-1.24193e-05
-1.24139e-05
-1.24084e-05
-1.24028e-05
-1.23972e-05
-1.23916e-05
-1.23859e-05
-1.23803e-05
-1.23746e-05
-1.2369e-05
-1.23634e-05
-1.23578e-05
-1.23521e-05
-1.23465e-05
-1.23409e-05
-1.23353e-05
-1.23297e-05
-1.23241e-05
-1.23184e-05
-1.23127e-05
-1.2307e-05
-1.23012e-05
-1.22955e-05
-1.22898e-05
-1.22841e-05
-1.22783e-05
-1.22726e-05
-1.22669e-05
-1.22612e-05
-1.22555e-05
-1.22499e-05
-1.22442e-05
-1.22386e-05
-1.22328e-05
-1.22271e-05
-1.22213e-05
-1.22155e-05
-1.22098e-05
-1.2204e-05
-1.21983e-05
-1.21926e-05
-1.21869e-05
-1.21813e-05
-1.21756e-05
-1.217e-05
-1.21644e-05
-1.21589e-05
-1.21534e-05
-1.21479e-05
-1.21424e-05
-1.2137e-05
-1.21316e-05
-1.21263e-05
-1.2121e-05
-1.21157e-05
-1.21105e-05
-1.21055e-05
-1.21004e-05
-1.20955e-05
-1.20907e-05
-1.20859e-05
-1.20813e-05
-1.20769e-05
-1.20726e-05
-1.20684e-05
-1.20646e-05
-1.20607e-05
-1.20572e-05
-1.20541e-05
-1.20514e-05
-1.20496e-05
-1.20479e-05
-1.20476e-05
-1.20474e-05
-1.20517e-05
-1.20514e-05
-1.20693e-05
-1.20574e-05
-1.21146e-05
-1.20704e-05
-1.21884e-05
-1.21386e-05
-1.22227e-05
-1.23727e-05
-1.22925e-05
-1.26929e-05
-1.29017e-05
-1.33405e-05
-1.31179e-05
-1.36996e-05
-1.29564e-05
-1.41121e-05
-1.27326e-05
-1.27285e-05
-1.27277e-05
-1.27149e-05
-1.26767e-05
-1.26336e-05
-1.2604e-05
-1.25848e-05
-1.25694e-05
-1.25561e-05
-1.25445e-05
-1.25342e-05
-1.25248e-05
-1.25159e-05
-1.25075e-05
-1.24995e-05
-1.24918e-05
-1.24845e-05
-1.24774e-05
-1.24706e-05
-1.24639e-05
-1.24574e-05
-1.2451e-05
-1.24448e-05
-1.24388e-05
-1.24328e-05
-1.24268e-05
-1.24209e-05
-1.2415e-05
-1.24091e-05
-1.24032e-05
-1.23974e-05
-1.23916e-05
-1.23857e-05
-1.23799e-05
-1.23741e-05
-1.23683e-05
-1.23626e-05
-1.23569e-05
-1.23513e-05
-1.23456e-05
-1.23398e-05
-1.23341e-05
-1.23283e-05
-1.23226e-05
-1.23168e-05
-1.2311e-05
-1.23052e-05
-1.22994e-05
-1.22936e-05
-1.22878e-05
-1.22819e-05
-1.22762e-05
-1.22705e-05
-1.22648e-05
-1.2259e-05
-1.22531e-05
-1.22473e-05
-1.22415e-05
-1.22356e-05
-1.22297e-05
-1.22239e-05
-1.2218e-05
-1.22121e-05
-1.22062e-05
-1.22002e-05
-1.21943e-05
-1.21884e-05
-1.21826e-05
-1.21767e-05
-1.21708e-05
-1.21648e-05
-1.21589e-05
-1.21529e-05
-1.21469e-05
-1.21409e-05
-1.21349e-05
-1.21289e-05
-1.21229e-05
-1.21169e-05
-1.21108e-05
-1.21048e-05
-1.20988e-05
-1.20928e-05
-1.20868e-05
-1.20808e-05
-1.20747e-05
-1.20687e-05
-1.20626e-05
-1.20565e-05
-1.20504e-05
-1.20444e-05
-1.20383e-05
-1.20322e-05
-1.20261e-05
-1.20199e-05
-1.20138e-05
-1.20078e-05
-1.20017e-05
-1.19957e-05
-1.19897e-05
-1.19836e-05
-1.19775e-05
-1.19714e-05
-1.19654e-05
-1.19593e-05
-1.19533e-05
-1.19473e-05
-1.19413e-05
-1.19353e-05
-1.19293e-05
-1.19233e-05
-1.19174e-05
-1.19116e-05
-1.19058e-05
-1.19001e-05
-1.18944e-05
-1.18887e-05
-1.18831e-05
-1.18776e-05
-1.18721e-05
-1.18667e-05
-1.18614e-05
-1.18562e-05
-1.18511e-05
-1.18461e-05
-1.18413e-05
-1.18367e-05
-1.18322e-05
-1.18279e-05
-1.18239e-05
-1.182e-05
-1.18165e-05
-1.18133e-05
-1.18106e-05
-1.18086e-05
-1.18071e-05
-1.18068e-05
-1.18068e-05
-1.18109e-05
-1.18112e-05
-1.18262e-05
-1.18202e-05
-1.1866e-05
-1.18418e-05
-1.19293e-05
-1.19159e-05
-1.19709e-05
-1.21263e-05
-1.20712e-05
-1.24329e-05
-1.25685e-05
-1.3043e-05
-1.27431e-05
-1.33995e-05
-1.26866e-05
-1.32127e-05
-1.25297e-05
-1.25193e-05
-1.25162e-05
-1.25055e-05
-1.2472e-05
-1.24324e-05
-1.24041e-05
-1.2385e-05
-1.23695e-05
-1.2356e-05
-1.23442e-05
-1.23336e-05
-1.23237e-05
-1.23145e-05
-1.23058e-05
-1.22975e-05
-1.22896e-05
-1.2282e-05
-1.22746e-05
-1.22674e-05
-1.22604e-05
-1.22536e-05
-1.22469e-05
-1.22404e-05
-1.22339e-05
-1.22274e-05
-1.2221e-05
-1.22147e-05
-1.22085e-05
-1.22023e-05
-1.21962e-05
-1.219e-05
-1.21838e-05
-1.21777e-05
-1.21716e-05
-1.21654e-05
-1.21593e-05
-1.21533e-05
-1.21472e-05
-1.21411e-05
-1.21349e-05
-1.21288e-05
-1.21228e-05
-1.21167e-05
-1.21106e-05
-1.21045e-05
-1.20984e-05
-1.20923e-05
-1.20861e-05
-1.208e-05
-1.20738e-05
-1.20677e-05
-1.20616e-05
-1.20555e-05
-1.20493e-05
-1.20431e-05
-1.20369e-05
-1.20308e-05
-1.20246e-05
-1.20184e-05
-1.20122e-05
-1.2006e-05
-1.19997e-05
-1.19936e-05
-1.19872e-05
-1.19809e-05
-1.19747e-05
-1.19685e-05
-1.19622e-05
-1.19558e-05
-1.19496e-05
-1.19433e-05
-1.1937e-05
-1.19307e-05
-1.19244e-05
-1.19181e-05
-1.19117e-05
-1.19054e-05
-1.1899e-05
-1.18925e-05
-1.18861e-05
-1.18798e-05
-1.18734e-05
-1.1867e-05
-1.18605e-05
-1.18542e-05
-1.18478e-05
-1.18414e-05
-1.1835e-05
-1.18285e-05
-1.18221e-05
-1.18157e-05
-1.18092e-05
-1.18028e-05
-1.17962e-05
-1.17898e-05
-1.17833e-05
-1.17769e-05
-1.17704e-05
-1.1764e-05
-1.17575e-05
-1.17511e-05
-1.17447e-05
-1.17383e-05
-1.17319e-05
-1.17255e-05
-1.17192e-05
-1.17128e-05
-1.17064e-05
-1.17001e-05
-1.16938e-05
-1.16874e-05
-1.16812e-05
-1.1675e-05
-1.16689e-05
-1.16628e-05
-1.16567e-05
-1.16507e-05
-1.16448e-05
-1.16389e-05
-1.16331e-05
-1.16274e-05
-1.16219e-05
-1.16164e-05
-1.16111e-05
-1.16059e-05
-1.16009e-05
-1.1596e-05
-1.15912e-05
-1.15868e-05
-1.15824e-05
-1.15786e-05
-1.15749e-05
-1.15716e-05
-1.15689e-05
-1.15668e-05
-1.15653e-05
-1.15649e-05
-1.15652e-05
-1.15687e-05
-1.15698e-05
-1.15832e-05
-1.15821e-05
-1.16186e-05
-1.16084e-05
-1.16745e-05
-1.16841e-05
-1.17246e-05
-1.18714e-05
-1.18487e-05
-1.21499e-05
-1.2293e-05
-1.26297e-05
-1.25925e-05
-1.27157e-05
-1.29238e-05
-1.24041e-05
-1.30988e-05
-1.23273e-05
-1.23105e-05
-1.23067e-05
-1.22978e-05
-1.22664e-05
-1.22292e-05
-1.22021e-05
-1.21835e-05
-1.21681e-05
-1.21543e-05
-1.21421e-05
-1.21311e-05
-1.21209e-05
-1.21113e-05
-1.21023e-05
-1.20937e-05
-1.20854e-05
-1.20775e-05
-1.20698e-05
-1.20623e-05
-1.2055e-05
-1.20479e-05
-1.20409e-05
-1.20339e-05
-1.2027e-05
-1.20202e-05
-1.20135e-05
-1.20069e-05
-1.20004e-05
-1.19938e-05
-1.19873e-05
-1.19808e-05
-1.19743e-05
-1.19678e-05
-1.19613e-05
-1.19549e-05
-1.19485e-05
-1.1942e-05
-1.19355e-05
-1.1929e-05
-1.19226e-05
-1.19162e-05
-1.19097e-05
-1.19033e-05
-1.18969e-05
-1.18904e-05
-1.1884e-05
-1.18775e-05
-1.1871e-05
-1.18646e-05
-1.18581e-05
-1.18516e-05
-1.18451e-05
-1.18386e-05
-1.1832e-05
-1.18255e-05
-1.1819e-05
-1.18125e-05
-1.1806e-05
-1.17994e-05
-1.17929e-05
-1.17863e-05
-1.17797e-05
-1.17731e-05
-1.17665e-05
-1.17599e-05
-1.17533e-05
-1.17466e-05
-1.17399e-05
-1.17333e-05
-1.17267e-05
-1.172e-05
-1.17134e-05
-1.17067e-05
-1.17e-05
-1.16933e-05
-1.16866e-05
-1.16799e-05
-1.16731e-05
-1.16664e-05
-1.16597e-05
-1.16529e-05
-1.16461e-05
-1.16393e-05
-1.16326e-05
-1.16258e-05
-1.16191e-05
-1.16123e-05
-1.16055e-05
-1.15987e-05
-1.15919e-05
-1.15851e-05
-1.15783e-05
-1.15714e-05
-1.15646e-05
-1.15578e-05
-1.1551e-05
-1.15441e-05
-1.15373e-05
-1.15305e-05
-1.15237e-05
-1.15169e-05
-1.15101e-05
-1.15034e-05
-1.14966e-05
-1.14898e-05
-1.14831e-05
-1.14763e-05