/*--------------------------------*- C++ -*----------------------------------*\
| =========                 |                                                 |
| \\      /  F ield         | OpenFOAM: The Open Source CFD Toolbox           |
|  \\    /   O peration     | Version:  2512                                  |
|   \\  /    A nd           | Website:  www.openfoam.com                      |
|    \\/     M anipulation  |                                                 |
\*---------------------------------------------------------------------------*/
FoamFile
{
    version     2.0;
    format      ascii;
    arch        "LSB;label=32;scalar=64";
    class       volScalarField;
    location    "0.1";
    object      Uz;
}
// * * * * * * * * * * * * * * * * * * * * * * * * * * * * * * * * * * * * * //

dimensions      [0 1 -1 0 0 0 0];

internalField   nonuniform List<scalar> 
8333
(
6.19447e-20
6.1786e-20
6.19137e-20
6.18376e-20
6.22086e-20
6.0169e-20
6.78416e-20
4.13227e-20
1.13701e-19
-5.28836e-20
2.20157e-19
-9.12502e-20
1.28992e-20
3.87957e-20
3.83823e-19
3.48123e-20
7.4223e-20
4.39709e-20
3.74315e-19
1.47461e-20
5.17634e-20
3.72497e-20
3.70052e-19
1.44575e-20
5.36112e-20
3.3876e-20
3.64705e-19
7.12915e-21
4.87436e-20
3.14586e-20
3.65642e-19
6.0436e-21
4.59466e-20
3.74615e-20
3.64356e-19
6.00502e-21
5.01784e-20
3.50178e-20
3.62359e-19
-1.17394e-21
4.25922e-20
3.67768e-20
3.63262e-19
2.92385e-21
4.71978e-20
3.50814e-20
3.60886e-19
-1.87183e-22
4.50042e-20
3.36637e-20
3.64758e-19
-9.81793e-23
4.30373e-20
3.91965e-20
3.64262e-19
3.30245e-21
4.81942e-20
3.62569e-20
3.63059e-19
-2.90445e-21
4.27769e-20
4.40821e-20
3.62895e-19
3.61399e-21
4.88089e-20
4.7258e-20
3.48379e-19
3.62973e-20
-5.12462e-20
2.67266e-19
4.70298e-20
2.72899e-19
1.36401e-19
-1.09707e-19
-1.95821e-19
-1.41173e-19
-5.55873e-20
4.33258e-21
3.51047e-20
4.81286e-20
5.32902e-20
5.55788e-20
5.68449e-20
5.77498e-20
5.83764e-20
5.89053e-20
5.9359e-20
5.96722e-20
5.99427e-20
6.01487e-20
6.03114e-20
6.04582e-20
6.06024e-20
6.06106e-20
6.04789e-20
6.05621e-20
6.07524e-20
6.08811e-20
6.10051e-20
6.10722e-20
6.11832e-20
6.13145e-20
6.13075e-20
6.13324e-20
6.13533e-20
6.14753e-20
6.15072e-20
6.15275e-20
6.15374e-20
6.1588e-20
6.14201e-20
6.13529e-20
6.13738e-20
6.14034e-20
6.15372e-20
6.15663e-20
6.15601e-20
6.14629e-20
6.13931e-20
6.15855e-20
6.17978e-20
6.17413e-20
6.17757e-20
6.17174e-20
6.17742e-20
6.17794e-20
6.16979e-20
6.1754e-20
6.15478e-20
6.15106e-20
5.99441e-20
6.5249e-20
4.50231e-20
1.04678e-19
-4.54589e-20
2.23318e-19
-1.144e-19
1.54151e-20
7.0962e-20
3.98214e-19
7.57995e-21
5.6874e-20
6.89337e-20
3.84449e-19
-1.13968e-20
4.64014e-20
6.35471e-20
3.78151e-19
-1.77119e-20
9.8531e-20
9.80488e-20
9.84634e-20
9.76896e-20
1.01694e-19
8.48864e-20
1.44606e-19
-3.72493e-20
4.19706e-19
-5.04303e-19
8.7139e-19
-4.57405e-19
3.22841e-20
-9.89337e-20
1.71891e-18
3.14322e-19
5.22566e-19
9.01891e-20
1.78006e-18
3.04068e-19
4.61078e-19
7.44171e-20
1.77814e-18
3.14086e-19
4.82419e-19
7.87407e-20
1.76986e-18
2.88526e-19
4.68907e-19
7.03361e-20
1.77673e-18
2.89409e-19
4.52374e-19
9.46642e-20
1.78016e-18
2.86628e-19
4.73224e-19
9.1325e-20
1.77779e-18
2.66084e-19
4.30223e-19
8.99076e-20
1.77832e-18
2.76212e-19
4.59239e-19
9.37709e-20
1.7687e-18
2.64137e-19
4.4958e-19
7.98378e-20
1.78103e-18
2.6732e-19
4.34246e-19
1.03013e-19
1.78178e-18
2.76426e-19
4.63592e-19
9.56351e-20
1.7797e-18
2.49536e-19
4.28935e-19
1.25453e-19
1.77945e-18
2.71128e-19
4.50838e-19
1.50698e-19
1.68249e-18
4.85775e-19
-1.69188e-19
1.28556e-18
2.65518e-19
1.2798e-18
8.01423e-19
-2.87882e-19
-8.6386e-19
-7.8324e-19
-4.52053e-19
-1.73941e-19
-1.77594e-20
5.08907e-20
7.66856e-20
8.59319e-20
8.94778e-20
9.13648e-20
9.24931e-20
9.3378e-20
9.42172e-20
9.47411e-20
9.51665e-20
9.55533e-20
9.5812e-20
9.59683e-20
9.62836e-20
9.64304e-20
9.60388e-20
9.60668e-20
9.63892e-20
9.65816e-20
9.69109e-20
9.70182e-20
9.71552e-20
9.74821e-20
9.746e-20
9.74505e-20
9.74218e-20
9.76732e-20
9.76565e-20
9.77215e-20
9.7715e-20
9.80498e-20
9.77328e-20
9.75019e-20
9.74733e-20
9.74938e-20
9.78231e-20
9.78786e-20
9.79398e-20
9.77983e-20
9.7447e-20
9.77513e-20
9.83668e-20
9.81885e-20
9.82458e-20
9.79795e-20
9.8078e-20
9.8254e-20
9.80183e-20
9.82409e-20
9.76935e-20
9.97833e-20
8.7946e-20
1.30995e-19
-1.16819e-20
3.78241e-19
-4.8102e-19
9.15062e-19
-5.5656e-19
9.91333e-21
4.67794e-20
1.83668e-18
2.35299e-19
4.12997e-19
1.77085e-19
1.86804e-18
2.00607e-19
4.04015e-19
1.88809e-19
1.86954e-18
1.92615e-19
1.2842e-19
1.27073e-19
1.28179e-19
1.25832e-19
1.38221e-19
8.6585e-20
2.68949e-19
-2.7434e-19
1.06892e-18
-1.61369e-18
2.48149e-18
-1.96272e-18
1.01932e-18
2.2424e-19
5.12753e-18
3.3112e-19
2.47856e-18
8.74974e-19
5.38027e-18
3.90549e-19
2.38379e-18
8.41441e-19
5.37902e-18
4.2618e-19
2.43588e-18
8.60347e-19
5.37954e-18
3.51781e-19
2.42611e-18
8.61623e-19
5.40601e-18
3.61522e-19
2.38001e-18
9.12714e-19
5.42351e-18
3.52977e-19
2.44845e-18
9.14887e-19
5.41711e-18
3.38751e-19
2.30842e-18
8.80762e-19
5.41429e-18
3.32242e-19
2.39986e-18
9.29737e-19
5.39612e-18
3.01798e-19
2.38722e-18
8.86731e-19
5.41497e-18
3.14798e-19
2.32877e-18
9.35371e-19
5.42209e-18
3.2206e-19
2.42413e-18
9.31747e-19
5.4306e-18
2.45521e-19
2.32606e-18
1.01357e-18
5.43624e-18
3.06742e-19
2.38858e-18
1.08581e-18
5.14031e-18
9.61679e-19
5.70522e-19
4.36368e-18
8.25714e-19
4.24575e-18
1.35573e-18
-1.36462e-18
-2.56854e-18
-2.24779e-18
-1.35548e-18
-6.08886e-19
-1.80619e-19
1.14804e-20
8.37601e-20
1.08466e-19
1.16306e-19
1.19518e-19
1.20985e-19
1.2195e-19
1.23203e-19
1.23742e-19
1.24127e-19
1.24722e-19
1.25036e-19
1.24864e-19
1.25423e-19
1.25963e-19
1.24863e-19
1.24731e-19
1.2528e-19
1.25353e-19
1.26167e-19
1.26291e-19
1.26278e-19
1.27092e-19
1.26921e-19
1.26822e-19
1.26594e-19
1.27207e-19
1.26867e-19
1.2703e-19
1.26736e-19
1.27984e-19
1.27349e-19
1.26778e-19
1.26634e-19
1.26571e-19
1.2744e-19
1.27402e-19
1.27646e-19
1.27559e-19
1.26397e-19
1.26846e-19
1.28569e-19
1.27867e-19
1.28076e-19
1.27124e-19
1.27222e-19
1.27996e-19
1.27293e-19
1.27753e-19
1.26648e-19
1.33923e-19
9.78848e-20
2.30369e-19
-1.99693e-19
9.61684e-19
-1.56604e-18
2.62077e-18
-2.22101e-18
9.54454e-19
6.21163e-19
5.45573e-18
2.01674e-19
2.20352e-18
1.04477e-18
5.6153e-18
1.1009e-19
2.25033e-18
1.14756e-18
5.66933e-18
1.1546e-19
2.23545e-18
2.49942e-19
2.45373e-19
2.4749e-19
2.48821e-19
2.55109e-19
2.05007e-19
4.32471e-19
-3.38812e-19
1.74714e-18
-2.77575e-18
5.00654e-18
-5.9881e-18
8.82467e-18
3.4285e-18
1.04129e-17
-1.92284e-18
1.07976e-17
4.42053e-18
1.08103e-17
-1.82582e-18
1.09556e-17
4.40015e-18
1.07915e-17
-1.75662e-18
1.10461e-17
4.40305e-18
1.08103e-17
-1.9167e-18
1.10463e-17
4.46223e-18
1.08765e-17
-1.88942e-18
1.09054e-17
4.53083e-18
1.09082e-17
-1.9366e-18
1.12076e-17
4.58279e-18
1.08774e-17
-1.86513e-18
1.07412e-17
4.42969e-18
1.08642e-17
-1.94011e-18
1.10496e-17
4.57764e-18
1.0861e-17
-1.99317e-18
1.09627e-17
4.52142e-18
1.08771e-17
-1.95374e-18
1.08956e-17
4.56435e-18
1.08886e-17
-1.98511e-18
1.10556e-17
4.59664e-18
1.09341e-17
-2.11846e-18
1.08993e-17
4.7463e-18
1.09534e-17
-2.02797e-18
1.10722e-17
4.87243e-18
1.0469e-17
-9.90192e-19
8.24711e-18
1.06744e-17
1.60102e-18
1.01848e-17
-4.85285e-18
-5.46691e-18
-5.32145e-18
-3.92024e-18
-2.1995e-18
-9.40429e-19
-2.4076e-19
6.84898e-20
1.82907e-19
2.2232e-19
2.33435e-19
2.38152e-19
2.39534e-19
2.40084e-19
2.42775e-19
2.43027e-19
2.43215e-19
2.44195e-19
2.4463e-19
2.43116e-19
2.44764e-19
2.46582e-19
2.42544e-19
2.41738e-19
2.43338e-19
2.42974e-19
2.45597e-19
2.45768e-19
2.44995e-19
2.48198e-19
2.4714e-19
2.46781e-19
2.45582e-19
2.47695e-19
2.46144e-19
2.46688e-19
2.45229e-19
2.49825e-19
2.47662e-19
2.45759e-19
2.45693e-19
2.45113e-19
2.48158e-19
2.47689e-19
2.48811e-19
2.48789e-19
2.44414e-19
2.45475e-19
2.51765e-19
2.48613e-19
2.49737e-19
2.46122e-19
2.46031e-19
2.48996e-19
2.46419e-19
2.46638e-19
2.48968e-19
2.52017e-19
2.15544e-19
3.75605e-19
-2.24303e-19
1.57311e-18
-2.69014e-18
5.22573e-18
-6.41303e-18
8.74254e-18
4.10834e-18
1.08633e-17
-2.07034e-18
1.05446e-17
4.64071e-18
1.11063e-17
-2.37943e-18
1.10471e-17
4.97504e-18
1.12685e-17
-2.30693e-18
1.0749e-17
4.93519e-18
8.0102e-19
7.82795e-19
7.87989e-19
8.17094e-19
7.48511e-19
8.90101e-19
6.81238e-19
7.89511e-19
1.33388e-18
-7.18831e-19
2.97863e-18
-7.48496e-19
9.76494e-19
5.01551e-19
5.00473e-18
1.13019e-18
2.23534e-18
1.07457e-18
5.23693e-18
1.19297e-18
2.13858e-18
1.04124e-18
5.23519e-18
1.21986e-18
2.19069e-18
1.05038e-18
5.23999e-18
1.14303e-18
2.17883e-18
1.05863e-18
5.261e-18
1.16174e-18
2.1279e-18
1.10857e-18
5.29231e-18
1.14852e-18
2.18345e-18
1.11506e-18
5.28897e-18
1.13902e-18
2.04747e-18
1.0725e-18
5.29162e-18
1.13617e-18
2.14843e-18
1.13883e-18
5.25753e-18
1.10361e-18
2.12849e-18
1.08205e-18
5.29491e-18
1.12005e-18
2.06202e-18
1.13174e-18
5.29101e-18
1.11597e-18
2.15153e-18
1.12978e-18
5.30875e-18
1.04278e-18
2.05343e-18
1.22282e-18
5.32534e-18
1.10818e-18
2.10697e-18
1.29649e-18
4.99347e-18
1.82099e-18
2.11705e-19
4.54569e-18
1.03004e-18
4.36611e-18
1.68533e-18
-1.07011e-18
-2.37638e-18
-2.03715e-18
-9.89694e-19
-1.38876e-19
3.99174e-19
6.4434e-19
7.30615e-19
7.65348e-19
7.72539e-19
7.80622e-19
7.79346e-19
7.77493e-19
7.85663e-19
7.84473e-19
7.85225e-19
7.8587e-19
7.86838e-19
7.81541e-19
7.87862e-19
7.94191e-19
7.78324e-19
7.7394e-19
7.81073e-19
7.79759e-19
7.87771e-19
7.8788e-19
7.84256e-19
7.98277e-19
7.93463e-19
7.92757e-19
7.86291e-19
7.94557e-19
7.90219e-19
7.91041e-19
7.85959e-19
8.01394e-19
7.92744e-19
7.85557e-19
7.88831e-19
7.84013e-19
7.95118e-19
7.93849e-19
7.99016e-19
7.98322e-19
7.81773e-19
7.84328e-19
8.0906e-19
7.95839e-19
8.02114e-19
7.89412e-19
7.88417e-19
7.97739e-19
7.86475e-19
7.86996e-19
8.08149e-19
7.61569e-19
8.5369e-19
6.60758e-19
8.41451e-19
1.18923e-18
-6.37953e-19
3.166e-18
-1.04677e-18
8.19369e-19
8.90256e-19
5.39445e-18
1.01813e-18
1.88916e-18
1.2455e-18
5.53196e-18
9.01631e-19
1.93101e-18
1.35691e-18
5.59568e-18
9.24227e-19
1.91173e-18
1.34582e-18
5.61431e-18
2.90778e-18
2.83771e-18
2.85855e-18
2.9767e-18
2.68804e-18
3.36997e-18
1.96975e-18
4.35516e-18
1.39365e-18
3.60683e-18
2.84827e-18
3.84297e-18
-2.64561e-19
1.88091e-18
1.49626e-18
3.02235e-18
-6.57863e-19
1.64257e-18
1.39701e-18
2.96606e-18
-7.57337e-19
1.63554e-18
1.40258e-18
2.94443e-18
-7.22727e-19
1.58776e-18
1.38914e-18
2.91723e-18
-7.42187e-19
1.61547e-18
1.37686e-18
2.94409e-18
-7.66483e-19
1.6481e-18
1.43144e-18
2.92421e-18
-7.94737e-19
1.64088e-18
1.43507e-18
2.91879e-18
-8.23568e-19
1.63479e-18
1.46156e-18
2.95118e-18
-7.52621e-19
1.68529e-18
1.38584e-18
2.92661e-18
-7.88959e-19
1.62093e-18
1.47188e-18
2.93111e-18
-8.334e-19
1.65315e-18
1.40794e-18
2.90972e-18
-8.24304e-19
1.65026e-18
1.44325e-18
2.88669e-18
-8.32106e-19
1.72967e-18
1.48019e-18
2.93465e-18
-8.37268e-19
1.72333e-18
1.33485e-18
3.17397e-18
-1.47208e-18
2.58208e-18
9.35041e-19
2.04876e-18
1.53927e-18
2.76973e-19
-1.7666e-19
3.76621e-19
1.40928e-18
2.04128e-18
2.53541e-18
2.75079e-18
2.79813e-18
2.8285e-18
2.83051e-18
2.86249e-18
2.84696e-18
2.83746e-18
2.86006e-18
2.85199e-18
2.861e-18
2.85505e-18
2.85804e-18
2.84836e-18
2.86666e-18
2.88958e-18
2.83097e-18
2.81252e-18
2.84654e-18
2.84513e-18
2.86033e-18
2.85857e-18
2.84942e-18
2.89946e-18
2.88239e-18
2.88605e-18
2.85315e-18
2.88499e-18
2.88249e-18
2.87498e-18
2.85955e-18
2.90574e-18
2.87296e-18
2.85063e-18
2.87588e-18
2.84471e-18
2.88143e-18
2.88248e-18
2.89975e-18
2.89459e-18
2.83995e-18
2.84242e-18
2.9309e-18
2.88333e-18
2.91241e-18
2.87627e-18
2.87661e-18
2.89571e-18
2.84659e-18
2.87105e-18
2.93221e-18
2.73245e-18
3.19761e-18
2.03021e-18
4.25855e-18
1.23076e-18
3.76506e-18
3.01434e-18
3.57913e-18
-5.3744e-19
1.99881e-18
1.74362e-18
2.95156e-18
-9.68661e-19
1.7728e-18
1.63969e-18
2.80478e-18
-9.75389e-19
1.80617e-18
1.66882e-18
2.85209e-18
-1.01341e-18
1.77313e-18
1.66428e-18
9.40327e-18
9.20885e-18
9.23665e-18
9.5959e-18
8.80403e-18
1.06261e-17
6.76231e-18
1.39255e-17
3.63936e-18
1.47082e-17
5.28711e-18
1.1817e-17
-1.88526e-18
8.32786e-18
-5.75359e-19
7.63381e-18
-4.26496e-18
7.04562e-18
-1.09495e-18
7.42835e-18
-4.4447e-18
7.09739e-18
-1.06397e-18
7.356e-18
-4.33348e-18
6.87904e-18
-1.11197e-18
7.37414e-18
-4.37062e-18
7.03565e-18
-1.17806e-18
7.42744e-18
-4.37755e-18
7.0939e-18
-1.00951e-18
7.35457e-18
-4.52202e-18
6.99836e-18
-9.93577e-19
7.45205e-18
-4.49558e-18
7.09549e-18
-9.2476e-19
7.51096e-18
-4.37972e-18
7.19413e-18
-1.12008e-18
7.40752e-18
-4.44267e-18
7.0335e-18
-9.08313e-19
7.4426e-18
-4.50879e-18
7.07671e-18
-1.1696e-18
7.35365e-18
-4.56605e-18
7.11592e-18
-1.00928e-18
7.35912e-18
-4.43896e-18
7.20578e-18
-9.30404e-19
7.48294e-18
-4.5036e-18
7.14081e-18
-9.49189e-19
7.38073e-18
-4.40271e-18
6.51102e-18
9.0653e-19
3.34715e-18
1.72798e-18
1.30334e-18
2.75785e-18
4.86302e-18
6.99141e-18
7.98392e-18
8.78077e-18
9.13092e-18
9.15978e-18
9.17715e-18
9.1826e-18
9.31213e-18
9.24795e-18
9.22499e-18
9.25731e-18
9.22377e-18
9.28583e-18
9.26271e-18
9.24993e-18
9.25761e-18
9.2779e-18
9.36253e-18
9.15878e-18
9.12536e-18
9.24732e-18
9.265e-18
9.25285e-18
9.25416e-18
9.25021e-18
9.36239e-18
9.30609e-18
9.38157e-18
9.22355e-18
9.33196e-18
9.38529e-18
9.31298e-18
9.24594e-18
9.4115e-18
9.26988e-18
9.23214e-18
9.3403e-18
9.211e-18
9.32029e-18
9.32576e-18
9.34992e-18
9.33341e-18
9.1909e-18
9.18658e-18
9.4331e-18
9.28776e-18
9.39769e-18
9.33492e-18
9.37678e-18
9.37828e-18
9.19931e-18
9.39767e-18
9.44816e-18
8.86234e-18
1.01572e-17
6.98341e-18
1.35232e-17
3.3378e-18
1.50644e-17
5.53638e-18
1.13287e-17
-2.3649e-18
8.30267e-18
-3.39658e-19
7.54045e-18
-4.71038e-18
7.28915e-18
-7.72361e-19
7.25032e-18
-4.6675e-18
7.33425e-18
-7.04717e-19
7.37027e-18
-4.77243e-18
7.23265e-18
-7.657e-19
7.14121e-18
2.46213e-17
2.45785e-17
2.42769e-17
2.54405e-17
2.36902e-17
2.70086e-17
1.99759e-17
3.37666e-17
1.28857e-17
4.00816e-17
2.8948e-18
2.61109e-17
-5.64829e-18
2.58135e-17
-8.66548e-18
1.79718e-17
-1.00755e-17
2.32143e-17
-9.34409e-18
1.75692e-17
-1.04437e-17
2.349e-17
-9.58517e-18
1.78186e-17
-1.00024e-17
2.29265e-17
-9.25652e-18
1.78095e-17
-1.01483e-17
2.34742e-17
-9.82466e-18
1.79225e-17
-1.01587e-17
2.36241e-17
-9.21519e-18
1.74918e-17
-1.04669e-17
2.3076e-17
-9.03116e-18
1.79274e-17
-1.04646e-17
2.37425e-17
-9.0129e-18
1.81602e-17
-1.0253e-17
2.39686e-17
-9.34629e-18
1.77637e-17
-1.03795e-17
2.33623e-17
-9.07676e-18
1.80162e-17
-1.03529e-17
2.35012e-17
-9.81357e-18
1.7693e-17
-1.05468e-17
2.37665e-17
-9.12089e-18
1.77004e-17
-1.01753e-17
2.34271e-17
-9.19366e-18
1.82593e-17
-1.03168e-17
2.36054e-17
-9.02364e-18
1.78658e-17
-9.83368e-18
2.19848e-17
-5.66946e-18
1.05445e-17
2.07068e-18
7.01132e-18
1.30892e-17
1.77515e-17
2.11546e-17
2.27222e-17
2.35097e-17
2.42879e-17
2.45928e-17
2.44972e-17
2.46596e-17
2.49175e-17
2.45964e-17
2.45415e-17
2.44732e-17
2.45626e-17
2.4811e-17
2.47892e-17
2.4541e-17
2.45944e-17
2.45866e-17
2.49949e-17
2.4263e-17
2.44331e-17
2.45615e-17
2.4795e-17
2.46505e-17
2.47462e-17
2.48049e-17
2.47902e-17
2.44969e-17
2.52959e-17
2.44436e-17
2.48292e-17
2.50434e-17
2.46944e-17
2.45396e-17
2.51059e-17
2.44715e-17
2.44528e-17
2.47948e-17
2.46488e-17
2.50438e-17
2.47185e-17
2.46142e-17
2.46874e-17
2.45288e-17
2.44533e-17
2.49101e-17
2.43793e-17
2.4979e-17
2.49893e-17
2.51011e-17
2.49629e-17
2.4388e-17
2.51725e-17
2.5039e-17
2.36278e-17
2.60675e-17
2.06524e-17
3.30847e-17
1.26734e-17
4.06106e-17
3.4591e-18
2.51321e-17
-6.26917e-18
2.58221e-17
-8.00108e-18
1.79569e-17
-1.0772e-17
2.40763e-17
-9.06954e-18
1.78097e-17
-1.05509e-17
2.40439e-17
-8.74309e-18
1.79395e-17
-1.06905e-17
2.35194e-17
-9.19713e-18
1.71912e-17
-1.0697e-17
9.34529e-18
9.17954e-18
9.10624e-18
9.79038e-18
8.08363e-18
1.21025e-17
3.87395e-18
1.79074e-17
-3.85061e-19
1.67427e-17
5.82239e-18
1.46405e-17
-4.37259e-18
9.57416e-18
-2.67862e-18
7.13825e-18
-9.62148e-18
6.57207e-18
-4.06636e-18
6.49004e-18
-9.93224e-18
6.50046e-18
-4.01512e-18
6.49763e-18
-9.83865e-18
6.38294e-18
-4.09708e-18
6.35283e-18
-9.92095e-18
6.52872e-18
-4.2218e-18
6.43757e-18
-9.85563e-18
6.57896e-18
-3.91115e-18
6.485e-18
-1.00654e-17
6.54567e-18
-3.93454e-18
6.47361e-18
-1.00933e-17
6.5855e-18
-3.87607e-18
6.56204e-18
-9.96987e-18
6.65885e-18
-4.05514e-18
6.44971e-18
-1.00539e-17
6.51845e-18
-3.81253e-18
6.42842e-18
-1.00735e-17
6.54864e-18
-4.09554e-18
6.40978e-18
-1.01076e-17
6.67214e-18
-3.92045e-18
6.32149e-18
-1.00078e-17
6.75303e-18
-3.88346e-18
6.44264e-18
-1.00825e-17
6.73035e-18
-3.79952e-18
6.28567e-18
-9.66089e-18
5.29426e-18
-6.05873e-19
4.8379e-19
-1.74769e-18
-1.40558e-18
1.27015e-18
4.25244e-18
6.79042e-18
7.9151e-18
8.7372e-18
9.08612e-18
9.11121e-18
9.12724e-18
9.13263e-18
9.26111e-18
9.19719e-18
9.17393e-18
9.20653e-18
9.17272e-18
9.23433e-18
9.2109e-18
9.19855e-18
9.20606e-18
9.22598e-18
9.31098e-18
9.10735e-18
9.07334e-18
9.19538e-18
9.21324e-18
9.20103e-18
9.20275e-18
9.19859e-18
9.31057e-18
9.25396e-18
9.32972e-18
9.17209e-18
9.27999e-18
9.33308e-18
9.26114e-18
9.1947e-18
9.36006e-18
9.21837e-18
9.18073e-18
9.28741e-18
9.15899e-18
9.26885e-18
9.27431e-18
9.29815e-18
9.28188e-18
9.13975e-18
9.13559e-18
9.38162e-18
9.23619e-18
9.34535e-18
9.28279e-18
9.32513e-18
9.32245e-18
9.16163e-18
9.29178e-18
9.57644e-18
8.28238e-18
1.14154e-17
4.28743e-18
1.7566e-17
-1.06346e-18
1.72745e-17
6.54989e-18
1.40327e-17
-5.30809e-18
9.64807e-18
-2.36935e-18
6.59071e-18
-1.03721e-17
6.97944e-18
-3.54668e-18
6.10518e-18
-1.03919e-17
7.08621e-18
-3.43924e-18
6.14457e-18
-1.04936e-17
6.89065e-18
-3.52918e-18
6.02992e-18
-1.0391e-17
2.73957e-18
2.72404e-18
2.55436e-18
3.29275e-18
1.23885e-18
6.24168e-18
-4.06421e-18
1.34393e-17
-1.06044e-17
1.74505e-17
-1.83098e-19
7.91308e-18
-7.07556e-18
6.89355e-18
-1.04549e-17
-1.05671e-18
-1.37089e-17
3.06963e-18
-1.23013e-17
-1.96876e-18
-1.40368e-17
2.77152e-18
-1.19279e-17
-1.76246e-18
-1.40547e-17
3.05637e-18
-1.24834e-17
-2.22216e-18
-1.42147e-17
3.04716e-18
-1.23211e-17
-2.17008e-18
-1.40741e-17
2.9169e-18
-1.18368e-17
-1.81695e-18
-1.41847e-17
3.07104e-18
-1.19224e-17
-2.03678e-18
-1.43208e-17
2.98966e-18
-1.22698e-17
-2.00533e-18
-1.42402e-17
3.00321e-18
-1.23626e-17
-2.0317e-18
-1.4301e-17
2.94711e-18
-1.2051e-17
-2.10053e-18
-1.42498e-17
2.92702e-18
-1.2271e-17
-2.01232e-18
-1.423e-17
3.21528e-18
-1.23902e-17
-2.30427e-18
-1.42805e-17
3.21543e-18
-1.24004e-17
-2.21664e-18
-1.43112e-17
3.27349e-18
-1.22505e-17
-2.2569e-18
-1.39562e-17
1.92043e-18
-9.20449e-18
-7.39924e-18
-6.93805e-18
-5.31649e-18
-2.76837e-18
-4.29348e-19
1.26162e-18
2.00247e-18
2.45846e-18
2.63106e-18
2.65412e-18
2.6777e-18
2.67985e-18
2.70885e-18
2.69368e-18
2.68273e-18
2.70695e-18
2.69758e-18
2.70571e-18
2.69779e-18
2.70279e-18
2.69266e-18
2.70941e-18
2.73468e-18
2.67428e-18
2.65314e-18
2.68912e-18
2.68863e-18
2.70324e-18
2.70338e-18
2.69347e-18
2.7438e-18
2.7249e-18
2.7305e-18
2.69768e-18
2.72854e-18
2.72584e-18
2.71873e-18
2.70509e-18
2.75214e-18
2.71756e-18
2.69525e-18
2.71525e-18
2.68664e-18
2.72684e-18
2.72823e-18
2.74398e-18
2.74031e-18
2.68588e-18
2.68924e-18
2.77814e-18
2.72838e-18
2.75511e-18
2.71973e-18
2.72067e-18
2.73067e-18
2.71668e-18
2.61052e-18
3.1238e-18
1.54374e-18
5.65242e-18
-3.61729e-18
1.33878e-17
-1.1336e-17
1.76564e-17
1.17252e-18
7.59773e-18
-8.12295e-18
7.16774e-18
-1.01672e-17
-1.99168e-18
-1.45235e-17
3.4813e-18
-1.18064e-17
-2.47987e-18
-1.46496e-17
3.63298e-18
-1.15331e-17
-2.59568e-18
-1.46764e-17
3.40691e-18
-1.16586e-17
-2.45626e-18
-1.45767e-17
3.59181e-18
1.15515e-19
1.67486e-19
-5.09892e-20
7.03717e-19
-1.39271e-18
3.58799e-18
-6.22012e-18
9.01676e-18
-8.30226e-18
4.07672e-18
1.50603e-18
6.72485e-18
-5.59703e-18
2.27604e-18
-4.01555e-18
-3.50198e-19
-1.17315e-17
-1.52972e-18
-6.05882e-18
-1.34403e-18
-1.21246e-17
-1.65239e-18
-6.04988e-18
-1.30814e-18
-1.21351e-17
-1.62045e-18
-6.09676e-18
-1.41946e-18
-1.2236e-17
-1.57238e-18
-6.07378e-18
-1.47566e-18
-1.22102e-17
-1.66723e-18
-5.92456e-18
-1.29307e-18
-1.21914e-17
-1.56218e-18
-5.98234e-18
-1.37272e-18
-1.22655e-17
-1.56596e-18
-5.97938e-18
-1.39607e-18
-1.22911e-17
-1.60387e-18
-5.99739e-18
-1.37302e-18
-1.23987e-17
-1.55463e-18
-5.92676e-18
-1.51905e-18
-1.23811e-17
-1.65476e-18
-5.93236e-18
-1.45654e-18
-1.23064e-17
-1.51085e-18
-5.96656e-18
-1.56206e-18
-1.2303e-17
-1.43875e-18
-5.91744e-18
-1.547e-18
-1.23739e-17
-1.39181e-18
-5.81406e-18
-1.58729e-18
-1.20014e-17
-2.63337e-18
-3.20767e-18
-5.73582e-18
-7.21209e-18
-6.11196e-18
-3.82966e-18
-1.87621e-18
-6.99306e-19
-2.20717e-19
6.792e-21
8.28047e-20
9.19537e-20
1.10842e-19
1.20749e-19
1.17603e-19
1.17381e-19
1.10716e-19
1.25434e-19
1.21924e-19
1.20704e-19
1.10288e-19
1.19975e-19
1.1423e-19
1.14232e-19
1.30153e-19
1.0558e-19
8.98459e-20
1.07413e-19
1.09901e-19
1.15483e-19
1.21954e-19
1.1587e-19
1.32494e-19
1.20531e-19
1.25811e-19
1.21741e-19
1.25447e-19
1.2189e-19
1.21996e-19
1.23084e-19
1.41944e-19
1.27853e-19
1.19325e-19
1.02206e-19
1.07865e-19
1.30858e-19
1.31868e-19
1.30664e-19
1.39605e-19
1.20712e-19
1.27974e-19
1.55698e-19
1.34543e-19
1.31011e-19
1.19267e-19
1.16567e-19
1.11684e-19
1.49448e-19
-1.42126e-20
5.5086e-19
-1.10672e-18
3.10684e-18
-5.86719e-18
9.1761e-18
-9.1504e-18
4.44482e-18
2.48509e-18
6.45594e-18
-6.46394e-18
2.53061e-18
-3.75042e-18
-1.18732e-18
-1.24929e-17
-1.09973e-18
-5.46112e-18
-1.83203e-18
-1.27445e-17
-9.97927e-19
-5.48842e-18
-1.98441e-18
-1.27764e-17
-1.1349e-18
-5.43247e-18
-1.86346e-18
-1.27133e-17
-1.09344e-18
-5.39759e-18
-2.39971e-18
-2.30438e-18
-2.57022e-18
-1.68792e-18
-4.13396e-18
1.64629e-18
-9.90808e-18
8.74366e-18
-1.50599e-17
1.06473e-17
-4.05843e-18
3.66379e-18
-9.25421e-18
2.85656e-18
-1.28635e-17
-5.47397e-18
-1.67229e-17
-1.66605e-18
-1.52962e-17
-6.64869e-18
-1.72731e-17
-1.68392e-18
-1.53664e-17
-6.73602e-18
-1.7273e-17
-1.79723e-18
-1.55745e-17
-6.64506e-18
-1.73378e-17
-1.75509e-18
-1.5091e-17
-6.77406e-18
-1.74037e-17
-1.92668e-18
-1.53565e-17
-6.61239e-18
-1.71973e-17
-1.81061e-18
-1.52575e-17
-6.54378e-18
-1.72263e-17
-1.65649e-18
-1.52927e-17
-6.74343e-18
-1.73425e-17
-1.70904e-18
-1.54438e-17
-6.65827e-18
-1.75239e-17
-1.57817e-18
-1.53391e-17
-6.88144e-18
-1.74974e-17
-1.81906e-18
-1.51089e-17
-6.78239e-18
-1.74225e-17
-1.60783e-18
-1.55695e-17
-6.94485e-18
-1.73955e-17
-1.55907e-18
-1.53261e-17
-6.89851e-18
-1.74927e-17
-1.60927e-18
-1.50312e-17
-6.97557e-18
-1.68282e-17
-3.19367e-18
-1.21335e-17
-1.17286e-17
-1.1479e-17
-8.90847e-18
-5.77456e-18
-3.64757e-18
-2.68151e-18
-2.4648e-18
-2.39014e-18
-2.38928e-18
-2.40914e-18
-2.36872e-18
-2.3513e-18
-2.38817e-18
-2.38307e-18
-2.39407e-18
-2.36955e-18
-2.36111e-18
-2.36405e-18
-2.41684e-18
-2.38875e-18
-2.37887e-18
-2.40519e-18
-2.36639e-18
-2.40048e-18
-2.44525e-18
-2.4015e-18
-2.38229e-18
-2.39414e-18
-2.37867e-18
-2.38743e-18
-2.3713e-18
-2.39404e-18
-2.38251e-18
-2.35904e-18
-2.38182e-18
-2.37043e-18
-2.38397e-18
-2.36777e-18
-2.3583e-18
-2.36289e-18
-2.37387e-18
-2.44469e-18
-2.4049e-18
-2.37557e-18
-2.37082e-18
-2.38483e-18
-2.33769e-18
-2.36841e-18
-2.34644e-18
-2.33044e-18
-2.34585e-18
-2.38157e-18
-2.39333e-18
-2.40623e-18
-2.41529e-18
-2.34011e-18
-2.56834e-18
-1.87899e-18
-3.86408e-18
1.15861e-18
-9.56459e-18
8.94693e-18
-1.60506e-17
1.11698e-17
-3.20912e-18
3.39644e-18
-1.00113e-17
3.09029e-18
-1.25553e-17
-6.26184e-18
-1.74396e-17
-1.20205e-18
-1.49842e-17
-7.12485e-18
-1.78203e-17
-1.0768e-18
-1.4912e-17
-7.42434e-18
-1.78942e-17
-1.24771e-18
-1.47597e-17
-7.28024e-18
-1.77734e-17
-1.30128e-18
-1.48411e-17
-7.25964e-18
-8.38737e-18
-8.23913e-18
-8.53221e-18
-7.50939e-18
-1.03235e-17
-4.08015e-18
-1.6227e-17
2.38303e-18
-1.81451e-17
-4.34965e-18
-5.2587e-18
7.09606e-19
-1.18705e-17
-4.63453e-18
-1.18405e-17
-8.85441e-18
-2.02345e-17
-9.89416e-18
-1.45916e-17
-9.96457e-18
-2.08101e-17
-1.01252e-17
-1.46737e-17
-9.89114e-18
-2.08e-17
-1.01812e-17
-1.47642e-17
-9.8786e-18
-2.07806e-17
-1.01658e-17
-1.45466e-17
-1.00703e-17
-2.09888e-17
-1.02235e-17
-1.45117e-17
-9.93677e-18
-2.06934e-17
-1.01985e-17
-1.44951e-17
-9.68717e-18
-2.0583e-17
-9.93743e-18
-1.44263e-17
-1.00047e-17
-2.07448e-17
-9.9525e-18
-1.45508e-17
-9.91778e-18
-2.09135e-17
-1.00516e-17
-1.44362e-17
-9.92651e-18
-2.07036e-17
-1.00255e-17
-1.44091e-17
-9.92694e-18
-2.08889e-17
-9.94323e-18
-1.45219e-17
-1.01679e-17
-2.08886e-17
-1.00203e-17
-1.44376e-17
-1.01195e-17
-2.0954e-17
-9.99799e-18
-1.41585e-17
-1.04221e-17
-1.96098e-17
-1.26777e-17
-9.60798e-18
-1.57678e-17
-1.56888e-17
-1.28673e-17
-9.86365e-18
-8.16929e-18
-7.72684e-18
-8.12793e-18
-8.27732e-18
-8.3858e-18
-8.43994e-18
-8.25914e-18
-8.31157e-18
-8.43804e-18
-8.43125e-18
-8.44912e-18
-8.36115e-18
-8.3031e-18
-8.29929e-18
-8.49792e-18
-8.46078e-18
-8.34296e-18
-8.46965e-18
-8.32429e-18
-8.41621e-18
-8.5536e-18
-8.42716e-18
-8.34044e-18
-8.41925e-18
-8.38476e-18
-8.43836e-18
-8.38146e-18
-8.41331e-18
-8.41924e-18
-8.26976e-18
-8.36593e-18
-8.29723e-18
-8.37111e-18
-8.3515e-18
-8.39924e-18
-8.29466e-18
-8.35121e-18
-8.5456e-18
-8.41439e-18
-8.37945e-18
-8.4283e-18
-8.38906e-18
-8.24881e-18
-8.39354e-18
-8.31984e-18
-8.29307e-18
-8.25881e-18
-8.36289e-18
-8.42046e-18
-8.49481e-18
-8.42434e-18
-8.33215e-18
-8.64167e-18
-7.84456e-18
-1.00923e-17
-4.50904e-18
-1.59626e-17
2.72135e-18
-1.94208e-17
-4.07576e-18
-4.25783e-18
6.02575e-19
-1.28075e-17
-4.67868e-18
-1.16096e-17
-9.383e-18
-2.09607e-17
-9.66412e-18
-1.38813e-17
-1.01842e-17
-2.12312e-17
-9.70462e-18
-1.39722e-17
-1.0446e-17
-2.13716e-17
-9.66031e-18
-1.397e-17
-1.05659e-17
-2.13352e-17
-9.78019e-18
-1.40423e-17
-1.04801e-17
-2.18003e-17
-2.14452e-17
-2.17993e-17
-2.04667e-17
-2.38561e-17
-1.69303e-17
-3.14107e-17
-6.92979e-18
-3.98631e-17
7.55339e-20
-1.81595e-17
-1.09074e-17
-2.72186e-17
-1.46075e-17
-3.397e-17
-2.59743e-17
-3.8506e-17
-2.11433e-17
-3.69598e-17
-2.65565e-17
-3.90235e-17
-2.14749e-17
-3.72059e-17
-2.65988e-17
-3.90003e-17
-2.17552e-17
-3.72403e-17
-2.63884e-17
-3.88984e-17
-2.13045e-17
-3.69757e-17
-2.6807e-17
-3.90886e-17
-2.16372e-17
-3.69214e-17
-2.67554e-17
-3.85494e-17
-2.14266e-17
-3.68863e-17
-2.63594e-17
-3.82141e-17
-2.10598e-17
-3.65517e-17
-2.67001e-17
-3.85044e-17
-2.11708e-17
-3.69996e-17
-2.64826e-17
-3.85976e-17
-2.17841e-17
-3.64026e-17
-2.67224e-17
-3.82871e-17
-2.11158e-17
-3.6381e-17
-2.64146e-17
-3.88369e-17
-2.12286e-17
-3.63252e-17
-2.70567e-17
-3.89135e-17
-2.1606e-17
-3.68096e-17
-2.67853e-17
-3.86974e-17
-2.13119e-17
-3.62775e-17
-2.68541e-17
-3.67697e-17
-2.52746e-17
-2.90072e-17
-3.77777e-17
-2.4512e-17
-2.34135e-17
-2.19779e-17
-2.06058e-17
-2.04059e-17
-2.1298e-17
-2.17125e-17
-2.19987e-17
-2.19371e-17
-2.12626e-17
-2.16567e-17
-2.19279e-17
-2.20285e-17
-2.20841e-17
-2.15312e-17
-2.15221e-17
-2.14398e-17
-2.19218e-17
-2.20383e-17
-2.13782e-17
-2.19943e-17
-2.15082e-17
-2.19588e-17
-2.19894e-17
-2.17034e-17
-2.16442e-17
-2.18801e-17
-2.16335e-17
-2.19629e-17
-2.1868e-17
-2.18207e-17
-2.21084e-17
-2.13298e-17
-2.15744e-17
-2.14758e-17
-2.14586e-17
-2.17044e-17
-2.23249e-17
-2.1257e-17
-2.16887e-17
-2.20203e-17
-2.17685e-17
-2.15032e-17
-2.20736e-17
-2.17111e-17
-2.14387e-17
-2.17468e-17
-2.16012e-17
-2.16622e-17
-2.13643e-17
-2.15374e-17
-2.16085e-17
-2.20932e-17
-2.16761e-17
-2.18533e-17
-2.18802e-17
-2.12083e-17
-2.3865e-17
-1.70939e-17
-3.10154e-17
-6.47028e-18
-4.18758e-17
6.04794e-19
-1.75519e-17
-1.12513e-17
-2.86173e-17
-1.52701e-17
-3.33476e-17
-2.60307e-17
-3.88736e-17
-2.12248e-17
-3.56873e-17
-2.6637e-17
-3.92871e-17
-2.13512e-17
-3.5856e-17
-2.67994e-17
-3.95466e-17
-2.13511e-17
-3.62646e-17
-2.72449e-17
-3.93639e-17
-2.12429e-17
-3.62686e-17
-2.72421e-17
-3.92051e-17
3.85628e-20
2.14658e-19
-1.90924e-19
7.20747e-19
-1.71085e-18
3.65391e-18
-7.06334e-18
1.06294e-17
-1.10536e-17
7.35933e-18
-1.80488e-18
8.27586e-18
-1.104e-17
2.18594e-18
-1.11346e-17
-2.10346e-18
-1.90368e-17
-2.54787e-18
-1.33696e-17
-2.81161e-18
-1.95426e-17
-2.96921e-18
-1.34773e-17
-2.63997e-18
-1.94464e-17
-2.87562e-18
-1.36284e-17
-2.64241e-18
-1.9453e-17
-2.70737e-18
-1.33111e-17
-2.96223e-18
-1.96935e-17
-2.94652e-18
-1.33275e-17
-2.85034e-18
-1.93453e-17
-2.92373e-18
-1.34884e-17
-2.55828e-18
-1.92075e-17
-2.59576e-18
-1.33365e-17
-2.86085e-18
-1.94679e-17
-2.45375e-18
-1.32593e-17
-2.86956e-18
-1.94922e-17
-2.78562e-18
-1.33538e-17
-2.63403e-18
-1.90743e-17
-2.48751e-18
-1.32593e-17
-2.67137e-18
-1.95981e-17
-2.4716e-18
-1.31533e-17
-3.00737e-18
-1.95925e-17
-2.73267e-18
-1.32972e-17
-2.96249e-18
-1.94925e-17
-2.65671e-18
-1.29717e-17
-3.40683e-18
-1.79776e-17
-5.61392e-18
-7.57559e-18
-1.03058e-17
-1.1264e-17
-9.06487e-18
-5.44505e-18
-2.64743e-18
-7.44702e-19
-3.44672e-19
-1.84933e-19
-1.90526e-19
-1.00646e-19
-2.36457e-20
9.80012e-21
-1.89878e-19
6.92369e-21
-4.16801e-20
-3.21405e-20
-2.93829e-22
3.60981e-20
-1.41342e-19
-1.42823e-19
-8.03956e-20
-1.58584e-19
1.07844e-19
5.06052e-21
-2.7502e-19
4.168e-20
-2.49153e-20
-2.79639e-20
2.01047e-22
-1.28521e-19
4.18095e-20
-1.99945e-19
-3.21423e-20
2.00356e-19
-5.35057e-20
-4.06953e-20
4.54148e-20
1.32403e-19
-4.52289e-20
3.16734e-20
-2.43089e-20
-1.27904e-19
-9.09749e-20
-2.46836e-20
4.18156e-21
9.60619e-20
2.13811e-20
5.86325e-20
-3.36908e-20
-1.57851e-19
2.16254e-19
8.3258e-20
-2.2558e-19
-1.10453e-19
-1.02016e-19
8.65321e-20
-2.08426e-19
3.68257e-19
-1.36382e-18
3.33668e-18
-6.78527e-18
1.05633e-17
-1.20865e-17
7.79944e-18
-9.83252e-19
7.8198e-18
-1.22079e-17
2.01801e-18
-1.09485e-17
-2.47028e-18
-1.96673e-17
-2.29882e-18
-1.26406e-17
-2.99715e-18
-1.98485e-17
-2.44531e-18
-1.28222e-17
-3.21525e-18
-1.99528e-17
-2.40808e-18
-1.28241e-17
-3.33105e-18
-1.99662e-17
-2.35767e-18
-1.28687e-17
-3.2389e-18
-1.99325e-17
-2.27877e-18
2.15383e-17
2.12837e-17
2.10682e-17
2.17307e-17
2.00206e-17
2.39777e-17
1.55487e-17
3.10298e-17
9.00596e-18
3.64794e-17
-3.74975e-19
2.42535e-17
-7.74041e-18
2.34119e-17
-1.16536e-17
1.49499e-17
-1.39916e-17
2.01794e-17
-1.27283e-17
1.48354e-17
-1.43813e-17
1.91352e-17
-1.31553e-17
1.47153e-17
-1.42211e-17
1.97961e-17
-1.34258e-17
1.47687e-17
-1.43709e-17
2.00462e-17
-1.28779e-17
1.41739e-17
-1.45273e-17
1.96477e-17
-1.2889e-17
1.40454e-17
-1.41662e-17
1.963e-17
-1.3281e-17
1.46946e-17
-1.41541e-17
2.02219e-17
-1.32312e-17
1.44322e-17
-1.4471e-17
1.98687e-17
-1.28047e-17
1.45768e-17
-1.43084e-17
1.97555e-17
-1.32846e-17
1.4732e-17
-1.39273e-17
2.02236e-17
-1.30707e-17
1.46046e-17