/*--------------------------------*- C++ -*----------------------------------*\
| =========                 |                                                 |
| \\      /  F ield         | OpenFOAM: The Open Source CFD Toolbox           |
|  \\    /   O peration     | Version:  2512                                  |
|   \\  /    A nd           | Website:  www.openfoam.com                      |
|    \\/     M anipulation  |                                                 |
\*---------------------------------------------------------------------------*/
FoamFile
{
    version     2.0;
    format      ascii;
    arch        "LSB;label=32;scalar=64";
    class       volVectorField;
    location    "0.1";
    object      B;
}
// * * * * * * * * * * * * * * * * * * * * * * * * * * * * * * * * * * * * * //

dimensions      [1 0 -2 0 0 -1 0];

internalField   nonuniform List<vector> 
8333
(
(0.000223417 20 -5.93185e-20)
(0.000223377 20 -4.94476e-20)
(0.000223339 20 -5.67528e-20)
(0.000223303 20 -4.2754e-20)
(0.000223267 20 -4.70892e-20)
(0.00022323 20 -4.0181e-20)
(0.000223192 20 -4.26869e-20)
(0.000223155 20 -3.90186e-20)
(0.000223117 20 -5.55501e-20)
(0.000223079 20 -4.56341e-20)
(0.000223042 20 -5.34275e-20)
(0.000223004 20 -3.97649e-20)
(0.000222965 20 -4.47332e-20)
(0.000222927 20 -3.81386e-20)
(0.000222889 20 -4.08052e-20)
(0.00022285 20 -3.76034e-20)
(0.000222811 20 -5.38305e-20)
(0.000222772 20 -4.56352e-20)
(0.000222733 20 -4.89645e-20)
(0.000222694 20 -4.43854e-20)
(0.000222655 20 -3.38493e-20)
(0.000222615 20 -4.65035e-20)
(0.000222576 20 -3.64103e-20)
(0.000222536 20 -4.59407e-20)
(0.000222496 20 -3.46536e-20)
(0.000222456 20 -4.16484e-20)
(0.000222416 20 -3.62174e-20)
(0.000222375 20 -3.97727e-20)
(0.000222335 20 -3.72168e-20)
(0.000222294 20 -5.44471e-20)
(0.000222253 20 -4.49785e-20)
(0.000222212 20 -5.28653e-20)
(0.000222171 20 -3.92354e-20)
(0.00022213 20 -4.42038e-20)
(0.000222088 20 -3.77677e-20)
(0.000222047 20 -4.05887e-20)
(0.000222005 20 -3.74009e-20)
(0.000221963 20 -5.43453e-20)
(0.000221921 20 -4.42797e-20)
(0.000221879 20 -5.19892e-20)
(0.000221837 20 -3.86022e-20)
(0.000221794 20 -4.36993e-20)
(0.000221752 20 -3.70375e-20)
(0.000221709 20 -3.98e-20)
(0.000221666 20 -3.6834e-20)
(0.000221623 20 -5.377e-20)
(0.00022158 20 -4.41758e-20)
(0.000221537 20 -5.19227e-20)
(0.000221493 20 -3.80726e-20)
(0.00022145 20 -4.32282e-20)
(0.000221406 20 -3.6651e-20)
(0.000221362 20 -3.93915e-20)
(0.000221318 20 -3.65013e-20)
(0.000221274 20 -5.35156e-20)
(0.00022123 20 -4.39076e-20)
(0.000221185 20 -5.16322e-20)
(0.000221141 20 -3.80512e-20)
(0.000221096 20 -4.33615e-20)
(0.000221051 20 -3.6824e-20)
(0.000221006 20 -3.96097e-20)
(0.000220961 20 -3.67061e-20)
(0.000220916 20 -5.38814e-20)
(0.000220871 20 -4.39755e-20)
(0.000220825 20 -5.17936e-20)
(0.000220779 20 -3.81814e-20)
(0.000220734 20 -4.33239e-20)
(0.000220688 20 -3.6816e-20)
(0.000220642 20 -3.96531e-20)
(0.000220595 20 -3.70294e-20)
(0.000220549 20 -5.41552e-20)
(0.000220503 20 -4.4219e-20)
(0.000220456 20 -5.19184e-20)
(0.000220409 20 -3.80769e-20)
(0.000220362 20 -4.35008e-20)
(0.000220315 20 -3.69209e-20)
(0.000220268 20 -3.95264e-20)
(0.000220221 20 -3.67618e-20)
(0.000220174 20 -5.42083e-20)
(0.000220126 20 -4.41268e-20)
(0.000220078 20 -5.16733e-20)
(0.00022003 20 -3.80124e-20)
(0.000219983 20 -4.34993e-20)
(0.000219934 20 -3.70278e-20)
(0.000219886 20 -3.97211e-20)
(0.000219838 20 -3.69508e-20)
(0.00021979 20 -5.41133e-20)
(0.000219741 20 -4.40816e-20)
(0.000219692 20 -5.16331e-20)
(0.000219643 20 -3.78724e-20)
(0.000219594 20 -4.33284e-20)
(0.000219545 20 -3.66505e-20)
(0.000219496 20 -3.94289e-20)
(0.000219447 20 -3.70273e-20)
(0.000219397 20 -5.42794e-20)
(0.000219348 20 -4.42663e-20)
(0.000219298 20 -5.16626e-20)
(0.000219248 20 -3.78771e-20)
(0.000219198 20 -4.33256e-20)
(0.000219148 20 -3.68652e-20)
(0.000219098 20 -3.96001e-20)
(0.000219047 20 -3.72389e-20)
(0.000218997 20 -5.4538e-20)
(0.000218946 20 -4.44021e-20)
(0.000218896 20 -5.20761e-20)
(0.000218845 20 -3.81896e-20)
(0.000218794 20 -4.36263e-20)
(0.000218743 20 -3.70809e-20)
(0.000218692 20 -3.97306e-20)
(0.00021864 20 -3.73637e-20)
(0.000218589 20 -5.46552e-20)
(0.000218537 20 -4.46895e-20)
(0.000218486 20 -5.1852e-20)
(0.000218434 20 -3.80095e-20)
(0.000218382 20 -4.34605e-20)
(0.00021833 20 -3.71301e-20)
(0.000218278 20 -3.98446e-20)
(0.000218225 20 -3.73226e-20)
(0.000218173 20 -5.47237e-20)
(0.00021812 20 -4.43929e-20)
(0.000218068 20 -5.19239e-20)
(0.000218015 20 -3.7837e-20)
(0.000217962 20 -4.33023e-20)
(0.000217909 20 -3.69744e-20)
(0.000217856 20 -3.96108e-20)
(0.000217803 20 -3.72359e-20)
(0.00021775 20 -5.43823e-20)
(0.000217697 20 -4.45034e-20)
(0.000217643 20 -5.17226e-20)
(0.000217589 20 -3.78298e-20)
(0.000217536 20 -4.34847e-20)
(0.000217482 20 -3.70769e-20)
(0.000217428 20 -3.95404e-20)
(0.000217374 20 -3.72292e-20)
(0.00021732 20 -5.46248e-20)
(0.000217266 20 -4.44858e-20)
(0.000217211 20 -5.19249e-20)
(0.000217157 20 -3.78155e-20)
(0.000217102 20 -4.33684e-20)
(0.000217048 20 -3.70275e-20)
(0.000216993 20 -3.95265e-20)
(0.000216938 20 -3.74476e-20)
(0.000216883 20 -5.43337e-20)
(0.000216828 20 -4.5266e-20)
(0.000216774 20 -4.86927e-20)
(0.000216719 20 -4.31297e-20)
(0.000216665 20 -3.29441e-20)
(0.000216608 20 -4.63638e-20)
(0.000216561 20 -3.62808e-20)
(0.0002165 20 -4.58082e-20)
(0.000386229 20 -1.78558e-19)
(0.000386114 20 -1.49985e-19)
(0.000386 20 -1.70465e-19)
(0.00038589 20 -1.31918e-19)
(0.000385782 20 -1.44869e-19)
(0.000385674 20 -1.24456e-19)
(0.000385566 20 -1.32575e-19)
(0.000385458 20 -1.24334e-19)
(0.00038535 20 -1.67204e-19)
(0.000385242 20 -1.3863e-19)
(0.000385133 20 -1.60639e-19)
(0.000385025 20 -1.23187e-19)
(0.000384916 20 -1.37976e-19)
(0.000384807 20 -1.18438e-19)
(0.000384698 20 -1.27118e-19)
(0.000384589 20 -1.20154e-19)
(0.00038448 20 -1.62287e-19)
(0.000384371 20 -1.38212e-19)
(0.000384261 20 -1.48769e-19)
(0.000384152 20 -1.34065e-19)
(0.000384042 20 -1.08891e-19)
(0.000383932 20 -1.42032e-19)
(0.000383822 20 -1.12978e-19)
(0.000383712 20 -1.39478e-19)
(0.000383601 20 -1.08547e-19)
(0.000383491 20 -1.29068e-19)
(0.00038338 20 -1.12903e-19)
(0.000383269 20 -1.2414e-19)
(0.000383158 20 -1.19103e-19)
(0.000383047 20 -1.63963e-19)
(0.000382936 20 -1.36706e-19)
(0.000382825 20 -1.59007e-19)
(0.000382713 20 -1.21683e-19)
(0.000382602 20 -1.3645e-19)
(0.00038249 20 -1.17314e-19)
(0.000382378 20 -1.26429e-19)
(0.000382266 20 -1.19535e-19)
(0.000382154 20 -1.63513e-19)
(0.000382041 20 -1.34721e-19)
(0.000381929 20 -1.56375e-19)
(0.000381816 20 -1.19709e-19)
(0.000381703 20 -1.34927e-19)
(0.00038159 20 -1.15255e-19)
(0.000381477 20 -1.24215e-19)
(0.000381364 20 -1.17944e-19)
(0.000381251 20 -1.61866e-19)
(0.000381137 20 -1.34344e-19)
(0.000381024 20 -1.56181e-19)
(0.00038091 20 -1.18228e-19)
(0.000380796 20 -1.33501e-19)
(0.000380682 20 -1.14087e-19)
(0.000380568 20 -1.23049e-19)
(0.000380453 20 -1.16922e-19)
(0.000380339 20 -1.61075e-19)
(0.000380224 20 -1.33477e-19)
(0.00038011 20 -1.55371e-19)
(0.000379995 20 -1.18107e-19)
(0.00037988 20 -1.33904e-19)
(0.000379765 20 -1.14571e-19)
(0.00037965 20 -1.23595e-19)
(0.000379534 20 -1.17435e-19)
(0.000379419 20 -1.62015e-19)
(0.000379303 20 -1.33755e-19)
(0.000379187 20 -1.55831e-19)
(0.000379071 20 -1.18515e-19)
(0.000378955 20 -1.33918e-19)
(0.000378839 20 -1.14752e-19)
(0.000378723 20 -1.23846e-19)
(0.000378606 20 -1.18398e-19)
(0.00037849 20 -1.62868e-19)
(0.000378373 20 -1.34364e-19)
(0.000378256 20 -1.56209e-19)
(0.000378139 20 -1.18298e-19)
(0.000378022 20 -1.34329e-19)
(0.000377905 20 -1.14904e-19)
(0.000377787 20 -1.23445e-19)
(0.00037767 20 -1.17625e-19)
(0.000377552 20 -1.63053e-19)
(0.000377434 20 -1.34135e-19)
(0.000377317 20 -1.55606e-19)
(0.000377199 20 -1.18192e-19)
(0.00037708 20 -1.34326e-19)
(0.000376962 20 -1.1517e-19)
(0.000376844 20 -1.23962e-19)
(0.000376725 20 -1.18182e-19)
(0.000376607 20 -1.62703e-19)
(0.000376488 20 -1.33938e-19)
(0.000376369 20 -1.55445e-19)
(0.00037625 20 -1.17786e-19)
(0.000376131 20 -1.3391e-19)
(0.000376011 20 -1.14111e-19)
(0.000375892 20 -1.23176e-19)
(0.000375773 20 -1.18351e-19)
(0.000375653 20 -1.63206e-19)
(0.000375533 20 -1.34519e-19)
(0.000375413 20 -1.55512e-19)
(0.000375293 20 -1.17775e-19)
(0.000375173 20 -1.33832e-19)
(0.000375053 20 -1.14687e-19)
(0.000374932 20 -1.2363e-19)
(0.000374812 20 -1.18898e-19)
(0.000374691 20 -1.63911e-19)
(0.00037457 20 -1.34919e-19)
(0.00037445 20 -1.56723e-19)
(0.000374329 20 -1.18712e-19)
(0.000374207 20 -1.34731e-19)
(0.000374086 20 -1.15391e-19)
(0.000373965 20 -1.24108e-19)
(0.000373843 20 -1.19326e-19)
(0.000373722 20 -1.64226e-19)
(0.0003736 20 -1.35783e-19)
(0.000373478 20 -1.56157e-19)
(0.000373356 20 -1.18204e-19)
(0.000373234 20 -1.34153e-19)
(0.000373112 20 -1.15389e-19)
(0.00037299 20 -1.24347e-19)
(0.000372867 20 -1.19149e-19)
(0.000372745 20 -1.64384e-19)
(0.000372622 20 -1.34927e-19)
(0.0003725 20 -1.56331e-19)
(0.000372377 20 -1.17732e-19)
(0.000372254 20 -1.33878e-19)
(0.000372131 20 -1.1517e-19)
(0.000372008 20 -1.23779e-19)
(0.000371884 20 -1.18894e-19)
(0.000371761 20 -1.63367e-19)
(0.000371637 20 -1.35142e-19)
(0.000371514 20 -1.55737e-19)
(0.00037139 20 -1.17804e-19)
(0.000371266 20 -1.34185e-19)
(0.000371142 20 -1.15231e-19)
(0.000371018 20 -1.23531e-19)
(0.000370894 20 -1.18895e-19)
(0.00037077 20 -1.64104e-19)
(0.000370645 20 -1.35203e-19)
(0.000370521 20 -1.56354e-19)
(0.000370396 20 -1.17688e-19)
(0.000370271 20 -1.33971e-19)
(0.000370146 20 -1.15261e-19)
(0.000370021 20 -1.23539e-19)
(0.000369896 20 -1.19477e-19)
(0.000369771 20 -1.63299e-19)
(0.000369645 20 -1.37078e-19)
(0.000369519 20 -1.47884e-19)
(0.000369393 20 -1.30917e-19)
(0.000369267 20 -1.06346e-19)
(0.000369141 20 -1.41438e-19)
(0.000369014 20 -1.12477e-19)
(0.000368889 20 -1.39138e-19)
(0.000368774 20 -1.06702e-19)
(0.000433344 20 -3.02214e-19)
(0.000433189 20 -2.59531e-19)
(0.000433033 20 -2.88575e-19)
(0.000432881 20 -2.3412e-19)
(0.000432732 20 -2.54179e-19)
(0.000432583 20 -2.22404e-19)
(0.000432434 20 -2.36141e-19)
(0.000432286 20 -2.28482e-19)
(0.000432138 20 -2.82874e-19)
(0.000431989 20 -2.40724e-19)
(0.00043184 20 -2.72581e-19)
(0.000431692 20 -2.20074e-19)
(0.000431543 20 -2.43069e-19)
(0.000431394 20 -2.12676e-19)
(0.000431244 20 -2.27519e-19)
(0.000431095 20 -2.21638e-19)
(0.000430946 20 -2.75336e-19)
(0.000430796 20 -2.38684e-19)
(0.000430646 20 -2.56622e-19)
(0.000430497 20 -2.30788e-19)
(0.000430347 20 -2.03677e-19)
(0.000430197 20 -2.45669e-19)
(0.000430046 20 -2.02479e-19)
(0.000429896 20 -2.40328e-19)
(0.000429746 20 -1.9724e-19)
(0.000429595 20 -2.28872e-19)
(0.000429444 20 -2.03934e-19)
(0.000429293 20 -2.22889e-19)
(0.000429142 20 -2.20232e-19)
(0.000428991 20 -2.77685e-19)
(0.00042884 20 -2.3752e-19)
(0.000428688 20 -2.699e-19)
(0.000428536 20 -2.17634e-19)
(0.000428385 20 -2.40724e-19)
(0.000428233 20 -2.10786e-19)
(0.000428081 20 -2.2618e-19)
(0.000427929 20 -2.20591e-19)
(0.000427776 20 -2.76466e-19)
(0.000427624 20 -2.34314e-19)
(0.000427471 20 -2.65657e-19)
(0.000427318 20 -2.14293e-19)
(0.000427166 20 -2.37976e-19)
(0.000427013 20 -2.07566e-19)
(0.000426859 20 -2.22865e-19)
(0.000426706 20 -2.18106e-19)
(0.000426553 20 -2.74004e-19)
(0.000426399 20 -2.33567e-19)
(0.000426246 20 -2.64983e-19)
(0.000426092 20 -2.12026e-19)
(0.000425938 20 -2.3568e-19)
(0.000425784 20 -2.05466e-19)
(0.00042563 20 -2.21048e-19)
(0.000425475 20 -2.1645e-19)
(0.000425321 20 -2.7267e-19)
(0.000425166 20 -2.31992e-19)
(0.000425011 20 -2.63958e-19)
(0.000424856 20 -2.11694e-19)
(0.000424701 20 -2.3624e-19)
(0.000424546 20 -2.06311e-19)
(0.000424391 20 -2.21742e-19)
(0.000424236 20 -2.17091e-19)
(0.00042408 20 -2.73744e-19)
(0.000423924 20 -2.32586e-19)
(0.000423769 20 -2.64644e-19)
(0.000423613 20 -2.12452e-19)
(0.000423457 20 -2.36601e-19)
(0.0004233 20 -2.07158e-19)
(0.000423144 20 -2.22542e-19)
(0.000422988 20 -2.18746e-19)
(0.000422831 20 -2.75334e-19)
(0.000422674 20 -2.33423e-19)
(0.000422517 20 -2.65275e-19)
(0.00042236 20 -2.12289e-19)
(0.000422203 20 -2.37011e-19)
(0.000422046 20 -2.07004e-19)
(0.000421889 20 -2.21768e-19)
(0.000421731 20 -2.17547e-19)
(0.000421574 20 -2.75601e-19)
(0.000421416 20 -2.33253e-19)
(0.000421258 20 -2.64756e-19)
(0.0004211 20 -2.12461e-19)
(0.000420942 20 -2.3715e-19)
(0.000420784 20 -2.07294e-19)
(0.000420625 20 -2.22406e-19)
(0.000420467 20 -2.18342e-19)
(0.000420308 20 -2.74945e-19)
(0.00042015 20 -2.32641e-19)
(0.000419991 20 -2.64196e-19)
(0.000419832 20 -2.11661e-19)
(0.000419673 20 -2.36525e-19)
(0.000419513 20 -2.05794e-19)
(0.000419354 20 -2.21443e-19)
(0.000419195 20 -2.18598e-19)
(0.000419035 20 -2.75738e-19)
(0.000418875 20 -2.33697e-19)
(0.000418716 20 -2.64278e-19)
(0.000418556 20 -2.11554e-19)
(0.000418395 20 -2.36332e-19)
(0.000418235 20 -2.06556e-19)
(0.000418075 20 -2.21995e-19)
(0.000417915 20 -2.19296e-19)
(0.000417754 20 -2.76748e-19)
(0.000417593 20 -2.34381e-19)
(0.000417432 20 -2.66204e-19)
(0.000417272 20 -2.13233e-19)
(0.000417111 20 -2.37885e-19)
(0.000416949 20 -2.07949e-19)
(0.000416788 20 -2.23029e-19)
(0.000416627 20 -2.2019e-19)
(0.000416465 20 -2.77256e-19)
(0.000416304 20 -2.35645e-19)
(0.000416142 20 -2.65554e-19)
(0.00041598 20 -2.12444e-19)
(0.000415818 20 -2.36799e-19)
(0.000415656 20 -2.0737e-19)
(0.000415494 20 -2.22949e-19)
(0.000415331 20 -2.19616e-19)
(0.000415169 20 -2.77264e-19)
(0.000415006 20 -2.34475e-19)
(0.000414844 20 -2.65717e-19)
(0.000414681 20 -2.11825e-19)
(0.000414518 20 -2.36864e-19)
(0.000414355 20 -2.07791e-19)
(0.000414192 20 -2.22533e-19)
(0.000414029 20 -2.1924e-19)
(0.000413865 20 -2.75768e-19)
(0.000413702 20 -2.3437e-19)
(0.000413539 20 -2.64602e-19)
(0.000413375 20 -2.11891e-19)
(0.000413211 20 -2.36639e-19)
(0.000413047 20 -2.07131e-19)
(0.000412883 20 -2.21889e-19)
(0.000412719 20 -2.19313e-19)
(0.000412555 20 -2.76926e-19)
(0.00041239 20 -2.3484e-19)
(0.000412226 20 -2.65743e-19)
(0.000412061 20 -2.11759e-19)
(0.000411896 20 -2.36722e-19)
(0.000411731 20 -2.07724e-19)
(0.000411565 20 -2.22127e-19)
(0.000411399 20 -2.20113e-19)
(0.000411233 20 -2.75895e-19)
(0.000411067 20 -2.36628e-19)
(0.000410899 20 -2.54805e-19)
(0.000410733 20 -2.26728e-19)
(0.000410563 20 -1.99838e-19)
(0.000410398 20 -2.4428e-19)
(0.000410222 20 -2.0148e-19)
(0.000410065 20 -2.39768e-19)
(0.000409898 20 -1.94834e-19)
(0.000439186 20 -4.21559e-19)
(0.000439019 20 -4.10873e-19)
(0.000438851 20 -4.13167e-19)
(0.000438687 20 -3.87431e-19)
(0.000438524 20 -3.82436e-19)
(0.000438362 20 -3.69212e-19)
(0.0004382 20 -3.70202e-19)
(0.000438038 20 -3.67059e-19)
(0.000437877 20 -3.931e-19)
(0.000437715 20 -3.85767e-19)
(0.000437554 20 -3.92041e-19)
(0.000437392 20 -3.6951e-19)
(0.00043723 20 -3.67403e-19)
(0.000437068 20 -3.56505e-19)
(0.000436906 20 -3.59279e-19)
(0.000436744 20 -3.57679e-19)
(0.000436582 20 -3.8422e-19)
(0.00043642 20 -3.78935e-19)
(0.000436257 20 -3.77803e-19)
(0.000436094 20 -3.6661e-19)
(0.000435932 20 -3.43509e-19)
(0.000435769 20 -3.53189e-19)
(0.000435606 20 -3.40419e-19)
(0.000435443 20 -3.52172e-19)
(0.000435279 20 -3.39849e-19)
(0.000435116 20 -3.4819e-19)
(0.000434952 20 -3.44834e-19)
(0.000434789 20 -3.53458e-19)
(0.000434625 20 -3.56436e-19)
(0.000434461 20 -3.86573e-19)
(0.000434297 20 -3.81016e-19)
(0.000434132 20 -3.88111e-19)
(0.000433968 20 -3.65999e-19)
(0.000433803 20 -3.64582e-19)
(0.000433639 20 -3.54019e-19)
(0.000433474 20 -3.5682e-19)
(0.000433309 20 -3.56163e-19)
(0.000433144 20 -3.8379e-19)
(0.000432979 20 -3.76468e-19)
(0.000432813 20 -3.82714e-19)
(0.000432648 20 -3.6069e-19)
(0.000432482 20 -3.59968e-19)
(0.000432317 20 -3.4987e-19)
(0.000432151 20 -3.53104e-19)
(0.000431985 20 -3.52813e-19)
(0.000431819 20 -3.81223e-19)
(0.000431652 20 -3.73962e-19)
(0.000431486 20 -3.80217e-19)
(0.00043132 20 -3.58405e-19)
(0.000431153 20 -3.57439e-19)
(0.000430986 20 -3.46824e-19)
(0.000430819 20 -3.50547e-19)
(0.000430652 20 -3.50628e-19)
(0.000430485 20 -3.7924e-19)
(0.000430318 20 -3.7268e-19)
(0.00043015 20 -3.79894e-19)
(0.000429983 20 -3.5824e-19)
(0.000429815 20 -3.57663e-19)
(0.000429647 20 -3.47787e-19)
(0.000429479 20 -3.51287e-19)
(0.000429311 20 -3.5128e-19)
(0.000429143 20 -3.79727e-19)
(0.000428974 20 -3.73399e-19)
(0.000428806 20 -3.8062e-19)
(0.000428637 20 -3.59195e-19)
(0.000428469 20 -3.58854e-19)
(0.0004283 20 -3.49678e-19)
(0.000428131 20 -3.53162e-19)
(0.000427962 20 -3.53691e-19)
(0.000427793 20 -3.82204e-19)
(0.000427623 20 -3.75595e-19)
(0.000427454 20 -3.81732e-19)
(0.000427284 20 -3.59238e-19)
(0.000427114 20 -3.58839e-19)
(0.000426944 20 -3.48834e-19)
(0.000426774 20 -3.51856e-19)
(0.000426604 20 -3.5237e-19)
(0.000426434 20 -3.82012e-19)
(0.000426264 20 -3.75623e-19)
(0.000426093 20 -3.82461e-19)
(0.000425923 20 -3.60246e-19)
(0.000425752 20 -3.59576e-19)
(0.000425581 20 -3.49308e-19)
(0.00042541 20 -3.52234e-19)
(0.000425239 20 -3.5293e-19)
(0.000425068 20 -3.81396e-19)
(0.000424896 20 -3.74017e-19)
(0.000424725 20 -3.80623e-19)
(0.000424553 20 -3.58395e-19)
(0.000424382 20 -3.58228e-19)
(0.00042421 20 -3.48414e-19)
(0.000424038 20 -3.51968e-19)
(0.000423866 20 -3.53453e-19)
(0.000423694 20 -3.82469e-19)
(0.000423521 20 -3.74947e-19)
(0.000423349 20 -3.8071e-19)
(0.000423176 20 -3.58401e-19)
(0.000423004 20 -3.58141e-19)
(0.000422831 20 -3.48295e-19)
(0.000422658 20 -3.52031e-19)
(0.000422485 20 -3.53942e-19)
(0.000422312 20 -3.8349e-19)
(0.000422139 20 -3.76832e-19)
(0.000421965 20 -3.83109e-19)
(0.000421792 20 -3.60587e-19)
(0.000421618 20 -3.60495e-19)
(0.000421444 20 -3.50651e-19)
(0.000421271 20 -3.54081e-19)
(0.000421097 20 -3.55537e-19)
(0.000420922 20 -3.845e-19)
(0.000420748 20 -3.77215e-19)
(0.000420574 20 -3.82686e-19)
(0.000420399 20 -3.60063e-19)
(0.000420225 20 -3.59106e-19)
(0.00042005 20 -3.48916e-19)
(0.000419875 20 -3.52482e-19)
(0.000419701 20 -3.54e-19)
(0.000419526 20 -3.83515e-19)
(0.00041935 20 -3.76383e-19)
(0.000419175 20 -3.82586e-19)
(0.000419 20 -3.60382e-19)
(0.000418824 20 -3.60434e-19)
(0.000418649 20 -3.50215e-19)
(0.000418473 20 -3.53226e-19)
(0.000418297 20 -3.53468e-19)
(0.000418121 20 -3.8246e-19)
(0.000417945 20 -3.75103e-19)
(0.000417769 20 -3.80941e-19)
(0.000417593 20 -3.58029e-19)
(0.000417416 20 -3.57815e-19)
(0.00041724 20 -3.48114e-19)
(0.000417063 20 -3.51732e-19)
(0.000416886 20 -3.53806e-19)
(0.000416709 20 -3.83625e-19)
(0.000416532 20 -3.76405e-19)
(0.000416354 20 -3.82466e-19)
(0.000416177 20 -3.59685e-19)
(0.000415999 20 -3.59464e-19)
(0.00041582 20 -3.49896e-19)
(0.000415642 20 -3.52584e-19)
(0.000415463 20 -3.54524e-19)
(0.000415283 20 -3.83116e-19)
(0.000415103 20 -3.76514e-19)
(0.000414922 20 -3.74729e-19)
(0.000414741 20 -3.61357e-19)
(0.000414556 20 -3.38148e-19)
(0.000414376 20 -3.50209e-19)
(0.000414185 20 -3.39201e-19)
(0.000414015 20 -3.51115e-19)
(0.000413832 20 -3.38418e-19)
(0.000413686 20 -3.47872e-19)
(0.000433153 20 -5.43513e-19)
(0.000432987 20 -5.59136e-19)
(0.00043282 20 -5.38452e-19)
(0.000432655 20 -5.36371e-19)
(0.000432491 20 -5.10125e-19)
(0.000432327 20 -5.1284e-19)
(0.000432164 20 -5.02518e-19)
(0.000432001 20 -5.02368e-19)
(0.000431839 20 -5.05769e-19)
(0.000431676 20 -5.27628e-19)
(0.000431513 20 -5.12241e-19)
(0.000431351 20 -5.14593e-19)
(0.000431188 20 -4.91225e-19)
(0.000431025 20 -4.97193e-19)
(0.000430862 20 -4.8937e-19)
(0.000430699 20 -4.9055e-19)
(0.000430535 20 -4.95599e-19)
(0.000430372 20 -5.16546e-19)
(0.000430208 20 -4.9867e-19)
(0.000430045 20 -5.0046e-19)
(0.000429881 20 -4.78793e-19)
(0.000429717 20 -4.61831e-19)
(0.000429553 20 -4.74336e-19)
(0.000429389 20 -4.64624e-19)
(0.000429225 20 -4.78396e-19)
(0.00042906 20 -4.67434e-19)
(0.000428896 20 -4.82867e-19)
(0.000428731 20 -4.82573e-19)
(0.000428566 20 -4.89642e-19)
(0.000428401 20 -4.98127e-19)
(0.000428236 20 -5.21422e-19)
(0.000428071 20 -5.07124e-19)
(0.000427905 20 -5.09998e-19)
(0.00042774 20 -4.87997e-19)
(0.000427574 20 -4.94128e-19)
(0.000427409 20 -4.85695e-19)
(0.000427243 20 -4.886e-19)
(0.000427077 20 -4.93686e-19)
(0.000426911 20 -5.15428e-19)
(0.000426744 20 -5.00508e-19)
(0.000426578 20 -5.02703e-19)
(0.000426411 20 -4.81484e-19)
(0.000426245 20 -4.89052e-19)
(0.000426078 20 -4.8162e-19)
(0.000425911 20 -4.8435e-19)
(0.000425744 20 -4.91068e-19)
(0.000425577 20 -5.11193e-19)
(0.000425409 20 -4.96145e-19)
(0.000425242 20 -5.0045e-19)
(0.000425074 20 -4.78761e-19)
(0.000424907 20 -4.84955e-19)
(0.000424739 20 -4.78303e-19)
(0.000424571 20 -4.81648e-19)
(0.000424403 20 -4.88396e-19)
(0.000424235 20 -5.10134e-19)
(0.000424066 20 -4.96559e-19)
(0.000423898 20 -5.0039e-19)
(0.000423729 20 -4.78616e-19)
(0.000423561 20 -4.86103e-19)
(0.000423392 20 -4.79089e-19)
(0.000423223 20 -4.82324e-19)
(0.000423054 20 -4.88225e-19)
(0.000422885 20 -5.1101e-19)
(0.000422715 20 -4.97379e-19)
(0.000422546 20 -5.01597e-19)
(0.000422376 20 -4.80613e-19)
(0.000422206 20 -4.89123e-19)
(0.000422037 20 -4.82038e-19)
(0.000421867 20 -4.85552e-19)
(0.000421697 20 -4.91619e-19)
(0.000421526 20 -5.14624e-19)
(0.000421356 20 -4.98941e-19)
(0.000421186 20 -5.01766e-19)
(0.000421015 20 -4.80253e-19)
(0.000420844 20 -4.87565e-19)
(0.000420673 20 -4.80169e-19)
(0.000420502 20 -4.83989e-19)
(0.000420331 20 -4.91055e-19)
(0.00042016 20 -5.14778e-19)
(0.000419989 20 -5.00945e-19)
(0.000419818 20 -5.03648e-19)
(0.000419646 20 -4.81605e-19)
(0.000419474 20 -4.88204e-19)
(0.000419302 20 -4.80235e-19)
(0.000419131 20 -4.84439e-19)
(0.000418959 20 -4.90442e-19)
(0.000418786 20 -5.12131e-19)
(0.000418614 20 -4.97802e-19)
(0.000418442 20 -5.00726e-19)
(0.000418269 20 -4.79522e-19)
(0.000418097 20 -4.87903e-19)
(0.000417924 20 -4.80667e-19)
(0.000417751 20 -4.85239e-19)
(0.000417578 20 -4.91826e-19)
(0.000417405 20 -5.1296e-19)
(0.000417232 20 -4.97824e-19)
(0.000417058 20 -5.00848e-19)
(0.000416885 20 -4.79535e-19)
(0.000416711 20 -4.86869e-19)
(0.000416538 20 -4.80231e-19)
(0.000416364 20 -4.85536e-19)
(0.00041619 20 -4.92824e-19)
(0.000416016 20 -5.1609e-19)
(0.000415842 20 -5.00758e-19)
(0.000415667 20 -5.03489e-19)
(0.000415493 20 -4.82724e-19)
(0.000415318 20 -4.90234e-19)
(0.000415144 20 -4.83298e-19)
(0.000414969 20 -4.87828e-19)
(0.000414794 20 -4.94372e-19)
(0.000414619 20 -5.15597e-19)
(0.000414444 20 -5.00454e-19)
(0.000414269 20 -5.03319e-19)
(0.000414093 20 -4.80977e-19)
(0.000413918 20 -4.8731e-19)
(0.000413742 20 -4.80225e-19)
(0.000413567 20 -4.8529e-19)
(0.000413391 20 -4.92404e-19)
(0.000413215 20 -5.1506e-19)
(0.000413039 20 -5.00162e-19)
(0.000412862 20 -5.04525e-19)
(0.000412686 20 -4.83674e-19)
(0.00041251 20 -4.89509e-19)
(0.000412333 20 -4.82226e-19)
(0.000412157 20 -4.84509e-19)
(0.00041198 20 -4.91722e-19)
(0.000411803 20 -5.12599e-19)
(0.000411626 20 -4.97989e-19)
(0.000411449 20 -4.99709e-19)
(0.000411271 20 -4.78577e-19)
(0.000411094 20 -4.85931e-19)
(0.000410916 20 -4.79725e-19)
(0.000410738 20 -4.85216e-19)
(0.00041056 20 -4.92966e-19)
(0.000410382 20 -5.14712e-19)
(0.000410204 20 -4.99909e-19)
(0.000410025 20 -5.03176e-19)
(0.000409846 20 -4.81808e-19)
(0.000409666 20 -4.89038e-19)
(0.000409486 20 -4.81141e-19)
(0.000409306 20 -4.85928e-19)
(0.000409124 20 -4.92912e-19)
(0.000408942 20 -5.13656e-19)
(0.000408759 20 -4.94328e-19)
(0.000408576 20 -4.93956e-19)
(0.00040839 20 -4.7181e-19)
(0.000408205 20 -4.57288e-19)
(0.000408014 20 -4.7299e-19)
(0.000407839 20 -4.63083e-19)
(0.000407657 20 -4.77835e-19)
(0.000407508 20 -4.67837e-19)
(0.000407372 20 -4.84617e-19)
(0.00042429 20 -6.70027e-19)
(0.000424127 20 -6.55313e-19)
(0.000423964 20 -6.53781e-19)
(0.000423802 20 -6.22516e-19)
(0.00042364 20 -6.1462e-19)
(0.000423479 20 -5.98411e-19)
(0.000423318 20 -5.98067e-19)
(0.000423158 20 -5.951e-19)
(0.000422998 20 -6.23815e-19)
(0.000422838 20 -6.16073e-19)
(0.000422678 20 -6.21501e-19)
(0.000422517 20 -5.95422e-19)
(0.000422357 20 -5.9162e-19)
(0.000422197 20 -5.79114e-19)
(0.000422036 20 -5.81952e-19)
(0.000421876 20 -5.80975e-19)
(0.000421715 20 -6.11272e-19)
(0.000421554 20 -6.04784e-19)
(0.000421393 20 -6.01466e-19)
(0.000421232 20 -5.86914e-19)
(0.000421071 20 -5.5846e-19)
(0.000420909 20 -5.64813e-19)
(0.000420748 20 -5.48658e-19)
(0.000420586 20 -5.63008e-19)
(0.000420425 20 -5.52185e-19)
(0.000420263 20 -5.6391e-19)
(0.000420101 20 -5.62485e-19)
(0.000419939 20 -5.74241e-19)
(0.000419776 20 -5.80141e-19)
(0.000419614 20 -6.14827e-19)
(0.000419452 20 -6.08857e-19)
(0.000419289 20 -6.15563e-19)
(0.000419126 20 -5.89877e-19)
(0.000418963 20 -5.87818e-19)
(0.0004188 20 -5.75258e-19)
(0.000418637 20 -5.774e-19)
(0.000418474 20 -5.7861e-19)
(0.000418311 20 -6.09324e-19)
(0.000418147 20 -6.01405e-19)
(0.000417983 20 -6.07218e-19)
(0.00041782 20 -5.81204e-19)
(0.000417656 20 -5.79919e-19)
(0.000417492 20 -5.69085e-19)
(0.000417328 20 -5.72357e-19)
(0.000417163 20 -5.7343e-19)
(0.000416999 20 -6.05995e-19)
(0.000416834 20 -5.96832e-19)
(0.00041667 20 -6.02209e-19)
(0.000416505 20 -5.78294e-19)
(0.00041634 20 -5.76391e-19)
(0.000416175 20 -5.63804e-19)
(0.00041601 20 -5.68292e-19)
(0.000415845 20 -5.70081e-19)
(0.000415679 20 -6.02731e-19)
(0.000415514 20 -5.94863e-19)
(0.000415348 20 -6.02465e-19)
(0.000415182 20 -5.77787e-19)
(0.000415016 20 -5.76359e-19)
(0.00041485 20 -5.65404e-19)
(0.000414684 20 -5.69176e-19)
(0.000414518 20 -5.7091e-19)
(0.000414352 20 -6.02519e-19)
(0.000414185 20 -5.96223e-19)
(0.000414018 20 -6.03793e-19)
(0.000413852 20 -5.79619e-19)
(0.000413685 20 -5.7872e-19)
(0.000413518 20 -5.69366e-19)
(0.000413351 20 -5.72776e-19)
(0.000413183 20 -5.75017e-19)
(0.000413016 20 -6.06672e-19)
(0.000412849 20 -6.00137e-19)
(0.000412681 20 -6.05474e-19)
(0.000412513 20 -5.79651e-19)
(0.000412345 20 -5.7855e-19)
(0.000412177 20 -5.67462e-19)
(0.000412009 20 -5.70502e-19)
(0.000411841 20 -5.72714e-19)
(0.000411673 20 -6.06413e-19)
(0.000411504 20 -6.00134e-19)
(0.000411336 20 -6.07612e-19)
(0.000411167 20 -5.81829e-19)
(0.000410998 20 -5.80027e-19)
(0.000410829 20 -5.68029e-19)
(0.00041066 20 -5.70459e-19)
(0.000410491 20 -5.73717e-19)
(0.000410322 20 -6.05365e-19)
(0.000410153 20 -5.97017e-19)
(0.000409983 20 -6.04021e-19)
(0.000409813 20 -5.7852e-19)
(0.000409644 20 -5.77725e-19)
(0.000409474 20 -5.67312e-19)
(0.000409304 20 -5.70738e-19)
(0.000409134 20 -5.74569e-19)
(0.000408964 20 -6.07071e-19)
(0.000408793 20 -5.98266e-19)
(0.000408623 20 -6.03825e-19)
(0.000408452 20 -5.78562e-19)
(0.000408281 20 -5.7761e-19)
(0.000408111 20 -5.66364e-19)
(0.00040794 20 -5.70398e-19)
(0.000407769 20 -5.75129e-19)
(0.000407598 20 -6.08312e-19)
(0.000407426 20 -6.01824e-19)
(0.000407255 20 -6.07642e-19)
(0.000407083 20 -5.81793e-19)
(0.000406912 20 -5.81587e-19)
(0.00040674 20 -5.70562e-19)
(0.000406568 20 -5.73977e-19)
(0.000406396 20 -5.77853e-19)
(0.000406224 20 -6.1017e-19)
(0.000406052 20 -6.01708e-19)
(0.000405879 20 -6.06949e-19)
(0.000405707 20 -5.81579e-19)
(0.000405534 20 -5.79153e-19)
(0.000405362 20 -5.66982e-19)
(0.000405189 20 -5.70822e-19)
(0.000405016 20 -5.74875e-19)
(0.000404843 20 -6.0812e-19)
(0.00040467 20 -6.00848e-19)
(0.000404496 20 -6.06864e-19)
(0.000404323 20 -5.82547e-19)
(0.000404149 20 -5.82501e-19)
(0.000403976 20 -5.69791e-19)
(0.000403802 20 -5.73167e-19)
(0.000403628 20 -5.73665e-19)
(0.000403454 20 -6.06687e-19)
(0.00040328 20 -5.97976e-19)
(0.000403105 20 -6.04166e-19)
(0.000402931 20 -5.77527e-19)
(0.000402756 20 -5.7658e-19)
(0.000402581 20 -5.65385e-19)
(0.000402406 20 -5.6983e-19)
(0.000402231 20 -5.74739e-19)
(0.000402056 20 -6.08559e-19)
(0.00040188 20 -6.00422e-19)
(0.000401704 20 -6.06616e-19)
(0.000401528 20 -5.81094e-19)
(0.000401351 20 -5.80229e-19)
(0.000401174 20 -5.69475e-19)
(0.000400996 20 -5.71332e-19)
(0.000400818 20 -5.75869e-19)
(0.000400639 20 -6.08091e-19)
(0.000400458 20 -6.00578e-19)
(0.000400277 20 -5.96094e-19)
(0.000400095 20 -5.79446e-19)
(0.00039991 20 -5.50068e-19)
(0.000399727 20 -5.59547e-19)
(0.000399539 20 -5.47001e-19)
(0.000399364 20 -5.61269e-19)
(0.000399188 20 -5.50869e-19)
(0.000399039 20 -5.64318e-19)
(0.000398907 20 -5.64479e-19)
(0.000398769 20 -5.73413e-19)
(0.000414854 20 -7.68414e-19)
(0.000414695 20 -7.17685e-19)
(0.000414536 20 -7.39978e-19)
(0.000414378 20 -6.74417e-19)
(0.00041422 20 -6.88637e-19)
(0.000414063 20 -6.5076e-19)
(0.000413905 20 -6.61941e-19)
(0.000413748 20 -6.53683e-19)
(0.000413591 20 -7.13821e-19)
(0.000413435 20 -6.70641e-19)
(0.000413278 20 -7.01106e-19)
(0.000413121 20 -6.41374e-19)
(0.000412964 20 -6.6107e-19)
(0.000412807 20 -6.27346e-19)
(0.00041265 20 -6.42365e-19)
(0.000412493 20 -6.37609e-19)
(0.000412335 20 -6.98944e-19)
(0.000412178 20 -6.60193e-19)
(0.00041202 20 -6.73494e-19)
(0.000411863 20 -6.41919e-19)
(0.000411705 20 -6.02629e-19)
(0.000411547 20 -6.37991e-19)
(0.000411389 20 -5.8827e-19)
(0.000411231 20 -6.31527e-19)
(0.000411072 20 -5.91386e-19)
(0.000410914 20 -6.30006e-19)
(0.000410755 20 -6.09051e-19)
(0.000410597 20 -6.34211e-19)
(0.000410438 20 -6.36428e-19)
(0.000410279 20 -7.03474e-19)
(0.00041012 20 -6.6268e-19)
(0.000409961 20 -6.94697e-19)
(0.000409802 20 -6.35011e-19)
(0.000409642 20 -6.56652e-19)
(0.000409483 20 -6.22378e-19)
(0.000409323 20 -6.37274e-19)
(0.000409163 20 -6.34364e-19)
(0.000409003 20 -6.97033e-19)
(0.000408843 20 -6.53764e-19)
(0.000408683 20 -6.84678e-19)
(0.000408523 20 -6.25133e-19)
(0.000408362 20 -6.47372e-19)
(0.000408202 20 -6.1524e-19)
(0.000408041 20 -6.31005e-19)
(0.00040788 20 -6.28363e-19)
(0.00040772 20 -6.92478e-19)
(0.000407559 20 -6.48719e-19)
(0.000407397 20 -6.79105e-19)
(0.000407236 20 -6.21239e-19)
(0.000407075 20 -6.42786e-19)
(0.000406913 20 -6.09163e-19)
(0.000406752 20 -6.25851e-19)
(0.00040659 20 -6.24088e-19)
(0.000406428 20 -6.89023e-19)
(0.000406266 20 -6.46013e-19)
(0.000406104 20 -6.78781e-19)
(0.000405942 20 -6.20222e-19)
(0.000405779 20 -6.43192e-19)
(0.000405617 20 -6.10759e-19)
(0.000405454 20 -6.26806e-19)
(0.000405291 20 -6.25206e-19)
(0.000405129 20 -6.89374e-19)
(0.000404966 20 -6.48112e-19)
(0.000404803 20 -6.81257e-19)
(0.000404639 20 -6.23129e-19)
(0.000404476 20 -6.45936e-19)
(0.000404313 20 -6.15359e-19)
(0.000404149 20 -6.31284e-19)
(0.000403985 20 -6.30234e-19)
(0.000403822 20 -6.93782e-19)
(0.000403658 20 -6.52096e-19)
(0.000403494 20 -6.82797e-19)