/*--------------------------------*- C++ -*----------------------------------*\
| =========                 |                                                 |
| \\      /  F ield         | OpenFOAM: The Open Source CFD Toolbox           |
|  \\    /   O peration     | Version:  2512                                  |
|   \\  /    A nd           | Website:  www.openfoam.com                      |
|    \\/     M anipulation  |                                                 |
\*---------------------------------------------------------------------------*/
FoamFile
{
    version     2.0;
    format      ascii;
    arch        "LSB;label=32;scalar=64";
    class       volScalarField;
    location    "0.1";
    object      p;
}
// * * * * * * * * * * * * * * * * * * * * * * * * * * * * * * * * * * * * * //

dimensions      [1 -1 -2 0 0 0 0];

internalField   nonuniform List<scalar> 
8333
(
-310.753
-311.548
-312.343
-313.138
-313.933
-314.729
-315.525
-316.321
-317.117
-317.914
-318.711
-319.508
-320.305
-321.102
-321.9
-322.698
-323.496
-324.294
-325.093
-325.891
-326.69
-327.489
-328.288
-329.087
-329.887
-330.686
-331.486
-332.286
-333.086
-333.886
-334.686
-335.487
-336.287
-337.088
-337.888
-338.689
-339.49
-340.291
-341.092
-341.893
-342.694
-343.496
-344.297
-345.099
-345.9
-346.702
-347.503
-348.305
-349.107
-349.908
-350.71
-351.512
-352.314
-353.115
-353.917
-354.719
-355.521
-356.323
-357.124
-357.926
-358.728
-359.53
-360.332
-361.133
-361.935
-362.736
-363.538
-364.34
-365.141
-365.942
-366.744
-367.545
-368.346
-369.147
-369.948
-370.749
-371.55
-372.351
-373.151
-373.952
-374.752
-375.552
-376.353
-377.153
-377.952
-378.752
-379.552
-380.351
-381.15
-381.95
-382.749
-383.547
-384.346
-385.144
-385.943
-386.741
-387.539
-388.336
-389.134
-389.931
-390.728
-391.525
-392.322
-393.118
-393.914
-394.71
-395.506
-396.301
-397.097
-397.892
-398.686
-399.481
-400.275
-401.069
-401.863
-402.656
-403.449
-404.242
-405.034
-405.826
-406.618
-407.41
-408.201
-408.992
-409.783
-410.573
-411.363
-412.153
-412.942
-413.731
-414.519
-415.308
-416.096
-416.883
-417.67
-418.457
-419.243
-420.029
-420.815
-421.6
-422.385
-423.17
-423.954
-424.737
-425.521
-426.304
-427.086
-427.868
-428.65
-314.995
-315.789
-316.584
-317.379
-318.175
-318.97
-319.766
-320.562
-321.359
-322.155
-322.952
-323.749
-324.546
-325.344
-326.142
-326.939
-327.737
-328.536
-329.334
-330.133
-330.931
-331.73
-332.529
-333.329
-334.128
-334.928
-335.727
-336.527
-337.327
-338.127
-338.928
-339.728
-340.529
-341.329
-342.13
-342.931
-343.732
-344.533
-345.334
-346.135
-346.936
-347.737
-348.539
-349.34
-350.142
-350.943
-351.745
-352.546
-353.348
-354.15
-354.952
-355.753
-356.555
-357.357
-358.159
-358.961
-359.762
-360.564
-361.366
-362.168
-362.97
-363.771
-364.573
-365.375
-366.176
-366.978
-367.78
-368.581
-369.383
-370.184
-370.985
-371.787
-372.588
-373.389
-374.19
-374.991
-375.792
-376.592
-377.393
-378.193
-378.994
-379.794
-380.594
-381.394
-382.194
-382.994
-383.793
-384.593
-385.392
-386.191
-386.99
-387.789
-388.588
-389.386
-390.184
-390.982
-391.78
-392.578
-393.376
-394.173
-394.97
-395.767
-396.563
-397.36
-398.156
-398.952
-399.748
-400.543
-401.338
-402.133
-402.928
-403.723
-404.517
-405.311
-406.104
-406.898
-407.691
-408.483
-409.276
-410.068
-410.86
-411.652
-412.443
-413.234
-414.024
-414.815
-415.605
-416.394
-417.184
-417.973
-418.761
-419.549
-420.337
-421.125
-421.912
-422.699
-423.485
-424.271
-425.057
-425.842
-426.627
-427.411
-428.195
-428.979
-429.762
-430.545
-431.328
-432.11
-432.892
-433.673
-319.233
-320.027
-320.822
-321.617
-322.413
-323.208
-324.004
-324.8
-325.597
-326.393
-327.19
-327.987
-328.784
-329.582
-330.38
-331.177
-331.975
-332.774
-333.572
-334.371
-335.169
-335.968
-336.767
-337.567
-338.366
-339.166
-339.965
-340.765
-341.565
-342.365
-343.166
-343.966
-344.766
-345.567
-346.368
-347.169
-347.969
-348.77
-349.572
-350.373
-351.174
-351.975
-352.777
-353.578
-354.38
-355.181
-355.983
-356.784
-357.586
-358.388
-359.19
-359.991
-360.793
-361.595
-362.397
-363.199
-364
-364.802
-365.604
-366.406
-367.208
-368.009
-368.811
-369.613
-370.414
-371.216
-372.017
-372.819
-373.62
-374.422
-375.223
-376.024
-376.826
-377.627
-378.428
-379.229
-380.029
-380.83
-381.631
-382.431
-383.232
-384.032
-384.832
-385.632
-386.432
-387.232
-388.031
-388.831
-389.63
-390.429
-391.228
-392.027
-392.825
-393.624
-394.422
-395.22
-396.018
-396.816
-397.613
-398.411
-399.208
-400.005
-400.801
-401.598
-402.394
-403.19
-403.986
-404.781
-405.576
-406.371
-407.166
-407.96
-408.755
-409.548
-410.342
-411.135
-411.928
-412.721
-413.514
-414.306
-415.098
-415.889
-416.681
-417.472
-418.262
-419.053
-419.842
-420.632
-421.421
-422.21
-422.999
-423.787
-424.575
-425.363
-426.15
-426.937
-427.723
-428.509
-429.295
-430.08
-430.865
-431.649
-432.433
-433.217
-434
-434.783
-435.566
-436.348
-437.129
-437.911
-323.47
-324.265
-325.06
-325.855
-326.651
-327.446
-328.242
-329.038
-329.835
-330.631
-331.428
-332.225
-333.022
-333.82
-334.617
-335.415
-336.213
-337.012
-337.81
-338.609
-339.407
-340.206
-341.005
-341.805
-342.604
-343.404
-344.203
-345.003
-345.803
-346.603
-347.404
-348.204
-349.004
-349.805
-350.606
-351.407
-352.207
-353.008
-353.809
-354.611
-355.412
-356.213
-357.015
-357.816
-358.617
-359.419
-360.221
-361.022
-361.824
-362.626
-363.427
-364.229
-365.031
-365.833
-366.635
-367.436
-368.238
-369.04
-369.842
-370.644
-371.445
-372.247
-373.049
-373.851
-374.652
-375.454
-376.255
-377.057
-377.858
-378.66
-379.461
-380.262
-381.063
-381.865
-382.666
-383.466
-384.267
-385.068
-385.869
-386.669
-387.47
-388.27
-389.07
-389.87
-390.67
-391.47
-392.269
-393.069
-393.868
-394.667
-395.466
-396.265
-397.063
-397.862
-398.66
-399.458
-400.256
-401.054
-401.851
-402.649
-403.446
-404.243
-405.039
-405.836
-406.632
-407.428
-408.223
-409.019
-409.814
-410.609
-411.404
-412.198
-412.992
-413.786
-414.58
-415.373
-416.166
-416.959
-417.752
-418.544
-419.336
-420.127
-420.919
-421.71
-422.5
-423.29
-424.08
-424.87
-425.659
-426.448
-427.237
-428.025
-428.813
-429.6
-430.388
-431.174
-431.961
-432.747
-433.532
-434.318
-435.103
-435.887
-436.671
-437.455
-438.238
-439.021
-439.804
-440.586
-441.367
-442.149
-442.929
-327.708
-328.503
-329.298
-330.093
-330.888
-331.684
-332.48
-333.276
-334.073
-334.869
-335.666
-336.463
-337.26
-338.058
-338.855
-339.653
-340.451
-341.249
-342.048
-342.846
-343.645
-344.444
-345.243
-346.043
-346.842
-347.642
-348.441
-349.241
-350.041
-350.841
-351.641
-352.442
-353.242
-354.043
-354.844
-355.644
-356.445
-357.246
-358.047
-358.849
-359.65
-360.451
-361.252
-362.054
-362.855
-363.657
-364.459
-365.26
-366.062
-366.864
-367.665
-368.467
-369.269
-370.071
-370.873
-371.674
-372.476
-373.278
-374.08
-374.882
-375.683
-376.485
-377.287
-378.089
-378.89
-379.692
-380.493
-381.295
-382.096
-382.898
-383.699
-384.5
-385.301
-386.103
-386.904
-387.704
-388.505
-389.306
-390.107
-390.907
-391.707
-392.508
-393.308
-394.108
-394.908
-395.707
-396.507
-397.306
-398.106
-398.905
-399.704
-400.503
-401.301
-402.1
-402.898
-403.696
-404.494
-405.292
-406.089
-406.886
-407.684
-408.48
-409.277
-410.073
-410.87
-411.666
-412.461
-413.257
-414.052
-414.847
-415.642
-416.436
-417.23
-418.024
-418.818
-419.611
-420.404
-421.197
-421.99
-422.782
-423.574
-424.365
-425.156
-425.947
-426.738
-427.528
-428.318
-429.108
-429.897
-430.686
-431.475
-432.263
-433.051
-433.838
-434.626
-435.412
-436.199
-436.985
-437.77
-438.556
-439.341
-440.125
-440.909
-441.693
-442.476
-443.259
-444.041
-444.823
-445.605
-446.386
-447.167
-447.947
-331.946
-332.741
-333.536
-334.331
-335.126
-335.922
-336.718
-337.514
-338.31
-339.107
-339.904
-340.701
-341.498
-342.296
-343.093
-343.891
-344.689
-345.487
-346.286
-347.084
-347.883
-348.682
-349.481
-350.28
-351.08
-351.879
-352.679
-353.479
-354.279
-355.079
-355.879
-356.68
-357.48
-358.281
-359.082
-359.882
-360.683
-361.484
-362.285
-363.086
-363.888
-364.689
-365.49
-366.292
-367.093
-367.895
-368.696
-369.498
-370.3
-371.102
-371.903
-372.705
-373.507
-374.309
-375.11
-375.912
-376.714
-377.516
-378.318
-379.12
-379.921
-380.723
-381.525
-382.326
-383.128
-383.93
-384.731
-385.533
-386.334
-387.136
-387.937
-388.738
-389.539
-390.34
-391.141
-391.942
-392.743
-393.544
-394.344
-395.145
-395.945
-396.746
-397.546
-398.346
-399.146
-399.945
-400.745
-401.544
-402.344
-403.143
-403.942
-404.741
-405.539
-406.338
-407.136
-407.934
-408.732
-409.53
-410.327
-411.124
-411.921
-412.718
-413.515
-414.311
-415.108
-415.904
-416.699
-417.495
-418.29
-419.085
-419.88
-420.674
-421.468
-422.262
-423.056
-423.849
-424.642
-425.435
-426.228
-427.02
-427.812
-428.603
-429.394
-430.185
-430.976
-431.766
-432.556
-433.346
-434.135
-434.924
-435.713
-436.501
-437.289
-438.076
-438.863
-439.65
-440.437
-441.223
-442.008
-442.794
-443.578
-444.363
-445.147
-445.931
-446.714
-447.497
-448.279
-449.061
-449.843
-450.624
-451.405
-452.185
-452.964
-336.184
-336.979
-337.774
-338.569
-339.364
-340.16
-340.956
-341.752
-342.548
-343.345
-344.142
-344.939
-345.736
-346.534
-347.331
-348.129
-348.927
-349.725
-350.524
-351.322
-352.121
-352.92
-353.719
-354.518
-355.318
-356.117
-356.917
-357.717
-358.517
-359.317
-360.117
-360.918
-361.718
-362.519
-363.319
-364.12
-364.921
-365.722
-366.523
-367.324
-368.126
-368.927
-369.728
-370.53
-371.331
-372.133
-372.934
-373.736
-374.538
-375.339
-376.141
-376.943
-377.745
-378.547
-379.348
-380.15
-380.952
-381.754
-382.556
-383.357
-384.159
-384.961
-385.763
-386.564
-387.366
-388.168
-388.969
-389.771
-390.572
-391.374
-392.175
-392.976
-393.777
-394.578
-395.379
-396.18
-396.981
-397.782
-398.582
-399.383
-400.183
-400.984
-401.784
-402.584
-403.384
-404.183
-404.983
-405.782
-406.582
-407.381
-408.18
-408.979
-409.777
-410.576
-411.374
-412.172
-412.97
-413.768
-414.565
-415.362
-416.159
-416.956
-417.753
-418.549
-419.346
-420.141
-420.937
-421.733
-422.528
-423.323
-424.118
-424.912
-425.706
-426.5
-427.294
-428.087
-428.88
-429.673
-430.465
-431.258
-432.05
-432.841
-433.632
-434.423
-435.214
-436.004
-436.794
-437.584
-438.373
-439.162
-439.951
-440.739
-441.527
-442.314
-443.101
-443.888
-444.675
-445.461
-446.246
-447.032
-447.816
-448.601
-449.385
-450.169
-450.952
-451.735
-452.517
-453.299
-454.081
-454.862
-455.643
-456.423
-457.202
-340.422
-341.217
-342.012
-342.807
-343.602
-344.398
-345.194
-345.99
-346.786
-347.583
-348.38
-349.177
-349.974
-350.771
-351.569
-352.367
-353.165
-353.963
-354.762
-355.56
-356.359
-357.158
-357.957
-358.756
-359.556
-360.355
-361.155
-361.955
-362.755
-363.555
-364.355
-365.156
-365.956
-366.757
-367.557
-368.358
-369.159
-369.96
-370.761
-371.562
-372.364
-373.165
-373.966
-374.768
-375.569
-376.371
-377.172
-377.974
-378.776
-379.577
-380.379
-381.181
-381.983
-382.784
-383.586
-384.388
-385.19
-385.992
-386.794
-387.595
-388.397
-389.199
-390.001
-390.802
-391.604
-392.406
-393.207
-394.009
-394.81
-395.611
-396.413
-397.214
-398.015
-398.816
-399.617
-400.418
-401.219
-402.02
-402.82
-403.621
-404.421
-405.221
-406.022
-406.822
-407.621
-408.421
-409.221
-410.02
-410.82
-411.619
-412.418
-413.216
-414.015
-414.814
-415.612
-416.41
-417.208
-418.005
-418.803
-419.6
-420.397
-421.194
-421.991
-422.787
-423.583
-424.379
-425.175
-425.971
-426.766
-427.561
-428.355
-429.15
-429.944
-430.738
-431.532
-432.325
-433.118
-433.911
-434.703
-435.496
-436.287
-437.079
-437.87
-438.661
-439.452
-440.242
-441.032
-441.822
-442.611
-443.4
-444.189
-444.977
-445.765
-446.552
-447.339
-448.126
-448.912
-449.699
-450.484
-451.269
-452.054
-452.839
-453.623
-454.406
-455.19
-455.973
-456.755
-457.537
-458.319
-459.1
-459.88
-460.661
-461.44
-462.22
-344.66
-345.455
-346.25
-347.045
-347.84
-348.636
-349.432
-350.228
-351.024
-351.821
-352.618
-353.415
-354.212
-355.009
-355.807
-356.605
-357.403
-358.201
-359
-359.798
-360.597
-361.396
-362.195
-362.994
-363.794
-364.593
-365.393
-366.193
-366.993
-367.793
-368.593
-369.394
-370.194
-370.995
-371.795
-372.596
-373.397
-374.198
-374.999
-375.8
-376.601
-377.403
-378.204
-379.006
-379.807
-380.609
-381.41
-382.212
-383.014
-383.815
-384.617
-385.419
-386.221
-387.022
-387.824
-388.626
-389.428
-390.23
-391.031
-391.833
-392.635
-393.437
-394.239
-395.04
-395.842
-396.643
-397.445
-398.247
-399.048
-399.849
-400.651
-401.452
-402.253
-403.054
-403.855
-404.656
-405.457
-406.258
-407.058
-407.859
-408.659
-409.459
-410.26
-411.06
-411.859
-412.659
-413.459
-414.258
-415.057
-415.857
-416.656
-417.454
-418.253
-419.051
-419.85
-420.648
-421.446
-422.243
-423.041
-423.838
-424.635
-425.432
-426.229
-427.025
-427.821
-428.617
-429.413
-430.208
-431.004
-431.799
-432.593
-433.388
-434.182
-434.976
-435.77
-436.563
-437.356
-438.149
-438.941
-439.733
-440.525
-441.317
-442.108
-442.899
-443.69
-444.48
-445.27
-446.06
-446.849
-447.638
-448.426
-449.215
-450.003
-450.79
-451.577
-452.364
-453.15
-453.936
-454.722
-455.507
-456.292
-457.077
-457.861
-458.644
-459.428
-460.211
-460.993
-461.775
-462.557
-463.338
-464.118
-464.898
-465.678
-466.457
-467.236
-348.898
-349.693
-350.487
-351.283
-352.078
-352.874
-353.67
-354.466
-355.262
-356.059
-356.856
-357.653
-358.45
-359.247
-360.045
-360.843
-361.641
-362.439
-363.237
-364.036
-364.835
-365.634
-366.433
-367.232
-368.032
-368.831
-369.631
-370.431
-371.231
-372.031
-372.831
-373.631
-374.432
-375.233
-376.033
-376.834
-377.635
-378.436
-379.237
-380.038
-380.839
-381.641
-382.442
-383.243
-384.045
-384.847
-385.648
-386.45
-387.251
-388.053
-388.855
-389.657
-390.459
-391.26
-392.062
-392.864
-393.666
-394.468
-395.269
-396.071
-396.873
-397.675
-398.476
-399.278
-400.08
-400.881
-401.683
-402.484
-403.286
-404.087
-404.889
-405.69
-406.491
-407.292
-408.093
-408.894
-409.695
-410.496
-411.296
-412.097
-412.897
-413.697
-414.497
-415.297
-416.097
-416.897
-417.697
-418.496
-419.295
-420.095
-420.893
-421.692
-422.491
-423.289
-424.088
-424.886
-425.684
-426.481
-427.279
-428.076
-428.873
-429.67
-430.467
-431.263
-432.059
-432.855
-433.651
-434.446
-435.242
-436.037
-436.831
-437.626
-438.42
-439.214
-440.008
-440.801
-441.594
-442.387
-443.179
-443.971
-444.763
-445.555
-446.346
-447.137
-447.928
-448.718
-449.508
-450.298
-451.087
-451.876
-452.664
-453.453
-454.24
-455.028
-455.815
-456.602
-457.388
-458.174
-458.96
-459.745
-460.53
-461.315
-462.099
-462.882
-463.666
-464.448
-465.231
-466.013
-466.794
-467.575
-468.356
-469.136
-469.916
-470.695
-471.474
-472.252
-353.136
-353.93
-354.725
-355.521
-356.316
-357.112
-357.908
-358.704
-359.5
-360.297
-361.093
-361.89
-362.688
-363.485
-364.283
-365.081
-365.879
-366.677
-367.475
-368.274
-369.073
-369.872
-370.671
-371.47
-372.269
-373.069
-373.869
-374.669
-375.469
-376.269
-377.069
-377.869
-378.67
-379.47
-380.271
-381.072
-381.873
-382.674
-383.475
-384.276
-385.077
-385.879
-386.68
-387.481
-388.283
-389.084
-389.886
-390.688
-391.489
-392.291
-393.093
-393.895
-394.696
-395.498
-396.3
-397.102
-397.904
-398.706
-399.507
-400.309
-401.111
-401.913
-402.714
-403.516
-404.318
-405.119
-405.921
-406.722
-407.524
-408.325
-409.127
-409.928
-410.729
-411.53
-412.331
-413.132
-413.933
-414.733
-415.534
-416.335
-417.135
-417.935
-418.735
-419.535
-420.335
-421.135
-421.935
-422.734
-423.533
-424.332
-425.131
-425.93
-426.729
-427.527
-428.326
-429.124
-429.922
-430.719
-431.517
-432.314
-433.111
-433.908
-434.705
-435.501
-436.297
-437.093
-437.889
-438.684
-439.48
-440.275
-441.069
-441.864
-442.658
-443.452
-444.245
-445.039
-445.832
-446.625
-447.417
-448.209
-449.001
-449.793
-450.584
-451.375
-452.166
-452.956
-453.746
-454.535
-455.325
-456.114
-456.902
-457.691
-458.478
-459.266
-460.053
-460.84
-461.626
-462.412
-463.198
-463.983
-464.768
-465.552
-466.337
-467.12
-467.903
-468.686
-469.469
-470.251
-471.032
-471.813
-472.594
-473.374
-474.154
-474.933
-475.711
-476.49
-357.374
-358.168
-358.963
-359.758
-360.554
-361.35
-362.145
-362.942
-363.738
-364.535
-365.331
-366.128
-366.926
-367.723
-368.521
-369.319
-370.117
-370.915
-371.713
-372.512
-373.311
-374.11
-374.909
-375.708
-376.507
-377.307
-378.107
-378.907
-379.707
-380.507
-381.307
-382.107
-382.908
-383.708
-384.509
-385.31
-386.111
-386.912
-387.713
-388.514
-389.315
-390.117
-390.918
-391.719
-392.521
-393.322
-394.124
-394.926
-395.727
-396.529
-397.331
-398.133
-398.934
-399.736
-400.538
-401.34
-402.142
-402.943
-403.745
-404.547
-405.349
-406.151
-406.952
-407.754
-408.556
-409.357
-410.159
-410.96
-411.762
-412.563
-413.364
-414.166
-414.967
-415.768
-416.569
-417.37
-418.171
-418.971
-419.772
-420.572
-421.373
-422.173
-422.973
-423.773
-424.573
-425.373
-426.172
-426.972
-427.771
-428.57
-429.369
-430.168
-430.967
-431.765
-432.563
-433.362
-434.159
-434.957
-435.755
-436.552
-437.349
-438.146
-438.943
-439.739
-440.535
-441.331
-442.127
-442.922
-443.717
-444.512
-445.307
-446.102
-446.896
-447.69
-448.483
-449.277
-450.07
-450.863
-451.655
-452.447
-453.239
-454.031
-454.822
-455.613
-456.404
-457.194
-457.984
-458.773
-459.563
-460.352
-461.14
-461.928
-462.716
-463.504
-464.291
-465.078
-465.864
-466.65
-467.436
-468.221
-469.006
-469.79
-470.574
-471.358
-472.141
-472.924
-473.707
-474.489
-475.27
-476.051
-476.832
-477.612
-478.392
-479.171
-479.949
-480.728
-481.505
-361.612
-362.406
-363.201
-363.996
-364.792
-365.587
-366.383
-367.179
-367.976
-368.772
-369.569
-370.366
-371.164
-371.961
-372.759
-373.557
-374.355
-375.153
-375.951
-376.75
-377.549
-378.348
-379.147
-379.946
-380.745
-381.545
-382.345
-383.144
-383.944
-384.745
-385.545
-386.345
-387.146
-387.946
-388.747
-389.548
-390.349
-391.15
-391.951
-392.752
-393.553
-394.354
-395.156
-395.957
-396.759
-397.56
-398.362
-399.164
-399.965
-400.767
-401.569
-402.37
-403.172
-403.974
-404.776
-405.578
-406.38
-407.181
-407.983
-408.785
-409.587
-410.388
-411.19
-411.992
-412.794
-413.595
-414.397
-415.198
-416
-416.801
-417.602
-418.404
-419.205
-420.006
-420.807
-421.608
-422.409
-423.209
-424.01
-424.81
-425.611
-426.411
-427.211
-428.011
-428.811
-429.611
-430.41
-431.21
-432.009
-432.808
-433.607
-434.406
-435.205
-436.003
-436.801
-437.599
-438.397
-439.195
-439.993
-440.79
-441.587
-442.384
-443.18
-443.977
-444.773
-445.569
-446.365
-447.16
-447.955
-448.75
-449.545
-450.34
-451.134
-451.928
-452.721
-453.515
-454.308
-455.1
-455.893
-456.685
-457.477
-458.269
-459.06
-459.851
-460.641
-461.432
-462.222
-463.011
-463.801
-464.59
-465.378
-466.166
-466.954
-467.742
-468.529
-469.316
-470.102
-470.888
-471.674
-472.459
-473.244
-474.028
-474.812
-475.596
-476.379
-477.162
-477.944
-478.726
-479.508
-480.289
-481.07
-481.85
-482.629
-483.409
-484.187
-484.965
-485.743
-486.52
-365.85
-366.644
-367.439
-368.234
-369.03
-369.825
-370.621
-371.417
-372.214
-373.01
-373.807
-374.604
-375.401
-376.199
-376.997
-377.794
-378.592
-379.391
-380.189
-380.988
-381.787
-382.585
-383.385
-384.184
-384.983
-385.783
-386.583
-387.382
-388.182
-388.982
-389.783
-390.583
-391.384
-392.184
-392.985
-393.786
-394.587
-395.388
-396.189
-396.99
-397.791
-398.592
-399.394
-400.195
-400.997
-401.798
-402.6
-403.401
-404.203
-405.005
-405.807
-406.608
-407.41
-408.212
-409.014
-409.816
-410.617
-411.419
-412.221
-413.023
-413.825
-414.626
-415.428
-416.23
-417.031
-417.833
-418.635
-419.436
-420.238
-421.039
-421.84
-422.642
-423.443
-424.244
-425.045
-425.846
-426.647
-427.447
-428.248
-429.048
-429.849
-430.649
-431.449
-432.249
-433.049
-433.849
-434.648
-435.448
-436.247
-437.046
-437.845
-438.644
-439.443
-440.241
-441.039
-441.837
-442.635
-443.433
-444.23
-445.028
-445.825
-446.622
-447.418
-448.215
-449.011
-449.807
-450.603
-451.398
-452.193
-452.988
-453.783
-454.577
-455.372
-456.166
-456.959
-457.753
-458.546
-459.338
-460.131
-460.923
-461.715
-462.507
-463.298
-464.089
-464.879
-465.67
-466.46
-467.249
-468.039
-468.827
-469.616
-470.404
-471.192
-471.98
-472.767
-473.554
-474.34
-475.126
-475.912
-476.697
-477.482
-478.266
-479.05
-479.834
-480.617
-481.4
-482.182
-482.964
-483.746
-484.527
-485.307
-486.088
-486.867
-487.646
-488.425
-489.203
-489.981
-490.758
-370.088
-370.882
-371.677
-372.472
-373.268
-374.063
-374.859
-375.655
-376.452
-377.248
-378.045
-378.842
-379.639
-380.437
-381.235
-382.032
-382.83
-383.629
-384.427
-385.226
-386.024
-386.823
-387.622
-388.422
-389.221
-390.021
-390.82
-391.62
-392.42
-393.22
-394.021
-394.821
-395.621
-396.422
-397.223
-398.024
-398.824
-399.625
-400.427
-401.228
-402.029
-402.83
-403.632
-404.433
-405.235
-406.036
-406.838
-407.639
-408.441
-409.243
-410.045
-410.846
-411.648
-412.45
-413.252
-414.054
-414.855
-415.657
-416.459
-417.261
-418.063
-418.864
-419.666
-420.468
-421.269
-422.071
-422.873
-423.674
-424.475
-425.277
-426.078
-426.879
-427.681
-428.482
-429.283
-430.084
-430.884
-431.685
-432.486
-433.286
-434.087
-434.887
-435.687
-436.487
-437.287
-438.087
-438.886
-439.686
-440.485
-441.284
-442.083
-442.882
-443.681
-444.479
-445.277
-446.075
-446.873
-447.671
-448.468
-449.266
-450.063
-450.86
-451.656
-452.453
-453.249
-454.045
-454.841
-455.636
-456.431
-457.226
-458.021
-458.815
-459.61
-460.403
-461.197
-461.99
-462.784
-463.576
-464.369
-465.161
-465.953
-466.744
-467.536
-468.327
-469.117
-469.908
-470.698
-471.487
-472.276
-473.065
-473.854
-474.642
-475.43
-476.218
-477.005
-477.792
-478.578
-479.364
-480.15
-480.935
-481.72
-482.504
-483.288
-484.072
-484.855
-485.638
-486.42
-487.202
-487.984
-488.765
-489.545
-490.325
-491.105
-491.884
-492.663
-493.441
-494.219
-494.996
-495.773
-374.325
-375.12
-375.915
-376.71
-377.506
-378.301
-379.097
-379.893
-380.69
-381.486
-382.283
-383.08
-383.877
-384.675
-385.472
-386.27
-387.068
-387.867
-388.665
-389.464
-390.262
-391.061
-391.86
-392.66
-393.459
-394.259
-395.058
-395.858
-396.658
-397.458
-398.259
-399.059
-399.859
-400.66
-401.461
-402.262
-403.062
-403.863
-404.664
-405.466
-406.267
-407.068
-407.87
-408.671
-409.473
-410.274
-411.076
-411.877
-412.679
-413.481
-414.282
-415.084
-415.886
-416.688
-417.49
-418.291
-419.093
-419.895
-420.697
-421.499
-422.3
-423.102
-423.904
-424.706
-425.507
-426.309
-427.11
-427.912
-428.713
-429.515
-430.316
-431.117
-431.919
-432.72
-433.521
-434.322
-435.122
-435.923
-436.724
-437.524
-438.325
-439.125
-439.925
-440.725
-441.525
-442.325
-443.124
-443.924
-444.723
-445.522
-446.321
-447.12
-447.918
-448.717
-449.515
-450.313
-451.111
-451.909
-452.706
-453.504
-454.301
-455.098
-455.894
-456.691
-457.487
-458.283
-459.078
-459.874
-460.669
-461.464
-462.259
-463.053
-463.848
-464.641
-465.435
-466.228
-467.021
-467.814
-468.607
-469.399
-470.191
-470.982
-471.774
-472.565
-473.355
-474.146
-474.935
-475.725
-476.514
-477.303
-478.092
-478.88
-479.668
-480.456
-481.243
-482.029
-482.816
-483.602
-484.388
-485.173
-485.958
-486.742
-487.526
-488.31
-489.093
-489.876
-490.658
-491.44
-492.222
-493.003
-493.783
-494.563
-495.343
-496.122
-496.901
-497.679
-498.457
-499.234
-500.01
-500.787
-378.563
-379.358
-380.153
-380.948
-381.743
-382.539
-383.335
-384.131
-384.928
-385.724
-386.521
-387.318
-388.115
-388.913
-389.71
-390.508
-391.306
-392.104
-392.903
-393.701
-394.5
-395.299
-396.098
-396.898
-397.697
-398.497
-399.296
-400.096
-400.896
-401.696
-402.496
-403.297
-404.097
-404.898
-405.699
-406.499
-407.3
-408.101
-408.902
-409.704
-410.505
-411.306
-412.107
-412.909
-413.71
-414.512
-415.314
-416.115
-416.917
-417.719
-418.52
-419.322
-420.124
-420.926
-421.728
-422.529
-423.331
-424.133
-424.935
-425.737
-426.538
-427.34
-428.142
-428.944
-429.745
-430.547
-431.348
-432.15
-432.951
-433.753
-434.554
-435.355
-436.156
-436.958
-437.759
-438.559
-439.36
-440.161
-440.962
-441.762
-442.562
-443.363
-444.163
-444.963
-445.763
-446.563
-447.362
-448.162
-448.961
-449.76
-450.559
-451.358
-452.156
-452.955
-453.753
-454.551
-455.349
-456.147
-456.944
-457.742
-458.539
-459.335
-460.132
-460.929
-461.725
-462.521
-463.316
-464.112
-464.907
-465.702
-466.497
-467.291
-468.085
-468.879
-469.673
-470.466
-471.259
-472.052
-472.845
-473.637
-474.429
-475.22
-476.012
-476.803
-477.593
-478.383
-479.173
-479.963
-480.752
-481.541
-482.33
-483.118
-483.906
-484.693
-485.481
-486.267
-487.054
-487.84
-488.625
-489.411
-490.196
-490.98
-491.764
-492.548
-493.331
-494.114
-494.896
-495.678
-496.46
-497.241
-498.021
-498.801
-499.581
-500.36
-501.139
-501.917
-502.694
-503.472
-504.248
-505.024
-505.8
-382.801
-383.596
-384.391
-385.186
-385.981
-386.777
-387.573
-388.369
-389.165
-389.962
-390.759
-391.556
-392.353
-393.151
-393.948
-394.746
-395.544
-396.342
-397.141
-397.939
-398.738
-399.537
-400.336
-401.135
-401.935
-402.734
-403.534
-404.334
-405.134
-405.934
-406.734
-407.535
-408.335
-409.136
-409.937
-410.737
-411.538
-412.339
-413.14
-413.941
-414.743
-415.544
-416.345
-417.147
-417.948
-418.75
-419.551
-420.353
-421.155
-421.957
-422.758
-423.56
-424.362
-425.164
-425.965
-426.767
-427.569
-428.371
-429.173
-429.975
-430.776
-431.578
-432.38
-433.181
-433.983
-434.785
-435.586
-436.388
-437.189
-437.991
-438.792
-439.593
-440.394
-441.195
-441.996
-442.797
-443.598
-444.399
-445.2
-446
-446.8
-447.601
-448.401
-449.201
-450.001
-450.8
-451.6
-452.399
-453.199
-453.998
-454.797
-455.596
-456.394
-457.193
-457.991
-458.789
-459.587
-460.385
-461.182
-461.979
-462.777
-463.573
-464.37
-465.166
-465.963
-466.759
-467.554
-468.35
-469.145
-469.94
-470.735
-471.529
-472.323
-473.117
-473.911
-474.704
-475.497
-476.29
-477.083
-477.875
-478.667
-479.458
-480.25
-481.04
-481.831
-482.621
-483.411
-484.201
-484.99
-485.779
-486.568
-487.356
-488.144
-488.931
-489.719
-490.505
-491.292
-492.078
-492.863
-493.649
-494.433
-495.218
-496.002
-496.786
-497.569
-498.352
-499.134
-499.916
-500.697
-501.478
-502.259
-503.039
-503.819
-504.598
-505.376
-506.155
-506.932
-507.709
-508.486
-509.262
-510.038
-387.039
-387.834
-388.629
-389.424
-390.219
-391.015
-391.811
-392.607
-393.403
-394.2
-394.997
-395.794
-396.591
-397.388
-398.186
-398.984
-399.782
-400.58
-401.379
-402.177
-402.976
-403.775
-404.574
-405.373
-406.173
-406.972
-407.772
-408.572
-409.372
-410.172
-410.972
-411.773
-412.573
-413.374
-414.174
-414.975
-415.776
-416.577
-417.378
-418.179
-418.981
-419.782
-420.583
-421.385
-422.186
-422.988
-423.789
-424.591
-425.393
-426.194
-426.996
-427.798
-428.6
-429.402
-430.203
-431.005
-431.807
-432.609
-433.411
-434.212
-435.014
-435.816
-436.618
-437.419
-438.221
-439.023
-439.824
-440.626
-441.427
-442.229
-443.03
-443.831
-444.632
-445.433
-446.234
-447.035
-447.836
-448.637
-449.437
-450.238
-451.038
-451.839
-452.639
-453.439
-454.239
-455.038
-455.838
-456.637
-457.437
-458.236
-459.035
-459.834
-460.632
-461.431
-462.229
-463.027
-463.825
-464.623
-465.42
-466.217
-467.014
-467.811
-468.608
-469.404
-470.201
-470.997
-471.792
-472.588
-473.383
-474.178
-474.973
-475.767
-476.561
-477.355
-478.149
-478.942
-479.735
-480.528
-481.321
-482.113
-482.905
-483.696
-484.487
-485.278
-486.069
-486.859
-487.649
-488.439
-489.228
-490.017
-490.806
-491.594
-492.382
-493.169
-493.957
-494.743
-495.53
-496.316
-497.101
-497.887
-498.671
-499.456
-500.24
-501.024
-501.807
-502.59
-503.372
-504.154
-504.935
-505.716
-506.497
-507.277
-508.057
-508.836
-509.614
-510.392
-511.17
-511.947
-512.724
-513.5
-514.276
-515.051
-391.277
-392.072
-392.867
-393.662
-394.457
-395.253
-396.049
-396.845
-397.641
-398.438
-399.235
-400.032
-400.829
-401.626
-402.424
-403.222
-404.02
-404.818
-405.617
-406.415
-407.214
-408.013
-408.812
-409.611
-410.411
-411.21
-412.01
-412.81
-413.61
-414.41
-415.21
-416.011
-416.811
-417.612
-418.412
-419.213
-420.014
-420.815
-421.616
-422.417
-423.219
-424.02
-424.821
-425.623
-426.424
-427.226
-428.027
-428.829
-429.631
-430.432
-431.234
-432.036
-432.838
-433.639
-434.441
-435.243
-436.045
-436.847
-437.649
-438.45
-439.252
-440.054
-440.856
-441.657
-442.459
-443.261
-444.062
-444.864
-445.665
-446.466
-447.268
-448.069
-448.87
-449.671
-450.472
-451.273
-452.074
-452.875
-453.675
-454.476
-455.276
-456.077
-456.877
-457.677
-458.477
-459.276
-460.076
-460.875
-461.675
-462.474
-463.273
-464.072
-464.87
-465.669
-466.467
-467.265
-468.063
-468.861
-469.658
-470.455
-471.252
-472.049
-472.846
-473.642
-474.439
-475.234
-476.03
-476.826
-477.621
-478.416
-479.211
-480.005
-480.799
-481.593
-482.387
-483.18
-483.973
-484.766
-485.558
-486.351
-487.143
-487.934
-488.725
-489.516
-490.307
-491.097
-491.887
-492.677
-493.466
-494.255
-495.044
-495.832
-496.62
-497.407
-498.194
-498.981
-499.768
-500.554
-501.339
-502.125
-502.909
-503.694
-504.478
-505.261
-506.045
-506.827
-507.61
-508.392
-509.173
-509.954
-510.735
-511.515
-512.294
-513.074
-513.852
-514.63
-515.408
-516.185
-516.962
-517.738
-518.514
-519.289
-520.063
-395.515
-396.31
-397.104
-397.9
-398.695
-399.491
-400.287
-401.083
-401.879
-402.676
-403.473
-404.27
-405.067
-405.864
-406.662
-407.46
-408.258
-409.056
-409.855
-410.653
-411.452
-412.251
-413.05
-413.849
-414.649
-415.448
-416.248
-417.048
-417.848
-418.648
-419.448
-420.248
-421.049
-421.85
-422.65
-423.451
-424.252
-425.053
-425.854
-426.655
-427.456
-428.258
-429.059
-429.861
-430.662
-431.464
-432.265
-433.067
-433.869
-434.67
-435.472
-436.274
-437.076
-437.877
-438.679
-439.481
-440.283
-441.085
-441.887
-442.688
-443.49
-444.292
-445.094
-445.895
-446.697
-447.498
-448.3
-449.102
-449.903
-450.704
-451.506
-452.307
-453.108
-453.909
-454.71
-455.511
-456.312
-457.113
-457.913
-458.714
-459.514
-460.314
-461.115
-461.915
-462.714
-463.514
-464.314
-465.113
-465.913
-466.712
-467.511
-468.309
-469.108
-469.907
-470.705
-471.503
-472.301
-473.098
-473.896
-474.693
-475.49
-476.287
-477.084
-477.88
-478.676
-479.472
-480.268
-481.064
-481.859
-482.654
-483.449
-484.243
-485.037
-485.831
-486.625
-487.418
-488.211
-489.004
-489.796
-490.589
-491.38
-492.172
-492.963
-493.754
-494.545
-495.335
-496.125
-496.915
-497.704
-498.493
-499.282
-500.07
-500.858
-501.645
-502.432
-503.219
-504.006
-504.792
-505.577
-506.362
-507.147
-507.932
-508.716
-509.499
-510.283
-511.065
-511.848
-512.63
-513.411
-514.192
-514.973
-515.753
-516.532
-517.311
-518.09
-518.868
-519.646