/*--------------------------------*- C++ -*----------------------------------*\
| =========                 |                                                 |
| \\      /  F ield         | OpenFOAM: The Open Source CFD Toolbox           |
|  \\    /   O peration     | Version:  2512                                  |
|   \\  /    A nd           | Website:  www.openfoam.com                      |
|    \\/     M anipulation  |                                                 |
\*---------------------------------------------------------------------------*/
FoamFile
{
    version     2.0;
    format      ascii;
    arch        "LSB;label=32;scalar=64";
    class       volScalarField;
    location    "0.1";
    object      pB;
}
// * * * * * * * * * * * * * * * * * * * * * * * * * * * * * * * * * * * * * //

dimensions      [1 1 -3 0 0 -1 0];

internalField   nonuniform List<scalar> 
8333
(
-8.12303
-8.17156
-8.2193
-8.26658
-8.31359
-8.36035
-8.40687
-8.45319
-8.49934
-8.54535
-8.59125
-8.63705
-8.68277
-8.72842
-8.77402
-8.81957
-8.86507
-8.91055
-8.956
-9.00141
-9.04681
-9.09218
-9.13752
-9.18285
-9.22815
-9.27342
-9.31866
-9.36388
-9.40906
-9.45421
-9.49932
-9.54439
-9.58941
-9.63439
-9.67932
-9.7242
-9.76902
-9.81378
-9.85847
-9.90311
-9.94767
-9.99216
-10.0366
-10.0809
-10.1252
-10.1694
-10.2135
-10.2575
-10.3014
-10.3452
-10.389
-10.4326
-10.4762
-10.5196
-10.563
-10.6062
-10.6494
-10.6924
-10.7354
-10.7782
-10.8209
-10.8636
-10.9061
-10.9485
-10.9908
-11.0329
-11.075
-11.117
-11.1588
-11.2005
-11.2422
-11.2837
-11.3251
-11.3663
-11.4075
-11.4486
-11.4895
-11.5304
-11.5711
-11.6118
-11.6523
-11.6927
-11.7331
-11.7733
-11.8134
-11.8534
-11.8934
-11.9332
-11.973
-12.0127
-12.0523
-12.0918
-12.1313
-12.1707
-12.21
-12.2493
-12.2885
-12.3277
-12.3669
-12.406
-12.4451
-12.4842
-12.5233
-12.5624
-12.6015
-12.6406
-12.6798
-12.719
-12.7583
-12.7976
-12.837
-12.8766
-12.9162
-12.956
-12.996
-13.0361
-13.0763
-13.1168
-13.1576
-13.1985
-13.2397
-13.2812
-13.3231
-13.3652
-13.4077
-13.4506
-13.4938
-13.5375
-13.5816
-13.6262
-13.6713
-13.7168
-13.7629
-13.8095
-13.8567
-13.9044
-13.9527
-14.0015
-14.0509
-14.1008
-14.1514
-14.2024
-14.2541
-14.3062
-14.3589
-14.4121
-14.4657
-14.5199
-14.5745
-8.10354
-8.15201
-8.1997
-8.24693
-8.29387
-8.34056
-8.38701
-8.43325
-8.47933
-8.52527
-8.57109
-8.61682
-8.66246
-8.70804
-8.75356
-8.79903
-8.84446
-8.88986
-8.93523
-8.98058
-9.02589
-9.07119
-9.11646
-9.1617
-9.20693
-9.25212
-9.29729
-9.34243
-9.38754
-9.43261
-9.47765
-9.52264
-9.56759
-9.61249
-9.65734
-9.70214
-9.74689
-9.79157
-9.8362
-9.88075
-9.92524
-9.96966
-10.014
-10.0583
-10.1025
-10.1466
-10.1906
-10.2345
-10.2784
-10.3221
-10.3658
-10.4094
-10.4529
-10.4962
-10.5395
-10.5827
-10.6258
-10.6687
-10.7116
-10.7544
-10.797
-10.8396
-10.882
-10.9243
-10.9666
-11.0087
-11.0507
-11.0926
-11.1343
-11.176
-11.2175
-11.259
-11.3003
-11.3415
-11.3826
-11.4236
-11.4645
-11.5053
-11.546
-11.5865
-11.627
-11.6674
-11.7076
-11.7478
-11.7878
-11.8278
-11.8677
-11.9075
-11.9472
-11.9868
-12.0263
-12.0658
-12.1052
-12.1445
-12.1838
-12.223
-12.2622
-12.3013
-12.3404
-12.3794
-12.4185
-12.4575
-12.4965
-12.5355
-12.5746
-12.6136
-12.6527
-12.6919
-12.7311
-12.7704
-12.8097
-12.8492
-12.8888
-12.9285
-12.9684
-13.0084
-13.0486
-13.0891
-13.1297
-13.1706
-13.2118
-13.2532
-13.295
-13.337
-13.3795
-13.4223
-13.4655
-13.5091
-13.5531
-13.5976
-13.6426
-13.6881
-13.7341
-13.7807
-13.8277
-13.8754
-13.9236
-13.9723
-14.0216
-14.0715
-14.122
-14.173
-14.2245
-14.2766
-14.3291
-14.3822
-14.4357
-14.4898
-14.5441
-14.5986
-8.07102
-8.11938
-8.16698
-8.21411
-8.26093
-8.3075
-8.35382
-8.39994
-8.4459
-8.49171
-8.53741
-8.583
-8.62852
-8.67397
-8.71937
-8.76471
-8.81002
-8.85529
-8.90053
-8.94575
-8.99094
-9.0361
-9.08125
-9.12637
-9.17146
-9.21653
-9.26157
-9.30658
-9.35156
-9.39651
-9.44142
-9.48628
-9.5311
-9.57588
-9.62061
-9.66528
-9.7099
-9.75446
-9.79896
-9.84339
-9.88775
-9.93204
-9.97626
-10.0204
-10.0645
-10.1085
-10.1524
-10.1962
-10.2399
-10.2835
-10.3271
-10.3705
-10.4139
-10.4571
-10.5003
-10.5433
-10.5863
-10.6292
-10.6719
-10.7145
-10.7571
-10.7995
-10.8418
-10.884
-10.9261
-10.9681
-11.01
-11.0518
-11.0934
-11.135
-11.1764
-11.2177
-11.2589
-11.3
-11.341
-11.3819
-11.4227
-11.4633
-11.5039
-11.5443
-11.5847
-11.6249
-11.6651
-11.7051
-11.745
-11.7849
-11.8247
-11.8643
-11.9039
-11.9434
-11.9829
-12.0222
-12.0615
-12.1007
-12.1399
-12.179
-12.218
-12.257
-12.296
-12.3349
-12.3739
-12.4128
-12.4517
-12.4906
-12.5295
-12.5685
-12.6075
-12.6465
-12.6856
-12.7248
-12.764
-12.8034
-12.8429
-12.8825
-12.9222
-12.9622
-13.0023
-13.0426
-13.0831
-13.1239
-13.165
-13.2063
-13.2479
-13.2899
-13.3322
-13.3749
-13.418
-13.4615
-13.5054
-13.5498
-13.5947
-13.64
-13.6859
-13.7323
-13.7793
-13.8268
-13.8749
-13.9235
-13.9727
-14.0224
-14.0727
-14.1236
-14.175
-14.2269
-14.2793
-14.3322
-14.3855
-14.4393
-14.4934
-14.5474
-8.02288
-8.07106
-8.11852
-8.16549
-8.21214
-8.25852
-8.30466
-8.3506
-8.39636
-8.44199
-8.4875
-8.53291
-8.57824
-8.6235
-8.66871
-8.71386
-8.75898
-8.80406
-8.84912
-8.89414
-8.93914
-8.98412
-9.02907
-9.07401
-9.11891
-9.16379
-9.20864
-9.25347
-9.29826
-9.34301
-9.38773
-9.43241
-9.47705
-9.52163
-9.56617
-9.61066
-9.65509
-9.69946
-9.74377
-9.78802
-9.83219
-9.8763
-9.92034
-9.96429
-10.0082
-10.052
-10.0957
-10.1393
-10.1829
-10.2263
-10.2697
-10.3129
-10.3561
-10.3992
-10.4422
-10.485
-10.5278
-10.5705
-10.613
-10.6555
-10.6979
-10.7401
-10.7822
-10.8243
-10.8662
-10.908
-10.9497
-10.9913
-11.0328
-11.0741
-11.1154
-11.1565
-11.1976
-11.2385
-11.2793
-11.32
-11.3606
-11.4011
-11.4415
-11.4818
-11.5219
-11.562
-11.602
-11.6419
-11.6816
-11.7213
-11.7609
-11.8004
-11.8398
-11.8792
-11.9184
-11.9576
-11.9967
-12.0358
-12.0748
-12.1137
-12.1526
-12.1914
-12.2303
-12.269
-12.3078
-12.3465
-12.3853
-12.424
-12.4628
-12.5016
-12.5404
-12.5793
-12.6182
-12.6572
-12.6963
-12.7355
-12.7748
-12.8143
-12.8539
-12.8936
-12.9336
-12.9737
-13.0141
-13.0547
-13.0956
-13.1367
-13.1782
-13.22
-13.2621
-13.3046
-13.3476
-13.3909
-13.4346
-13.4789
-13.5236
-13.5687
-13.6144
-13.6607
-13.7074
-13.7548
-13.8026
-13.8511
-13.9001
-13.9496
-13.9997
-14.0504
-14.1016
-14.1532
-14.2054
-14.2581
-14.3111
-14.3645
-14.4181
-14.4716
-14.5245
-7.95947
-8.0074
-8.05465
-8.1014
-8.14782
-8.19396
-8.23986
-8.28555
-8.33108
-8.37646
-8.42172
-8.46688
-8.51197
-8.55698
-8.60193
-8.64684
-8.69171
-8.73654
-8.78135
-8.82612
-8.87088
-8.9156
-8.96031
-9.00499
-9.04965
-9.09428
-9.13888
-9.18345
-9.228
-9.2725
-9.31697
-9.3614
-9.40579
-9.45013
-9.49442
-9.53866
-9.58285
-9.62697
-9.67104
-9.71503
-9.75897
-9.80283
-9.84662
-9.89033
-9.93397
-9.97752
-10.021
-10.0644
-10.1077
-10.1509
-10.194
-10.237
-10.28
-10.3228
-10.3655
-10.4082
-10.4507
-10.4931
-10.5355
-10.5777
-10.6198
-10.6618
-10.7037
-10.7455
-10.7872
-10.8288
-10.8702
-10.9116
-10.9528
-10.994
-11.035
-11.0759
-11.1167
-11.1574
-11.198
-11.2385
-11.2789
-11.3191
-11.3593
-11.3993
-11.4393
-11.4791
-11.5189
-11.5585
-11.5981
-11.6375
-11.6769
-11.7162
-11.7554
-11.7945
-11.8335
-11.8725
-11.9114
-11.9502
-11.989
-12.0277
-12.0664
-12.105
-12.1436
-12.1821
-12.2207
-12.2592
-12.2977
-12.3363
-12.3748
-12.4134
-12.452
-12.4906
-12.5294
-12.5682
-12.607
-12.646
-12.6851
-12.7243
-12.7637
-12.8032
-12.843
-12.8829
-12.9231
-12.9634
-13.0041
-13.045
-13.0863
-13.1278
-13.1698
-13.212
-13.2547
-13.2978
-13.3414
-13.3853
-13.4298
-13.4748
-13.5202
-13.5662
-13.6127
-13.6598
-13.7074
-13.7556
-13.8044
-13.8537
-13.9035
-13.9539
-14.0048
-14.0562
-14.108
-14.1603
-14.213
-14.2659
-14.319
-14.3718
-14.4239
-14.4752
-7.88111
-7.92874
-7.97571
-8.02219
-8.06832
-8.11416
-8.15976
-8.20515
-8.25037
-8.29545
-8.34041
-8.38526
-8.43004
-8.47474
-8.51939
-8.56399
-8.60855
-8.65308
-8.69757
-8.74204
-8.78648
-8.8309
-8.8753
-8.91967
-8.96402
-9.00834
-9.05264
-9.09691
-9.14114
-9.18534
-9.22951
-9.27363
-9.31771
-9.36174
-9.40573
-9.44966
-9.49354
-9.53736
-9.58112
-9.62482
-9.66845
-9.712
-9.75549
-9.7989
-9.84223
-9.88549
-9.92866
-9.97174
-10.0147
-10.0577
-10.1005
-10.1432
-10.1858
-10.2284
-10.2708
-10.3132
-10.3554
-10.3975
-10.4396
-10.4815
-10.5233
-10.565
-10.6067
-10.6482
-10.6896
-10.7308
-10.772
-10.8131
-10.854
-10.8949
-10.9356
-10.9763
-11.0168
-11.0572
-11.0975
-11.1377
-11.1778
-11.2178
-11.2576
-11.2974
-11.3371
-11.3766
-11.4161
-11.4555
-11.4948
-11.5339
-11.573
-11.612
-11.651
-11.6898
-11.7286
-11.7672
-11.8059
-11.8444
-11.8829
-11.9214
-11.9598
-11.9981
-12.0364
-12.0747
-12.113
-12.1513
-12.1895
-12.2278
-12.2661
-12.3044
-12.3427
-12.3811
-12.4195
-12.4581
-12.4967
-12.5354
-12.5742
-12.6132
-12.6523
-12.6915
-12.731
-12.7706
-12.8105
-12.8506
-12.891
-12.9317
-12.9726
-13.0139
-13.0556
-13.0976
-13.14
-13.1828
-13.226
-13.2697
-13.3139
-13.3585
-13.4037
-13.4494
-13.4956
-13.5424
-13.5897
-13.6376
-13.686
-13.735
-13.7845
-13.8345
-13.8851
-13.9361
-13.9876
-14.0394
-14.0916
-14.144
-14.1965
-14.2486
-14.3
-14.3504
-14.3997
-7.78814
-7.8354
-7.88204
-7.92818
-7.97396
-8.01945
-8.06469
-8.10973
-8.15459
-8.1993
-8.2439
-8.28839
-8.3328
-8.37714
-8.42142
-8.46566
-8.50985
-8.55401
-8.59814
-8.64224
-8.68632
-8.73037
-8.7744
-8.81841
-8.86239
-8.90635
-8.95028
-8.99418
-9.03805
-9.08189
-9.12569
-9.16945
-9.21316
-9.25684
-9.30046
-9.34403
-9.38755
-9.43101
-9.4744
-9.51774
-9.56101
-9.6042
-9.64733
-9.69038
-9.73336
-9.77625
-9.81907
-9.8618
-9.90444
-9.947
-9.98946
-10.0318
-10.0741
-10.1163
-10.1584
-10.2004
-10.2423
-10.2841
-10.3257
-10.3673
-10.4088
-10.4502
-10.4914
-10.5326
-10.5737
-10.6146
-10.6554
-10.6962
-10.7368
-10.7773
-10.8177
-10.858
-10.8982
-10.9382
-10.9782
-11.018
-11.0578
-11.0974
-11.137
-11.1764
-11.2158
-11.255
-11.2941
-11.3332
-11.3721
-11.411
-11.4497
-11.4884
-11.527
-11.5655
-11.604
-11.6423
-11.6806
-11.7189
-11.757
-11.7952
-11.8332
-11.8713
-11.9093
-11.9472
-11.9852
-12.0231
-12.0611
-12.099
-12.137
-12.175
-12.213
-12.251
-12.2892
-12.3274
-12.3657
-12.404
-12.4426
-12.4812
-12.52
-12.5589
-12.5981
-12.6374
-12.6769
-12.7167
-12.7568
-12.7971
-12.8377
-12.8787
-12.92
-12.9617
-13.0037
-13.0462
-13.0891
-13.1325
-13.1763
-13.2206
-13.2654
-13.3108
-13.3566
-13.403
-13.45
-13.4975
-13.5455
-13.5941
-13.6432
-13.6929
-13.743
-13.7936
-13.8446
-13.896
-13.9476
-13.9994
-14.0511
-14.1025
-14.1531
-14.2027
-14.2513
-7.68089
-7.72772
-7.77396
-7.8197
-7.86508
-7.91016
-7.95499
-7.99961
-8.04405
-8.08835
-8.13252
-8.1766
-8.22059
-8.26451
-8.30837
-8.35218
-8.39595
-8.43969
-8.4834
-8.52708
-8.57073
-8.61436
-8.65797
-8.70156
-8.74512
-8.78865
-8.83216
-8.87564
-8.91909
-8.96251
-9.00589
-9.04923
-9.09252
-9.13577
-9.17898
-9.22213
-9.26523
-9.30827
-9.35125
-9.39417
-9.43702
-9.47981
-9.52252
-9.56516
-9.60772
-9.6502
-9.6926
-9.73492
-9.77716
-9.8193
-9.86136
-9.90332
-9.94519
-9.98697
-10.0287
-10.0702
-10.1117
-10.1531
-10.1944
-10.2356
-10.2767
-10.3176
-10.3585
-10.3993
-10.4399
-10.4805
-10.5209
-10.5612
-10.6014
-10.6416
-10.6816
-10.7215
-10.7613
-10.8009
-10.8405
-10.88
-10.9194
-10.9586
-10.9978
-11.0368
-11.0758
-11.1146
-11.1534
-11.192
-11.2306
-11.2691
-11.3075
-11.3458
-11.384
-11.4221
-11.4602
-11.4982
-11.5361
-11.574
-11.6118
-11.6495
-11.6872
-11.7249
-11.7625
-11.8001
-11.8377
-11.8753
-11.9128
-11.9504
-11.988
-12.0256
-12.0633
-12.101
-12.1387
-12.1766
-12.2145
-12.2525
-12.2906
-12.3289
-12.3673
-12.4059
-12.4446
-12.4836
-12.5228
-12.5622
-12.6019
-12.6418
-12.6821
-12.7227
-12.7636
-12.8049
-12.8465
-12.8886
-12.9311
-12.9741
-13.0175
-13.0614
-13.1058
-13.1507
-13.1962
-13.2422
-13.2887
-13.3358
-13.3834
-13.4315
-13.4802
-13.5294
-13.579
-13.6291
-13.6796
-13.7304
-13.7814
-13.8325
-13.8835
-13.9341
-13.9838
-14.0327
-14.0804
-14.1269
-7.55968
-7.60602
-7.65179
-7.69709
-7.742
-7.78662
-7.83098
-7.87513
-7.9191
-7.96293
-8.00663
-8.05023
-8.09374
-8.13719
-8.18057
-8.22391
-8.2672
-8.31046
-8.35369
-8.39689
-8.44007
-8.48323
-8.52636
-8.56946
-8.61255
-8.65561
-8.69864
-8.74165
-8.78462
-8.82756
-8.87046
-8.91333
-8.95615
-8.99893
-9.04166
-9.08434
-9.12696
-9.16953
-9.21204
-9.25449
-9.29687
-9.33919
-9.38143
-9.4236
-9.4657
-9.50771
-9.54965
-9.5915
-9.63327
-9.67495
-9.71655
-9.75805
-9.79946
-9.84078
-9.882
-9.92313
-9.96416
-10.0051
-10.0459
-10.0866
-10.1273
-10.1678
-10.2082
-10.2485
-10.2887
-10.3288
-10.3688
-10.4087
-10.4485
-10.4881
-10.5277
-10.5672
-10.6065
-10.6458
-10.6849
-10.7239
-10.7629
-10.8017
-10.8404
-10.879
-10.9175
-10.956
-10.9943
-11.0325
-11.0707
-11.1087
-11.1467
-11.1845
-11.2223
-11.26
-11.2977
-11.3352
-11.3728
-11.4102
-11.4476
-11.4849
-11.5222
-11.5594
-11.5966
-11.6338
-11.671
-11.7081
-11.7453
-11.7824
-11.8196
-11.8568
-11.894
-11.9313
-11.9687
-12.0061
-12.0436
-12.0812
-12.1189
-12.1567
-12.1947
-12.2329
-12.2712
-12.3098
-12.3485
-12.3875
-12.4268
-12.4663
-12.5061
-12.5462
-12.5867
-12.6276
-12.6688
-12.7104
-12.7525
-12.795
-12.838
-12.8814
-12.9254
-12.9698
-13.0148
-13.0603
-13.1064
-13.153
-13.2001
-13.2477
-13.2959
-13.3445
-13.3936
-13.4431
-13.493
-13.5432
-13.5935
-13.6439
-13.6941
-13.7438
-13.7927
-13.8407
-13.8875
-13.9331
-13.9775
-7.42484
-7.47064
-7.51588
-7.56066
-7.60506
-7.64916
-7.693
-7.73663
-7.78007
-7.82337
-7.86654
-7.90961
-7.9526
-7.99551
-8.03837
-8.08118
-8.12394
-8.16667
-8.20937
-8.25204
-8.29469
-8.33731
-8.37991
-8.42249
-8.46504
-8.50757
-8.55007
-8.59255
-8.63499
-8.6774
-8.71978
-8.76211
-8.80441
-8.84666
-8.88886
-8.93102
-8.97312
-9.01516
-9.05715
-9.09907
-9.14093
-9.18272
-9.22445
-9.2661
-9.30767
-9.34917
-9.39059
-9.43193
-9.47318
-9.51434
-9.55542
-9.59641
-9.63731
-9.67812
-9.71883
-9.75945
-9.79997
-9.84039
-9.88071
-9.92093
-9.96105
-10.0011
-10.041
-10.0808
-10.1205
-10.1601
-10.1996
-10.239
-10.2783
-10.3174
-10.3565
-10.3955
-10.4343
-10.4731
-10.5117
-10.5503
-10.5887
-10.6271
-10.6653
-10.7034
-10.7415
-10.7794
-10.8173
-10.855
-10.8927
-10.9302
-10.9677
-11.0051
-11.0424
-11.0797
-11.1169
-11.1539
-11.191
-11.2279
-11.2649
-11.3017
-11.3385
-11.3753
-11.4121
-11.4488
-11.4855
-11.5222
-11.5588
-11.5955
-11.6322
-11.669
-11.7057
-11.7426
-11.7794
-11.8164
-11.8534
-11.8906
-11.9278
-11.9652
-12.0027
-12.0404
-12.0783
-12.1163
-12.1546
-12.1931
-12.2319
-12.2709
-12.3103
-12.3499
-12.3899
-12.4303
-12.471
-12.5122
-12.5537
-12.5957
-12.6382
-12.6812
-12.7246
-12.7685
-12.813
-12.858
-12.9035
-12.9495
-12.9961
-13.0432
-13.0907
-13.1388
-13.1873
-13.2362
-13.2854
-13.3349
-13.3845
-13.4341
-13.4834
-13.5323
-13.5803
-13.6273
-13.6733
-13.718
-13.7615
-13.8037
-7.27669
-7.32189
-7.36655
-7.41076
-7.45459
-7.49812
-7.54138
-7.58443
-7.6273
-7.67002
-7.71261
-7.7551
-7.7975
-7.83984
-7.88211
-7.92433
-7.96651
-8.00866
-8.05077
-8.09286
-8.13493
-8.17697
-8.21898
-8.26098
-8.30295
-8.3449
-8.38682
-8.42871
-8.47057
-8.5124
-8.5542
-8.59595
-8.63767
-8.67934
-8.72097
-8.76254
-8.80406
-8.84553
-8.88694
-8.92829
-8.96958
-9.01079
-9.05194
-9.09302
-9.13403
-9.17495
-9.2158
-9.25657
-9.29726
-9.33786
-9.37837
-9.4188
-9.45913
-9.49938
-9.53953
-9.57959
-9.61955
-9.65941
-9.69918
-9.73884
-9.77841
-9.81787
-9.85724
-9.89649
-9.93565
-9.9747
-10.0137
-10.0525
-10.0912
-10.1299
-10.1684
-10.2068
-10.2451
-10.2834
-10.3215
-10.3595
-10.3974
-10.4352
-10.4729
-10.5105
-10.548
-10.5854
-10.6227
-10.66
-10.6971
-10.7341
-10.7711
-10.808
-10.8448
-10.8815
-10.9181
-10.9547
-10.9912
-11.0277
-11.0641
-11.1004
-11.1367
-11.173
-11.2092
-11.2454
-11.2816
-11.3178
-11.354
-11.3901
-11.4263
-11.4626
-11.4988
-11.5351
-11.5715
-11.6079
-11.6445
-11.6811
-11.7178
-11.7547
-11.7917
-11.8289
-11.8662
-11.9038
-11.9415
-11.9795
-12.0178
-12.0563
-12.0951
-12.1342
-12.1737
-12.2135
-12.2537
-12.2943
-12.3353
-12.3768
-12.4187
-12.4611
-12.5039
-12.5473
-12.5912
-12.6356
-12.6805
-12.726
-12.7719
-12.8184
-12.8653
-12.9127
-12.9605
-13.0087
-13.0573
-13.106
-13.1548
-13.2035
-13.252
-13.2999
-13.347
-13.3931
-13.4382
-13.482
-13.5246
-13.5659
-7.11557
-7.1601
-7.20413
-7.24771
-7.29092
-7.33382
-7.37645
-7.41887
-7.46111
-7.5032
-7.54516
-7.58702
-7.62879
-7.67049
-7.71213
-7.75372
-7.79527
-7.83678
-7.87826
-7.91971
-7.96114
-8.00255
-8.04393
-8.08529
-8.12663
-8.16794
-8.20923
-8.25049
-8.29172
-8.33292
-8.37408
-8.41521
-8.45629
-8.49733
-8.53833
-8.57928
-8.62017
-8.66101
-8.7018
-8.74252
-8.78318
-8.82377
-8.8643
-8.90476
-8.94514
-8.98545
-9.02568
-9.06583
-9.1059
-9.14588
-9.18578
-9.22559
-9.26532
-9.30495
-9.34449
-9.38394
-9.42329
-9.46255
-9.50171
-9.54077
-9.57974
-9.6186
-9.65736
-9.69602
-9.73458
-9.77303
-9.81139
-9.84964
-9.88778
-9.92583
-9.96377
-10.0016
-10.0393
-10.077
-10.1145
-10.1519
-10.1892
-10.2265
-10.2636
-10.3006
-10.3376
-10.3744
-10.4111
-10.4478
-10.4844
-10.5208
-10.5572
-10.5935
-10.6298
-10.6659
-10.702
-10.738
-10.774
-10.8099
-10.8457
-10.8815
-10.9172
-10.9529
-10.9886
-11.0242
-11.0599
-11.0955
-11.1311
-11.1667
-11.2024
-11.238
-11.2738
-11.3095
-11.3453
-11.3812
-11.4172
-11.4532
-11.4894
-11.5257
-11.5622
-11.5988
-11.6356
-11.6725
-11.7097
-11.7472
-11.7848
-11.8228
-11.861
-11.8996
-11.9385
-11.9777
-12.0173
-12.0573
-12.0977
-12.1386
-12.1799
-12.2216
-12.2639
-12.3066
-12.3499
-12.3937
-12.4379
-12.4827
-12.528
-12.5738
-12.6201
-12.6668
-12.7139
-12.7613
-12.8091
-12.857
-12.905
-12.9528
-13.0003
-13.0473
-13.0934
-13.1386
-13.1827
-13.2255
-13.2672
-13.3076
-13.3467
-6.94179
-6.98561
-7.02895
-7.07185
-7.11437
-7.15659
-7.19855
-7.24029
-7.28185
-7.32326
-7.36454
-7.40572
-7.4468
-7.48782
-7.52877
-7.56968
-7.61054
-7.65137
-7.69217
-7.73294
-7.77368
-7.8144
-7.8551
-7.89578
-7.93643
-7.97706
-8.01767
-8.05825
-8.09879
-8.13931
-8.17979
-8.22024
-8.26064
-8.30101
-8.34132
-8.38159
-8.42181
-8.46198
-8.50208
-8.54213
-8.58212
-8.62204
-8.6619
-8.70168
-8.74139
-8.78103
-8.8206
-8.86008
-8.89948
-8.9388
-8.97804
-9.01719
-9.05625
-9.09523
-9.13411
-9.1729
-9.2116
-9.2502
-9.28871
-9.32712
-9.36543
-9.40365
-9.44176
-9.47978
-9.51769
-9.5555
-9.59321
-9.63082
-9.66833
-9.70574
-9.74304
-9.78024
-9.81734
-9.85434
-9.89124
-9.92804
-9.96473
-10.0013
-10.0378
-10.0742
-10.1106
-10.1468
-10.1829
-10.2189
-10.2549
-10.2907
-10.3265
-10.3622
-10.3978
-10.4334
-10.4689
-10.5043
-10.5396
-10.5749
-10.6101
-10.6453
-10.6804
-10.7155
-10.7506
-10.7857
-10.8207
-10.8557
-10.8907
-10.9258
-10.9608
-10.9959
-11.031
-11.0661
-11.1013
-11.1366
-11.172
-11.2074
-11.243
-11.2787
-11.3146
-11.3506
-11.3868
-11.4231
-11.4597
-11.4965
-11.5336
-11.5709
-11.6085
-11.6464
-11.6847
-11.7233
-11.7623
-11.8016
-11.8414
-11.8816
-11.9223
-11.9634
-12.005
-12.047
-12.0896
-12.1327
-12.1763
-12.2204
-12.2649
-12.31
-12.3555
-12.4015
-12.4478
-12.4945
-12.5414
-12.5884
-12.6355
-12.6824
-12.729
-12.7749
-12.8201
-12.8642
-12.9073
-12.9492
-12.9899
-13.0293
-13.0675
-13.1044
-6.75568
-6.79874
-6.84133
-6.88349
-6.92529
-6.96678
-7.00801
-7.04902
-7.08985
-7.13053
-7.17108
-7.21152
-7.25188
-7.29216
-7.33238
-7.37256
-7.41269
-7.45278
-7.49285
-7.53288
-7.5729
-7.61289
-7.65285
-7.6928
-7.73272
-7.77262
-7.81249
-7.85234
-7.89216
-7.93194
-7.9717
-8.01141
-8.05109
-8.09073
-8.13032
-8.16986
-8.20935
-8.24879
-8.28818
-8.3275
-8.36677
-8.40597
-8.44511
-8.48417
-8.52317
-8.56209
-8.60094
-8.63971
-8.6784
-8.71701
-8.75553
-8.79398
-8.83233
-8.8706
-8.90878
-8.94687
-8.98486
-9.02276
-9.06057
-9.09829
-9.1359
-9.17342
-9.21084
-9.24817
-9.28539
-9.32251
-9.35954
-9.39646
-9.43329
-9.47001
-9.50663
-9.54315
-9.57958
-9.6159
-9.65212
-9.68824
-9.72427
-9.7602
-9.79603
-9.83177
-9.86742
-9.90297
-9.93843
-9.97381
-10.0091
-10.0443
-10.0794
-10.1145
-10.1494
-10.1843
-10.2191
-10.2539
-10.2886
-10.3232
-10.3578
-10.3923
-10.4268
-10.4613
-10.4957
-10.5301
-10.5645
-10.5989
-10.6333
-10.6676
-10.702
-10.7365
-10.7709
-10.8054
-10.84
-10.8746
-10.9094
-10.9442
-10.9791
-11.0142
-11.0494
-11.0847
-11.1203
-11.156
-11.1919
-11.2281
-11.2645
-11.3011
-11.3381
-11.3753
-11.4129
-11.4508
-11.4891
-11.5278
-11.5669
-11.6064
-11.6463
-11.6867
-11.7276
-11.769
-11.8108
-11.8531
-11.896
-11.9393
-11.9831
-12.0274
-12.0721
-12.1173
-12.1628
-12.2086
-12.2546
-12.3008
-12.3469
-12.3928
-12.4384
-12.4833
-12.5274
-12.5706
-12.6126
-12.6535
-12.6932
-12.7316
-12.7688
-12.8048
-6.55757
-6.59981
-6.6416
-6.68298
-6.72399
-6.7647
-6.80516
-6.84539
-6.88544
-6.92534
-6.96511
-7.00478
-7.04435
-7.08386
-7.1233
-7.16269
-7.20205
-7.24136
-7.28064
-7.3199
-7.35913
-7.39834
-7.43753
-7.4767
-7.51584
-7.55496
-7.59406
-7.63313
-7.67217
-7.71118
-7.75015
-7.78909
-7.828
-7.86686
-7.90568
-7.94445
-7.98317
-8.02184
-8.06045
-8.09901
-8.13751
-8.17594
-8.21431
-8.25261
-8.29084
-8.329
-8.36709
-8.4051
-8.44303
-8.48088
-8.51865
-8.55634
-8.59394
-8.63146
-8.66889
-8.70623
-8.74348
-8.78063
-8.8177
-8.85467
-8.89154
-8.92832
-8.96501
-9.00159
-9.03808
-9.07447
-9.11077
-9.14696
-9.18306
-9.21905
-9.25495
-9.29075
-9.32645
-9.36205
-9.39755
-9.43296
-9.46827
-9.50349
-9.53861
-9.57364
-9.60858
-9.64342
-9.67818
-9.71285
-9.74743
-9.78193
-9.81635
-9.8507
-9.88496
-9.91916
-9.95329
-9.98735
-10.0214
-10.0553
-10.0892
-10.123
-10.1568
-10.1906
-10.2244
-10.2581
-10.2918
-10.3255
-10.3592
-10.3929
-10.4266
-10.4603
-10.4941
-10.5279
-10.5618
-10.5958
-10.6298
-10.6639
-10.6982
-10.7325
-10.767
-10.8017
-10.8365
-10.8716
-10.9068
-10.9422
-10.9779
-11.0139
-11.0501
-11.0867
-11.1235
-11.1607
-11.1983
-11.2362
-11.2746
-11.3134
-11.3526
-11.3922
-11.4323
-11.4729
-11.514
-11.5555
-11.5976
-11.6401
-11.6831
-11.7265
-11.7704
-11.8147
-11.8593
-11.9042
-11.9493
-11.9945
-12.0397
-12.0846
-12.1291
-12.173
-12.216
-12.2581
-12.2991
-12.339
-12.3776
-12.415
-12.4512
-12.4862
-12.5199
-6.34778
-6.38916
-6.43009
-6.47063
-6.51082
-6.5507
-6.59033
-6.62974
-6.66896
-6.70804
-6.74698
-6.78582
-6.82457
-6.86325
-6.90187
-6.94044
-6.97896
-7.01745
-7.05591
-7.09434
-7.13275
-7.17113
-7.20949
-7.24784
-7.28615
-7.32445
-7.36272
-7.40097
-7.43918
-7.47737
-7.51553
-7.55365
-7.59173
-7.62977
-7.66777
-7.70572
-7.74362
-7.78148
-7.81928
-7.85702
-7.8947
-7.93233
-7.96988
-8.00738
-8.0448
-8.08215
-8.11943
-8.15664
-8.19377
-8.23082
-8.26779
-8.30468
-8.34148
-8.3782
-8.41483
-8.45138
-8.48784
-8.52421
-8.56048
-8.59667
-8.63276
-8.66875
-8.70465
-8.74046
-8.77617
-8.81179
-8.8473
-8.88273
-8.91805
-8.95328
-8.98841
-9.02344
-9.05838
-9.09322
-9.12796
-9.16261
-9.19716
-9.23162
-9.26599
-9.30027
-9.33445
-9.36855
-9.40256
-9.43648
-9.47032
-9.50408
-9.53776
-9.57136
-9.60489
-9.63835
-9.67174
-9.70507
-9.73834
-9.77156
-9.80472
-9.83784
-9.87091
-9.90396
-9.93697
-9.96996
-10.0029
-10.0359
-10.0689
-10.1018
-10.1348
-10.1679
-10.2009
-10.234
-10.2672
-10.3004
-10.3337
-10.3671
-10.4006
-10.4343
-10.468
-10.502
-10.5361
-10.5703
-10.6048
-10.6395
-10.6745
-10.7097
-10.7452
-10.781
-10.8171
-10.8535
-10.8903
-10.9275
-10.965
-11.003
-11.0414
-11.0803
-11.1196
-11.1593
-11.1996
-11.2403
-11.2815
-11.3232
-11.3653
-11.4079
-11.4509
-11.4943
-11.538
-11.5819
-11.626
-11.6702
-11.7143
-11.7582
-11.8016
-11.8444
-11.8864
-11.9274
-11.9673
-12.0061
-12.0437
-12.08
-12.1152
-12.1491
-12.1818
-12.2133
-6.12664
-6.1671
-6.20714
-6.24678
-6.28609
-6.3251
-6.36385
-6.40239
-6.44074
-6.47895
-6.51702
-6.55499
-6.59287
-6.63068
-6.66843
-6.70612
-6.74378
-6.7814
-6.81899
-6.85655
-6.89408
-6.9316
-6.96909
-7.00656
-7.04401
-7.08144
-7.11884
-7.15622
-7.19357
-7.23089
-7.26818
-7.30543
-7.34265
-7.37983
-7.41696
-7.45405
-7.4911
-7.52809
-7.56503
-7.60191
-7.63874
-7.67551
-7.71221
-7.74885
-7.78542
-7.82192
-7.85835
-7.89471
-7.93099
-7.9672
-8.00332
-8.03937
-8.07533
-8.11121
-8.14701
-8.18272
-8.21834
-8.25388
-8.28932
-8.32468
-8.35994
-8.39511
-8.43019
-8.46517
-8.50007
-8.53486
-8.56956
-8.60417
-8.63868
-8.6731
-8.70742
-8.74164
-8.77577
-8.80981
-8.84375
-8.8776
-8.91136
-8.94502
-8.97859
-9.01208
-9.04547
-9.07878
-9.112
-9.14514
-9.17819
-9.21117
-9.24407
-9.27689
-9.30964
-9.34232
-9.37494
-9.4075
-9.43999
-9.47243
-9.50483
-9.53717
-9.56948
-9.60176
-9.634
-9.66623
-9.69844
-9.73064
-9.76284
-9.79505
-9.82728
-9.85954
-9.89183
-9.92416
-9.95656
-9.98902
-10.0216
-10.0542
-10.0869
-10.1198
-10.1528
-10.186
-10.2193
-10.2528
-10.2865
-10.3204
-10.3546
-10.389
-10.4237
-10.4587
-10.494
-10.5296
-10.5656
-10.6019
-10.6387
-10.6758
-10.7134
-10.7514
-10.7898
-10.8287
-10.8681
-10.908
-10.9483
-10.989
-11.0303
-11.0719
-11.114
-11.1564
-11.1991
-11.2421
-11.2852
-11.3283
-11.3714
-11.4141
-11.4564
-11.4981
-11.539
-11.5789
-11.6177
-11.6554
-11.6919
-11.7272
-11.7612
-11.794
-11.8257
-11.8561
-11.8854
-5.89446
-5.93396
-5.97305
-6.01177
-6.05014
-6.08823
-6.12606
-6.16369
-6.20112
-6.23841
-6.27557
-6.31263
-6.34959
-6.38649
-6.42332
-6.4601
-6.49684
-6.53355
-6.57022
-6.60687
-6.64349
-6.68009
-6.71667
-6.75323
-6.78977
-6.82629
-6.86278
-6.89924
-6.93568
-6.97209
-7.00847
-7.04482
-7.08113
-7.1174
-7.15363
-7.18981
-7.22595
-7.26204
-7.29808
-7.33406
-7.36999
-7.40585
-7.44166
-7.4774
-7.51308
-7.54869
-7.58423
-7.61969
-7.65509
-7.6904
-7.72565
-7.76081
-7.79589
-7.83089
-7.86581
-7.90064
-7.93539
-7.97005
-8.00462
-8.0391
-8.0735
-8.1078
-8.14202
-8.17614
-8.21017
-8.24411
-8.27795
-8.3117
-8.34536
-8.37892
-8.41239
-8.44577
-8.47906
-8.51225
-8.54535
-8.57836
-8.61127
-8.6441
-8.67684
-8.70949
-8.74205
-8.77453
-8.80693
-8.83924
-8.87147
-8.90363
-8.9357
-8.96771
-8.99964
-9.03151
-9.06331
-9.09505
-9.12674
-9.15837
-9.18995
-9.2215
-9.253
-9.28447
-9.31591
-9.34733
-9.37873
-9.41013
-9.44153
-9.47294
-9.50437
-9.53582
-9.56731
-9.59884
-9.63043
-9.66209
-9.69383
-9.72566
-9.7576
-9.78966
-9.82185
-9.85419
-9.8867
-9.91939
-9.95227
-9.98537
-10.0187
-10.0523
-10.0861
-10.1203
-10.1547
-10.1895
-10.2246
-10.2601
-10.296
-10.3323
-10.369
-10.4061
-10.4436
-10.4816
-10.5201
-10.559
-10.5984
-10.6382
-10.6785
-10.7192
-10.7602
-10.8017
-10.8434
-10.8853
-10.9273
-10.9694
-11.0113
-11.0529
-11.0941
-11.1346
-11.1743
-11.2131
-11.2508
-11.2873
-11.3227
-11.3569
-11.3899
-11.4216
-11.4521
-11.4816
-11.5098
-5.65158
-5.69007
-5.72817
-5.7659
-5.80331
-5.84043
-5.8773
-5.91396
-5.95044
-5.98677
-6.02297
-6.05907
-6.09508
-6.13101
-6.16689
-6.20272
-6.2385
-6.27425
-6.30997
-6.34566
-6.38133
-6.41697
-6.4526
-6.4882
-6.52378
-6.55934
-6.59488
-6.6304
-6.66588
-6.70134
-6.73677
-6.77216
-6.80752
-6.84285
-6.87813
-6.91337
-6.94856
-6.9837
-7.0188
-7.05384
-7.08882
-7.12375
-7.15862
-7.19342
-7.22816
-7.26284
-7.29744
-7.33198
-7.36644
-7.40083
-7.43515
-7.46938
-7.50354
-7.53762
-7.57162
-7.60553
-7.63936
-7.67311
-7.70677
-7.74034
-7.77383
-7.80723
-7.84054
-7.87375
-7.90688
-7.93992
-7.97287
-8.00573
-8.03849
-8.07117
-8.10375
-8.13624
-8.16864
-8.20095
-8.23317
-8.2653
-8.29734
-8.32929
-8.36116
-8.39293
-8.42463
-8.45624
-8.48777
-8.51922
-8.55059
-8.58188
-8.6131
-8.64425
-8.67533
-8.70634
-8.73729
-8.76819
-8.79902
-8.82981
-8.86054
-8.89124
-8.9219
-8.95252
-8.98312
-9.0137
-9.04426
-9.07482
-9.10538
-9.13595
-9.16654
-9.19715
-9.2278
-9.25849
-9.28924
-9.32006
-9.35096
-9.38195
-9.41304
-9.44425
-9.4756
-9.50709
-9.53874
-9.57057
-9.6026
-9.63484
-9.6673
-9.70002
-9.733
-9.76626
-9.79983
-9.83371
-9.86794
-9.90253
-9.93749
-9.97284
-10.0086
-10.0448
-10.0814
-10.1184
-10.1559
-10.1939
-10.2323
-10.2711
-10.3104
-10.3501
-10.3901
-10.4305
-10.4712
-10.512
-10.5529
-10.5939
-10.6346
-10.6751
-10.7151
-10.7544
-10.793
-10.8306
-10.8671
-10.9025
-10.9367
-10.9698
-11.0016
-11.0323
-11.0617
-11.0901
-11.1173
-11.1434
-5.39832
-5.43576
-5.47282
-5.50952
-5.54591
-5.58202
-5.61788
-5.65354
-5.68902
-5.72435
-5.75955
-5.79465
-5.82966
-5.8646
-5.89948
-5.9343
-5.96909
-6.00384
-6.03856
-6.07326
-6.10793
-6.14258
-6.17721
-6.21182
-6.24641
-6.28097
-6.31552
-6.35004
-6.38453
-6.419
-6.45343
-6.48784
-6.52221
-6.55654
-6.59083
-6.62508
-6.65929
-6.69345
-6.72756
-6.76162
-6.79562
-6.82957
-6.86346
-6.89728
-6.93105
-6.96475
-6.99838
-7.03195
-7.06544
-7.09886
-7.13221
-7.16548
-7.19868
-7.23179
-7.26483
-7.29779
-7.33067
-7.36346
-7.39617
-7.42879
-7.46133
-7.49379
-7.52615
-7.55843
-7.59062
-7.62272
-7.65473
-7.68665
-7.71849
-7.75023
-7.78189
-7.81346
-7.84493
-7.87632
-7.90762
-7.93884
-7.96996
-8.001
-8.03196
-8.06283
-8.09362
-8.12432
-8.15495
-8.1855
-8.21597
-8.24637
-8.27669
-8.30695
-8.33713
-8.36726
-8.39732
-8.42733
-8.45728
-8.48718
-8.51703
-8.54685
-8.57662
-8.60637
-8.63609
-8.66579
-8.69548
-8.72516
-8.75485
-8.78454
-8.81425
-8.84399
-8.87376
-8.90358
-8.93345
-8.96339
-8.99341
-9.02352
-9.05373
-9.08406
-9.11451
-9.14512
-9.17588
-9.20682
-9.23795
-9.26929
-9.30085
-9.33265
-9.36472
-9.39707
-9.42971
-9.46267
-9.49596
-9.5296
-9.56361
-9.59801
-9.6328
-9.66801
-9.70364
-9.7397
-9.7762
-9.81314
-9.85052
-9.88834
-9.92656
-9.96518
-10.0042
-10.0434
-10.083
-10.1227
-10.1625
-10.2023
-10.2419
-10.2812
-10.32
-10.3581
-10.3954
-10.4318
-10.4671
-10.5014
-10.5345
-10.5663
-10.597
-10.6265
-10.6549
-10.6821
-10.7082
-10.7333
-10.7573
-5.135
-5.17134
-5.20732
-5.24296
-5.27828
-5.31334
-5.34815
-5.38276
-5.4172
-5.45148
-5.48565
-5.51971
-5.55368
-5.58758
-5.62142
-5.65521
-5.68896
-5.72268
-5.75636
-5.79002
-5.82366
-5.85727
-5.89087
-5.92444
-5.95799
-5.99153
-6.02504
-6.05852
-6.09199
-6.12542
-6.15883
-6.1922
-6.22554
-6.25884
-6.29211
-6.32533
-6.35852
-6.39165
-6.42474
-6.45777
-6.49076
-6.52369
-6.55656
-6.58937
-6.62212
-6.65481
-6.68743
-6.71998
-6.75247
-6.78488
-6.81723
-6.8495
-6.88169
-6.91381
-6.94585
-6.97781
-7.0097
-7.0415
-7.07322
-7.10486
-7.13641
-7.16788
-7.19926
-7.23056
-7.26177
-7.2929
-7.32394
-7.3549
-7.38576
-7.41654
-7.44723
-7.47784
-7.50835
-7.53879
-7.56913
-7.59939
-7.62957
-7.65966
-7.68967
-7.7196
-7.74944
-7.77921
-7.8089
-7.83851
-7.86805
-7.89751
-7.9269
-7.95623
-7.98549
-8.01469
-8.04383
-8.07291
-8.10194
-8.13092
-8.15986
-8.18876
-8.21762
-8.24645
-8.27526
-8.30405
-8.33282
-8.3616
-8.39037
-8.41915
-8.44795
-8.47678
-8.50564
-8.53454
-8.5635
-8.59253
-8.62163
-8.65083
-8.68012
-8.70953
-8.73907
-8.76875
-8.79858
-8.82859
-8.85879
-8.88919
-8.91981
-8.95067
-8.98179
-9.01318
-9.04486
-9.07685
-9.10917
-9.14183
-9.17485
-9.20825
-9.24204
-9.27624
-9.31084
-9.34588
-9.38134
-9.41723
-9.45355
-9.49028
-9.52742
-9.56494
-9.60281
-9.64097
-9.67937
-9.71794
-9.75656
-9.79514
-9.83353
-9.87158
-9.90914
-9.94605
-9.98214
-10.0173
-10.0514
-10.0845
-10.1164
-10.1471
-10.1766
-10.2049
-10.2322