/*--------------------------------*- C++ -*----------------------------------*\
| =========                 |                                                 |
| \\      /  F ield         | OpenFOAM: The Open Source CFD Toolbox           |
|  \\    /   O peration     | Version:  2512                                  |
|   \\  /    A nd           | Website:  www.openfoam.com                      |
|    \\/     M anipulation  |                                                 |
\*---------------------------------------------------------------------------*/
FoamFile
{
    version     2.0;
    format      ascii;
    arch        "LSB;label=32;scalar=64";
    class       surfaceScalarField;
    location    "0.1";
    object      phi;
}
// * * * * * * * * * * * * * * * * * * * * * * * * * * * * * * * * * * * * * //

dimensions      [1 0 -1 0 0 0 0];

oriented        oriented;

internalField   nonuniform List<scalar> 
16432
(
0.00115415
-7.20114e-07
0.00115423
-7.52436e-07
0.00115432
-7.60219e-07
0.00115439
-7.33633e-07
0.00115443
-7.16065e-07
0.00115448
-7.14319e-07
0.00115452
-7.1507e-07
0.00115457
-7.13965e-07
0.00115461
-7.12363e-07
0.00115465
-7.10936e-07
0.00115468
-7.09554e-07
0.00115472
-7.08145e-07
0.00115475
-7.06722e-07
0.00115479
-7.053e-07
0.00115482
-7.03879e-07
0.00115484
-7.02459e-07
0.00115487
-7.01041e-07
0.0011549
-6.99625e-07
0.00115492
-6.98211e-07
0.00115494
-6.968e-07
0.00115496
-6.95392e-07
0.00115498
-6.93987e-07
0.001155
-6.92584e-07
0.00115501
-6.91184e-07
0.00115502
-6.89788e-07
0.00115503
-6.88393e-07
0.00115504
-6.87001e-07
0.00115505
-6.85614e-07
0.00115506
-6.84228e-07
0.00115506
-6.82845e-07
0.00115506
-6.81466e-07
0.00115507
-6.80089e-07
0.00115506
-6.78715e-07
0.00115506
-6.77344e-07
0.00115506
-6.75976e-07
0.00115505
-6.74611e-07
0.00115504
-6.73249e-07
0.00115503
-6.71889e-07
0.00115502
-6.70533e-07
0.00115501
-6.6918e-07
0.001155
-6.67829e-07
0.00115498
-6.66481e-07
0.00115496
-6.65137e-07
0.00115494
-6.63795e-07
0.00115492
-6.62455e-07
0.0011549
-6.61119e-07
0.00115487
-6.59787e-07
0.00115485
-6.58457e-07
0.00115482
-6.57129e-07
0.00115479
-6.55805e-07
0.00115476
-6.54485e-07
0.00115472
-6.53167e-07
0.00115469
-6.51852e-07
0.00115465
-6.5054e-07
0.00115462
-6.49231e-07
0.00115458
-6.47925e-07
0.00115453
-6.46623e-07
0.00115449
-6.45323e-07
0.00115445
-6.44027e-07
0.0011544
-6.42734e-07
0.00115435
-6.41444e-07
0.0011543
-6.40158e-07
0.00115425
-6.38874e-07
0.0011542
-6.37593e-07
0.00115415
-6.36316e-07
0.00115409
-6.35043e-07
0.00115403
-6.33772e-07
0.00115398
-6.32504e-07
0.00115392
-6.3124e-07
0.00115385
-6.29979e-07
0.00115379
-6.28722e-07
0.00115373
-6.27468e-07
0.00115366
-6.26218e-07
0.00115359
-6.2497e-07
0.00115352
-6.23726e-07
0.00115345
-6.22486e-07
0.00115338
-6.21249e-07
0.0011533
-6.20015e-07
0.00115323
-6.18785e-07
0.00115315
-6.17558e-07
0.00115307
-6.16335e-07
0.00115299
-6.15116e-07
0.00115291
-6.139e-07
0.00115282
-6.12687e-07
0.00115274
-6.11478e-07
0.00115265
-6.10272e-07
0.00115256
-6.09071e-07
0.00115247
-6.07873e-07
0.00115238
-6.06678e-07
0.00115229
-6.05487e-07
0.0011522
-6.043e-07
0.0011521
-6.03117e-07
0.001152
-6.01938e-07
0.0011519
-6.00762e-07
0.0011518
-5.9959e-07
0.0011517
-5.98422e-07
0.0011516
-5.97259e-07
0.0011515
-5.96099e-07
0.00115139
-5.94942e-07
0.00115128
-5.9379e-07
0.00115117
-5.92642e-07
0.00115106
-5.91498e-07
0.00115095
-5.90358e-07
0.00115084
-5.89223e-07
0.00115073
-5.88092e-07
0.00115061
-5.86965e-07
0.00115049
-5.85843e-07
0.00115037
-5.84725e-07
0.00115025
-5.83611e-07
0.00115013
-5.82503e-07
0.00115001
-5.81399e-07
0.00114989
-5.80301e-07
0.00114976
-5.79206e-07
0.00114963
-5.78117e-07
0.0011495
-5.77033e-07
0.00114938
-5.75954e-07
0.00114924
-5.7488e-07
0.00114911
-5.73812e-07
0.00114898
-5.7275e-07
0.00114884
-5.71694e-07
0.00114871
-5.70644e-07
0.00114857
-5.69601e-07
0.00114843
-5.68564e-07
0.00114829
-5.67536e-07
0.00114815
-5.66514e-07
0.00114801
-5.65501e-07
0.00114786
-5.64498e-07
0.00114772
-5.63505e-07
0.00114757
-5.62523e-07
0.00114742
-5.61556e-07
0.00114727
-5.60604e-07
0.00114712
-5.59671e-07
0.00114697
-5.58761e-07
0.00114682
-5.5788e-07
0.00114667
-5.57037e-07
0.00114651
-5.56241e-07
0.00114636
-5.55511e-07
0.0011462
-5.54861e-07
0.00114604
-5.54346e-07
0.00114588
-5.53962e-07
0.00114573
-5.53886e-07
0.00114557
-5.54098e-07
0.00114541
-5.54707e-07
0.00114525
-5.57497e-07
0.0011451
-5.56138e-07
0.00114496
-5.76848e-07
0.0011448
-5.53369e-07
0.00114477
-6.83067e-07
-7.01168e-07
0.00211963
-1.39362e-06
0.00211956
-1.43898e-06
0.0021195
-1.45733e-06
0.00211943
-1.42287e-06
0.00211935
-1.39542e-06
0.00211926
-1.39142e-06
0.00211917
-1.39331e-06
0.00211907
-1.39338e-06
0.00211898
-1.39283e-06
0.00211888
-1.39255e-06
0.00211878
-1.39234e-06
0.00211868
-1.3921e-06
0.00211858
-1.39184e-06
0.00211847
-1.39158e-06
0.00211837
-1.39131e-06
0.00211826
-1.39105e-06
0.00211815
-1.39078e-06
0.00211804
-1.39052e-06
0.00211793
-1.39026e-06
0.00211781
-1.39e-06
0.00211769
-1.38974e-06
0.00211758
-1.38948e-06
0.00211746
-1.38922e-06
0.00211733
-1.38896e-06
0.00211721
-1.38871e-06
0.00211708
-1.38845e-06
0.00211696
-1.3882e-06
0.00211683
-1.38795e-06
0.0021167
-1.3877e-06
0.00211657
-1.38745e-06
0.00211643
-1.3872e-06
0.0021163
-1.38695e-06
0.00211616
-1.3867e-06
0.00211602
-1.38645e-06
0.00211588
-1.38621e-06
0.00211574
-1.38596e-06
0.00211559
-1.38572e-06
0.00211545
-1.38548e-06
0.0021153
-1.38523e-06
0.00211515
-1.38499e-06
0.002115
-1.38475e-06
0.00211484
-1.38451e-06
0.00211469
-1.38428e-06
0.00211453
-1.38404e-06
0.00211438
-1.3838e-06
0.00211422
-1.38356e-06
0.00211406
-1.38333e-06
0.00211389
-1.38309e-06
0.00211373
-1.38285e-06
0.00211356
-1.38262e-06
0.0021134
-1.38239e-06
0.00211323
-1.38215e-06
0.00211305
-1.38192e-06
0.00211288
-1.38169e-06
0.00211271
-1.38146e-06
0.00211253
-1.38123e-06
0.00211235
-1.381e-06
0.00211218
-1.38077e-06
0.00211199
-1.38054e-06
0.00211181
-1.38031e-06
0.00211163
-1.38008e-06
0.00211144
-1.37986e-06
0.00211126
-1.37963e-06
0.00211107
-1.37941e-06
0.00211088
-1.37918e-06
0.00211068
-1.37896e-06
0.00211049
-1.37873e-06
0.0021103
-1.37851e-06
0.0021101
-1.37829e-06
0.0021099
-1.37807e-06
0.0021097
-1.37785e-06
0.0021095
-1.37763e-06
0.0021093
-1.37741e-06
0.00210909
-1.37719e-06
0.00210889
-1.37697e-06
0.00210868
-1.37675e-06
0.00210847
-1.37653e-06
0.00210826
-1.37632e-06
0.00210805
-1.3761e-06
0.00210783
-1.37589e-06
0.00210762
-1.37567e-06
0.0021074
-1.37546e-06
0.00210718
-1.37525e-06
0.00210696
-1.37504e-06
0.00210674
-1.37483e-06
0.00210652
-1.37462e-06
0.0021063
-1.37441e-06
0.00210607
-1.3742e-06
0.00210584
-1.37399e-06
0.00210561
-1.37378e-06
0.00210538
-1.37358e-06
0.00210515
-1.37337e-06
0.00210492
-1.37317e-06
0.00210468
-1.37297e-06
0.00210445
-1.37277e-06
0.00210421
-1.37257e-06
0.00210397
-1.37237e-06
0.00210373
-1.37217e-06
0.00210349
-1.37197e-06
0.00210325
-1.37178e-06
0.002103
-1.37159e-06
0.00210275
-1.37139e-06
0.00210251
-1.3712e-06
0.00210226
-1.37102e-06
0.00210201
-1.37083e-06
0.00210176
-1.37065e-06
0.0021015
-1.37046e-06
0.00210125
-1.37028e-06
0.00210099
-1.37011e-06
0.00210073
-1.36993e-06
0.00210048
-1.36976e-06
0.00210022
-1.36959e-06
0.00209995
-1.36943e-06
0.00209969
-1.36926e-06
0.00209943
-1.36911e-06
0.00209916
-1.36895e-06
0.00209889
-1.3688e-06
0.00209863
-1.36866e-06
0.00209836
-1.36852e-06
0.00209809
-1.36838e-06
0.00209781
-1.36825e-06
0.00209754
-1.36813e-06
0.00209727
-1.36802e-06
0.00209699
-1.36792e-06
0.00209671
-1.36783e-06
0.00209643
-1.36774e-06
0.00209616
-1.36768e-06
0.00209587
-1.36763e-06
0.00209559
-1.36759e-06
0.00209531
-1.36758e-06
0.00209502
-1.3676e-06
0.00209474
-1.36766e-06
0.00209445
-1.36776e-06
0.00209416
-1.36792e-06
0.00209388
-1.36817e-06
0.00209359
-1.36851e-06
0.0020933
-1.36899e-06
0.002093
-1.36966e-06
0.00209271
-1.3706e-06
0.00209242
-1.37188e-06
0.00209213
-1.37376e-06
0.00209183
-1.37638e-06
0.00209154
-1.38003e-06
0.00209126
-1.38723e-06
0.00209097
-1.3912e-06
0.0020907
-1.42606e-06
0.00209042
-1.40104e-06
0.0020902
-1.59141e-06
0.00208997
-1.48042e-06
-2.11414e-06
0.00248505
-1.51453e-06
0.00248476
-1.54903e-06
0.00248446
-1.56874e-06
0.00248416
-1.54055e-06
0.00248387
-1.51248e-06
0.00248357
-1.50585e-06
0.00248326
-1.50663e-06
0.00248296
-1.5064e-06
0.00248265
-1.5057e-06
0.00248234
-1.5053e-06
0.00248203
-1.50502e-06
0.00248172
-1.50472e-06
0.0024814
-1.5044e-06
0.00248108
-1.50409e-06
0.00248077
-1.50378e-06
0.00248045
-1.50347e-06
0.00248012
-1.50316e-06
0.0024798
-1.50285e-06
0.00247948
-1.50254e-06
0.00247915
-1.50223e-06
0.00247882
-1.50193e-06
0.00247849
-1.50162e-06
0.00247816
-1.50132e-06
0.00247782
-1.50102e-06
0.00247749
-1.50072e-06
0.00247715
-1.50042e-06
0.00247681
-1.50012e-06
0.00247647
-1.49982e-06
0.00247613
-1.49953e-06
0.00247578
-1.49923e-06
0.00247544
-1.49894e-06
0.00247509
-1.49865e-06
0.00247474
-1.49836e-06
0.00247439
-1.49807e-06
0.00247403
-1.49778e-06
0.00247368
-1.49749e-06
0.00247332
-1.49721e-06
0.00247296
-1.49692e-06
0.0024726
-1.49664e-06
0.00247224
-1.49636e-06
0.00247188
-1.49608e-06
0.00247152
-1.49579e-06
0.00247115
-1.49551e-06
0.00247078
-1.49524e-06
0.00247041
-1.49496e-06
0.00247004
-1.49468e-06
0.00246967
-1.4944e-06
0.00246929
-1.49413e-06
0.00246891
-1.49385e-06
0.00246854
-1.49358e-06
0.00246816
-1.49331e-06
0.00246777
-1.49303e-06
0.00246739
-1.49276e-06
0.00246701
-1.49249e-06
0.00246662
-1.49222e-06
0.00246623
-1.49195e-06
0.00246584
-1.49168e-06
0.00246545
-1.49141e-06
0.00246506
-1.49115e-06
0.00246466
-1.49088e-06
0.00246427
-1.49062e-06
0.00246387
-1.49035e-06
0.00246347
-1.49009e-06
0.00246307
-1.48983e-06
0.00246267
-1.48956e-06
0.00246226
-1.4893e-06
0.00246186
-1.48904e-06
0.00246145
-1.48878e-06
0.00246104
-1.48852e-06
0.00246063
-1.48826e-06
0.00246022
-1.48801e-06
0.00245981
-1.48775e-06
0.00245939
-1.4875e-06
0.00245898
-1.48724e-06
0.00245856
-1.48699e-06
0.00245814
-1.48673e-06
0.00245772
-1.48648e-06
0.00245729
-1.48623e-06
0.00245687
-1.48598e-06
0.00245644
-1.48573e-06
0.00245602
-1.48548e-06
0.00245559
-1.48523e-06
0.00245516
-1.48499e-06
0.00245473
-1.48474e-06
0.00245429
-1.4845e-06
0.00245386
-1.48425e-06
0.00245342
-1.48401e-06
0.00245298
-1.48377e-06
0.00245254
-1.48353e-06
0.0024521
-1.48329e-06
0.00245166
-1.48306e-06
0.00245122
-1.48282e-06
0.00245077
-1.48259e-06
0.00245032
-1.48235e-06
0.00244988
-1.48212e-06
0.00244943
-1.48189e-06
0.00244898
-1.48167e-06
0.00244852
-1.48144e-06
0.00244807
-1.48122e-06
0.00244761
-1.481e-06
0.00244716
-1.48078e-06
0.0024467
-1.48056e-06
0.00244624
-1.48035e-06
0.00244578
-1.48014e-06
0.00244532
-1.47993e-06
0.00244485
-1.47972e-06
0.00244439
-1.47952e-06
0.00244392
-1.47933e-06
0.00244345
-1.47913e-06
0.00244298
-1.47895e-06
0.00244251
-1.47876e-06
0.00244204
-1.47858e-06
0.00244157
-1.47841e-06
0.00244109
-1.47824e-06
0.00244062
-1.47808e-06
0.00244014
-1.47793e-06
0.00243966
-1.47778e-06
0.00243918
-1.47764e-06
0.0024387
-1.47752e-06
0.00243821
-1.4774e-06
0.00243773
-1.47729e-06
0.00243725
-1.47719e-06
0.00243676
-1.47711e-06
0.00243627
-1.47705e-06
0.00243578
-1.477e-06
0.00243529
-1.47697e-06
0.0024348
-1.47697e-06
0.00243431
-1.477e-06
0.00243381
-1.47705e-06
0.00243332
-1.47715e-06
0.00243282
-1.4773e-06
0.00243233
-1.47751e-06
0.00243183
-1.47779e-06
0.00243133
-1.47818e-06
0.00243083
-1.47869e-06
0.00243033
-1.47938e-06
0.00242983
-1.48029e-06
0.00242932
-1.48152e-06
0.00242882
-1.48317e-06
0.00242832
-1.48543e-06
0.00242781
-1.4885e-06
0.00242731
-1.49304e-06
0.00242681
-1.49871e-06
0.00242631
-1.51001e-06
0.00242581
-1.51822e-06
0.00242532
-1.56118e-06
0.00242485
-1.55361e-06
0.00242438
-1.74583e-06
0.00242398
-1.71239e-06
-2.20359e-06
0.00259477
-1.52446e-06
0.00259437
-1.5478e-06
0.00259396
-1.56526e-06
0.00259355
-1.54512e-06
0.00259315
-1.52084e-06
0.00259275
-1.51329e-06
0.00259234
-1.51302e-06
0.00259193
-1.51251e-06
0.00259152
-1.51169e-06
0.00259111
-1.51117e-06
0.0025907
-1.5108e-06
0.00259028
-1.51044e-06
0.00258986
-1.51007e-06
0.00258944
-1.50971e-06
0.00258902
-1.50936e-06
0.0025886
-1.509e-06
0.00258817
-1.50865e-06
0.00258775
-1.5083e-06
0.00258732
-1.50795e-06
0.00258689
-1.5076e-06
0.00258646
-1.50726e-06
0.00258602
-1.50691e-06
0.00258559
-1.50657e-06
0.00258515
-1.50622e-06
0.00258471
-1.50588e-06
0.00258427
-1.50553e-06
0.00258383
-1.50519e-06
0.00258339
-1.50485e-06
0.00258294
-1.50452e-06
0.00258249
-1.50418e-06
0.00258204
-1.50384e-06
0.00258159
-1.50351e-06
0.00258114
-1.50318e-06
0.00258069
-1.50284e-06
0.00258023
-1.50251e-06
0.00257977
-1.50218e-06
0.00257931
-1.50186e-06
0.00257885
-1.50153e-06
0.00257839
-1.50121e-06
0.00257792
-1.50088e-06
0.00257746
-1.50056e-06
0.00257699
-1.50024e-06
0.00257652
-1.49992e-06
0.00257605
-1.4996e-06
0.00257558
-1.49928e-06
0.0025751
-1.49896e-06
0.00257463
-1.49864e-06
0.00257415
-1.49833e-06
0.00257367
-1.49801e-06
0.00257319
-1.4977e-06
0.00257271
-1.49739e-06
0.00257222
-1.49708e-06
0.00257174
-1.49677e-06
0.00257125
-1.49646e-06
0.00257076
-1.49615e-06
0.00257027
-1.49584e-06
0.00256977
-1.49553e-06
0.00256928
-1.49523e-06
0.00256879
-1.49492e-06
0.00256829
-1.49462e-06
0.00256779
-1.49431e-06
0.00256729
-1.49401e-06
0.00256679
-1.49371e-06
0.00256628
-1.49341e-06
0.00256578
-1.49311e-06
0.00256527
-1.49281e-06
0.00256476
-1.49252e-06
0.00256425
-1.49222e-06
0.00256374
-1.49192e-06
0.00256323
-1.49163e-06
0.00256271
-1.49134e-06
0.0025622
-1.49104e-06
0.00256168
-1.49075e-06
0.00256116
-1.49046e-06
0.00256064
-1.49017e-06
0.00256011
-1.48988e-06
0.00255959
-1.4896e-06
0.00255906
-1.48931e-06
0.00255854
-1.48902e-06
0.00255801
-1.48874e-06
0.00255748
-1.48846e-06
0.00255695
-1.48818e-06
0.00255641
-1.4879e-06
0.00255588
-1.48762e-06
0.00255534
-1.48734e-06
0.0025548
-1.48706e-06
0.00255427
-1.48679e-06
0.00255372
-1.48652e-06
0.00255318
-1.48624e-06
0.00255264
-1.48597e-06
0.00255209
-1.48571e-06
0.00255155
-1.48544e-06
0.002551
-1.48518e-06
0.00255045
-1.48491e-06
0.0025499
-1.48465e-06
0.00254935
-1.4844e-06
0.00254879
-1.48414e-06
0.00254824
-1.48389e-06
0.00254768
-1.48364e-06
0.00254712
-1.48339e-06
0.00254656
-1.48315e-06
0.002546
-1.48291e-06
0.00254544
-1.48267e-06
0.00254487
-1.48244e-06
0.00254431
-1.48221e-06
0.00254374
-1.48199e-06
0.00254317
-1.48177e-06
0.0025426
-1.48156e-06
0.00254203
-1.48135e-06
0.00254146
-1.48116e-06
0.00254089
-1.48096e-06
0.00254031
-1.48078e-06
0.00253974
-1.4806e-06
0.00253916
-1.48043e-06
0.00253858
-1.48027e-06
0.002538
-1.48012e-06
0.00253742
-1.47998e-06
0.00253683
-1.47985e-06
0.00253625
-1.47974e-06
0.00253567
-1.47964e-06
0.00253508
-1.47956e-06
0.00253449
-1.47949e-06
0.0025339
-1.47945e-06
0.00253331
-1.47943e-06
0.00253272
-1.47944e-06
0.00253213
-1.47947e-06
0.00253153
-1.47954e-06
0.00253094
-1.47965e-06
0.00253034
-1.47981e-06
0.00252974
-1.48003e-06
0.00252914
-1.48031e-06
0.00252854
-1.48069e-06
0.00252794
-1.48117e-06
0.00252734
-1.48179e-06
0.00252674
-1.4826e-06
0.00252613
-1.48365e-06
0.00252553
-1.48501e-06
0.00252492
-1.48681e-06
0.00252432
-1.48918e-06
0.00252371
-1.49243e-06
0.00252311
-1.49665e-06
0.0025225
-1.50315e-06
0.0025219
-1.51054e-06
0.00252129
-1.52643e-06
0.00252069
-1.53737e-06
0.0025201
-1.58818e-06
0.00251952
-1.59342e-06
0.00251892
-1.76572e-06
0.00251839
-1.81039e-06
0.00251777
-2.13999e-06
-2.60412e-06
0.00262178
-1.49954e-06
0.00262134
-1.51455e-06
0.00262089
-1.52764e-06
0.00262046
-1.5142e-06
0.00262002
-1.49475e-06
0.00261958
-1.48715e-06
0.00261914
-1.48608e-06
0.0026187
-1.48533e-06
0.00261826
-1.48442e-06
0.00261781
-1.4838e-06
0.00261737
-1.48335e-06
0.00261692
-1.48293e-06
0.00261647
-1.48252e-06
0.00261601
-1.48212e-06
0.00261556
-1.48172e-06
0.0026151
-1.48133e-06
0.00261464
-1.48094e-06
0.00261419
-1.48055e-06
0.00261372
-1.48016e-06
0.00261326
-1.47977e-06
0.0026128
-1.47939e-06
0.00261233
-1.479e-06
0.00261186
-1.47861e-06
0.00261139
-1.47823e-06
0.00261092
-1.47784e-06
0.00261045
-1.47746e-06
0.00260997
-1.47708e-06
0.00260949
-1.4767e-06
0.00260901
-1.47632e-06
0.00260853
-1.47594e-06
0.00260805
-1.47556e-06
0.00260757
-1.47518e-06
0.00260708
-1.47481e-06
0.0026066
-1.47444e-06
0.00260611
-1.47407e-06
0.00260562
-1.4737e-06
0.00260512
-1.47333e-06
0.00260463
-1.47296e-06
0.00260413
-1.47259e-06
0.00260364
-1.47223e-06
0.00260314
-1.47187e-06
0.00260264
-1.4715e-06
0.00260213
-1.47114e-06
0.00260163
-1.47078e-06
0.00260112
-1.47043e-06
0.00260062
-1.47007e-06
0.00260011
-1.46971e-06
0.0025996
-1.46936e-06
0.00259908
-1.469e-06
0.00259857
-1.46865e-06
0.00259805
-1.4683e-06
0.00259754
-1.46795e-06
0.00259702
-1.4676e-06
0.0025965
-1.46725e-06
0.00259597
-1.4669e-06
0.00259545
-1.46656e-06
0.00259493
-1.46621e-06
0.0025944
-1.46587e-06
0.00259387
-1.46553e-06
0.00259334
-1.46518e-06
0.00259281
-1.46484e-06
0.00259227
-1.46451e-06
0.00259174
-1.46417e-06
0.0025912
-1.46383e-06
0.00259066
-1.46349e-06
0.00259012
-1.46316e-06
0.00258958
-1.46283e-06
0.00258904
-1.46249e-06
0.00258849
-1.46216e-06
0.00258795
-1.46183e-06
0.0025874
-1.4615e-06
0.00258685
-1.46117e-06
0.0025863
-1.46085e-06
0.00258575
-1.46052e-06
0.00258519
-1.4602e-06
0.00258464
-1.45987e-06
0.00258408
-1.45955e-06
0.00258352
-1.45923e-06
0.00258296
-1.45891e-06
0.0025824
-1.45859e-06
0.00258184
-1.45828e-06
0.00258127
-1.45796e-06
0.00258071
-1.45765e-06
0.00258014
-1.45734e-06
0.00257957
-1.45703e-06
0.002579
-1.45672e-06
0.00257843
-1.45641e-06
0.00257785
-1.4561e-06
0.00257728
-1.4558e-06
0.0025767
-1.4555e-06
0.00257612
-1.4552e-06
0.00257554
-1.45491e-06
0.00257496
-1.45461e-06
0.00257438
-1.45432e-06
0.00257379
-1.45403e-06
0.00257321
-1.45375e-06
0.00257262
-1.45347e-06
0.00257203
-1.45319e-06
0.00257144
-1.45291e-06
0.00257085
-1.45264e-06
0.00257026
-1.45237e-06
0.00256967
-1.45211e-06
0.00256907
-1.45185e-06
0.00256847
-1.4516e-06
0.00256787
-1.45135e-06
0.00256727
-1.45111e-06
0.00256667
-1.45088e-06
0.00256607
-1.45065e-06
0.00256547
-1.45043e-06
0.00256486
-1.45022e-06
0.00256426
-1.45002e-06
0.00256365
-1.44983e-06
0.00256304
-1.44964e-06
0.00256243
-1.44947e-06
0.00256182
-1.44932e-06
0.0025612
-1.44917e-06
0.00256059
-1.44904e-06
0.00255997
-1.44893e-06
0.00255935
-1.44883e-06
0.00255874
-1.44875e-06
0.00255812
-1.4487e-06
0.0025575
-1.44867e-06
0.00255687
-1.44866e-06
0.00255625
-1.44869e-06
0.00255562
-1.44875e-06
0.002555
-1.44885e-06
0.00255437
-1.44899e-06
0.00255374
-1.44919e-06
0.00255311
-1.44945e-06
0.00255248
-1.44978e-06
0.00255185
-1.45021e-06
0.00255122
-1.45075e-06
0.00255058
-1.45143e-06
0.00254995
-1.45229e-06
0.00254931
-1.45339e-06
0.00254868
-1.45479e-06
0.00254804
-1.4566e-06
0.0025474
-1.45895e-06
0.00254676
-1.46202e-06
0.00254612
-1.46622e-06
0.00254548
-1.47157e-06
0.00254485
-1.47987e-06
0.00254421
-1.48897e-06
0.00254357
-1.50864e-06
0.00254294
-1.52232e-06
0.00254231
-1.57815e-06
0.00254169
-1.5968e-06
0.00254105
-1.75058e-06
0.00254046
-1.83716e-06
0.00253977
-2.07319e-06
0.00253905
-2.44902e-06
-2.57646e-06
0.00262738
-1.46458e-06
0.00262693
-1.47431e-06
0.00262648
-1.48379e-06
0.00262603
-1.47484e-06
0.00262559
-1.45958e-06
0.00262514
-1.45243e-06
0.0026247
-1.45083e-06
0.00262425
-1.4499e-06
0.00262379
-1.44893e-06
0.00262334
-1.44824e-06
0.00262289
-1.44772e-06
0.00262243
-1.44725e-06
0.00262197
-1.4468e-06
0.00262151
-1.44636e-06
0.00262105
-1.44593e-06
0.00262058
-1.4455e-06
0.00262012
-1.44507e-06
0.00261965
-1.44465e-06
0.00261918
-1.44422e-06
0.00261871
-1.44379e-06
0.00261823
-1.44337e-06
0.00261776
-1.44294e-06
0.00261728
-1.44252e-06
0.0026168
-1.44209e-06
0.00261632
-1.44167e-06
0.00261584
-1.44124e-06
0.00261536
-1.44082e-06
0.00261487
-1.4404e-06
0.00261439
-1.43998e-06
0.0026139
-1.43956e-06
0.00261341
-1.43914e-06
0.00261292
-1.43872e-06
0.00261242
-1.43831e-06
0.00261193
-1.43789e-06
0.00261143
-1.43748e-06
0.00261093
-1.43707e-06
0.00261043
-1.43666e-06
0.00260993
-1.43625e-06
0.00260943
-1.43584e-06
0.00260892
-1.43544e-06
0.00260841
-1.43504e-06
0.0026079
-1.43464e-06
0.00260739
-1.43423e-06
0.00260688
-1.43384e-06
0.00260637
-1.43344e-06
0.00260585
-1.43304e-06
0.00260533
-1.43265e-06
0.00260481
-1.43225e-06
0.00260429
-1.43186e-06
0.00260377
-1.43147e-06
0.00260325
-1.43108e-06
0.00260272
-1.43069e-06
0.0026022
-1.4303e-06
0.00260167
-1.42991e-06
0.00260114
-1.42953e-06
0.0026006
-1.42915e-06
0.00260007
-1.42876e-06
0.00259954
-1.42838e-06
0.002599
-1.428e-06
0.00259846
-1.42762e-06
0.00259792
-1.42724e-06
0.00259738
-1.42687e-06
0.00259683
-1.42649e-06
0.00259629
-1.42612e-06
0.00259574
-1.42575e-06
0.0025952
-1.42537e-06
0.00259465
-1.425e-06
0.00259409
-1.42464e-06
0.00259354
-1.42427e-06
0.00259299
-1.4239e-06
0.00259243
-1.42354e-06
0.00259187
-1.42317e-06
0.00259131
-1.42281e-06
0.00259075
-1.42245e-06
0.00259019
-1.42209e-06
0.00258963
-1.42173e-06
0.00258906
-1.42138e-06
0.0025885
-1.42102e-06
0.00258793
-1.42067e-06
0.00258736
-1.42032e-06
0.00258679
-1.41997e-06
0.00258621
-1.41962e-06
0.00258564
-1.41927e-06
0.00258506
-1.41893e-06
0.00258449
-1.41858e-06
0.00258391
-1.41824e-06
0.00258333
-1.41791e-06
0.00258275
-1.41757e-06
0.00258216
-1.41723e-06
0.00258158
-1.4169e-06
0.00258099
-1.41657e-06
0.0025804
-1.41625e-06
0.00257981
-1.41592e-06
0.00257922
-1.4156e-06
0.00257863
-1.41529e-06
0.00257804
-1.41497e-06
0.00257744
-1.41467e-06
0.00257685
-1.41436e-06
0.00257625
-1.41406e-06
0.00257565
-1.41376e-06
0.00257505
-1.41347e-06
0.00257445
-1.41319e-06
0.00257384
-1.41291e-06
0.00257324
-1.41263e-06
0.00257263
-1.41237e-06
0.00257202
-1.41211e-06
0.00257141
-1.41186e-06
0.0025708
-1.41162e-06
0.00257019
-1.41139e-06
0.00256958
-1.41116e-06
0.00256896
-1.41095e-06
0.00256835
-1.41075e-06
0.00256773
-1.41057e-06
0.00256711
-1.4104e-06
0.00256649
-1.41024e-06
0.00256587
-1.4101e-06
0.00256525
-1.40998e-06
0.00256462
-1.40988e-06
0.002564
-1.4098e-06
0.00256337
-1.40974e-06
0.00256274
-1.40971e-06
0.00256211
-1.40971e-06
0.00256148
-1.40975e-06
0.00256085
-1.40982e-06
0.00256022
-1.40994e-06
0.00255958
-1.4101e-06
0.00255895
-1.41031e-06
0.00255831
-1.4106e-06
0.00255767
-1.41096e-06
0.00255704
-1.41141e-06
0.0025564
-1.41197e-06
0.00255575
-1.41267e-06
0.00255511
-1.41355e-06
0.00255447
-1.41464e-06
0.00255383
-1.41602e-06
0.00255318
-1.41776e-06
0.00255253
-1.41999e-06
0.00255189
-1.42287e-06
0.00255124
-1.42661e-06
0.00255059
-1.43166e-06
0.00254995
-1.43808e-06
0.0025493
-1.44791e-06
0.00254865
-1.4588e-06
0.00254801
-1.48115e-06
0.00254737
-1.49844e-06
0.00254672
-1.55577e-06
0.00254609
-1.58659e-06
0.00254544
-1.71978e-06
0.00254481
-1.8346e-06
0.00254413
-2.01205e-06
0.00254339
-2.33829e-06
0.00254263
-2.3758e-06
-2.47574e-06
0.00262837
-1.42711e-06
0.00262793
-1.43356e-06
0.00262748
-1.44002e-06
0.00262703
-1.43402e-06
0.00262658
-1.42223e-06
0.00262614
-1.41573e-06
0.00262569
-1.41379e-06
0.00262524
-1.41273e-06
0.00262478
-1.41173e-06
0.00262433
-1.41099e-06
0.00262387
-1.41041e-06
0.00262341
-1.4099e-06
0.00262295
-1.40941e-06
0.00262249
-1.40894e-06
0.00262202
-1.40847e-06
0.00262156
-1.40801e-06
0.00262109
-1.40755e-06
0.00262062
-1.40709e-06
0.00262015
-1.40663e-06
0.00261968
-1.40617e-06
0.0026192
-1.4057e-06
0.00261873
-1.40524e-06
0.00261825
-1.40477e-06
0.00261777
-1.40431e-06
0.00261729
-1.40385e-06
0.0026168
-1.40338e-06
0.00261632
-1.40292e-06
0.00261583
-1.40245e-06
0.00261534
-1.40199e-06
0.00261485
-1.40153e-06
0.00261436
-1.40107e-06
0.00261387
-1.40062e-06
0.00261337
-1.40016e-06
0.00261287
-1.39971e-06
0.00261238
-1.39925e-06
0.00261187
-1.3988e-06
0.00261137
-1.39835e-06
0.00261087
-1.3979e-06
0.00261036
-1.39746e-06
0.00260986
-1.39701e-06
0.00260935
-1.39657e-06
0.00260884
-1.39613e-06
0.00260832
-1.39569e-06
0.00260781
-1.39525e-06
0.0026073
-1.39481e-06
0.00260678
-1.39438e-06
0.00260626
-1.39394e-06
0.00260574
-1.39351e-06
0.00260522
-1.39308e-06
0.00260469
-1.39265e-06
0.00260417
-1.39222e-06
0.00260364
-1.39179e-06
0.00260311
-1.39137e-06
0.00260258
-1.39094e-06
0.00260205
-1.39052e-06
0.00260151
-1.3901e-06
0.00260098
-1.38967e-06
0.00260044
-1.38925e-06
0.0025999
-1.38884e-06
0.00259936
-1.38842e-06
0.00259882
-1.38801e-06
0.00259828
-1.38759e-06
0.00259773
-1.38718e-06
0.00259719
-1.38677e-06
0.00259664
-1.38636e-06
0.00259609
-1.38595e-06
0.00259554
-1.38555e-06
0.00259499
-1.38514e-06
0.00259443
-1.38474e-06
0.00259387
-1.38434e-06
0.00259332
-1.38394e-06
0.00259276
-1.38354e-06
0.0025922
-1.38314e-06
0.00259164
-1.38275e-06
0.00259107
-1.38235e-06
0.00259051
-1.38196e-06
0.00258994
-1.38157e-06
0.00258937
-1.38118e-06
0.0025888
-1.38079e-06
0.00258823
-1.3804e-06
0.00258766
-1.38002e-06
0.00258708
-1.37964e-06
0.00258651
-1.37926e-06
0.00258593
-1.37888e-06
0.00258535
-1.37851e-06
0.00258477
-1.37814e-06
0.00258419
-1.37776e-06
0.0025836
-1.3774e-06
0.00258302
-1.37703e-06
0.00258243
-1.37667e-06
0.00258184
-1.37631e-06
0.00258125
-1.37595e-06
0.00258066
-1.3756e-06
0.00258007
-1.37525e-06
0.00257948
-1.37491e-06
0.00257888
-1.37457e-06
0.00257829
-1.37423e-06
0.00257769
-1.3739e-06
0.00257709
-1.37357e-06
0.00257649
-1.37325e-06
0.00257588
-1.37294e-06
0.00257528
-1.37263e-06
0.00257468
-1.37233e-06
0.00257407
-1.37203e-06
0.00257346
-1.37175e-06
0.00257285
-1.37147e-06
0.00257224
-1.37121e-06
0.00257163
-1.37095e-06
0.00257101
-1.37071e-06
0.0025704
-1.37047e-06
0.00256978
-1.37025e-06
0.00256917
-1.37005e-06
0.00256855
-1.36985e-06
0.00256793
-1.36968e-06
0.0025673
-1.36953e-06
0.00256668
-1.36939e-06
0.00256606
-1.36928e-06
0.00256543
-1.36919e-06
0.0025648
-1.36912e-06
0.00256418
-1.36909e-06
0.00256355
-1.36909e-06
0.00256292
-1.36912e-06
0.00256228
-1.36919e-06
0.00256165
-1.36931e-06
0.00256102
-1.36948e-06
0.00256038
-1.3697e-06
0.00255974
-1.36999e-06
0.0025591
-1.37036e-06
0.00255847
-1.37081e-06
0.00255782
-1.37138e-06
0.00255718
-1.37208e-06
0.00255654
-1.37293e-06
0.0025559
-1.37399e-06
0.00255525
-1.37531e-06
0.00255461
-1.37695e-06
0.00255396
-1.37901e-06
0.00255331
-1.38164e-06
0.00255266
-1.38503e-06
0.00255202
-1.38938e-06
0.00255137
-1.39525e-06
0.00255072
-1.4027e-06
0.00255007
-1.41384e-06
0.00254942
-1.4265e-06
0.00254877
-1.45059e-06
0.00254813
-1.47167e-06
0.00254748
-1.52838e-06
0.00254684
-1.56933e-06
0.00254618
-1.68634e-06
0.00254554
-1.81052e-06
0.00254485
-1.95462e-06
0.00254411
-2.22144e-06
0.00254343
-2.31644e-06
-2.4108e-06
0.00262853
-1.38874e-06
0.00262809
-1.39317e-06
0.00262764
-1.39749e-06
0.00262719
-1.39333e-06
0.00262674
-1.38422e-06
0.00262629
-1.37846e-06
0.00262584
-1.37635e-06
0.00262539
-1.37519e-06
0.00262494
-1.37419e-06
0.00262448
-1.3734e-06
0.00262402
-1.37279e-06
0.00262356
-1.37224e-06
0.0026231
-1.37172e-06
0.00262264
-1.37122e-06
0.00262218
-1.37073e-06
0.00262171
-1.37023e-06
0.00262124
-1.36974e-06
0.00262077
-1.36925e-06
0.0026203
-1.36875e-06
0.00261983
-1.36825e-06
0.00261935
-1.36775e-06
0.00261888
-1.36725e-06
0.0026184
-1.36675e-06
0.00261792
-1.36624e-06
0.00261744
-1.36574e-06
0.00261695
-1.36524e-06
0.00261647
-1.36473e-06
0.00261598
-1.36423e-06
0.00261549
-1.36373e-06
0.002615
-1.36322e-06
0.00261451
-1.36273e-06
0.00261401
-1.36223e-06
0.00261352
-1.36173e-06
0.00261302
-1.36124e-06
0.00261252
-1.36074e-06
0.00261202
-1.36025e-06
0.00261152
-1.35976e-06
0.00261102
-1.35927e-06
0.00261051
-1.35878e-06
0.00261
-1.3583e-06
0.00260949
-1.35782e-06
0.00260898
-1.35734e-06
0.00260847
-1.35686e-06
0.00260796
-1.35638e-06
0.00260744
-1.3559e-06
0.00260692
-1.35543e-06
0.0026064
-1.35496e-06
0.00260588
-1.35448e-06
0.00260536
-1.35401e-06
0.00260484
-1.35354e-06
0.00260431
-1.35308e-06
0.00260378
-1.35261e-06
0.00260325
-1.35215e-06
0.00260272
-1.35169e-06
0.00260219
-1.35123e-06
0.00260166
-1.35076e-06
0.00260112
-1.35031e-06
0.00260058
-1.34985e-06
0.00260004
-1.34939e-06
0.0025995
-1.34894e-06
0.00259896
-1.34849e-06
0.00259842
-1.34804e-06
0.00259787
-1.34759e-06
0.00259733
-1.34714e-06
0.00259678
-1.3467e-06
0.00259623
-1.34625e-06
0.00259568
-1.34581e-06
0.00259512
-1.34537e-06
0.00259457
-1.34493e-06
0.00259401
-1.34449e-06
0.00259345
-1.34406e-06
0.00259289
-1.34362e-06
0.00259233
-1.34319e-06
0.00259177
-1.34276e-06
0.00259121
-1.34233e-06
0.00259064
-1.3419e-06
0.00259007
-1.34148e-06
0.00258951
-1.34105e-06
0.00258894
-1.34063e-06
0.00258836
-1.34021e-06
0.00258779
-1.3398e-06
0.00258722
-1.33938e-06
0.00258664
-1.33897e-06
0.00258606
-1.33856e-06
0.00258548
-1.33815e-06
0.0025849
-1.33775e-06
0.00258432
-1.33734e-06
0.00258374
-1.33694e-06
0.00258315
-1.33655e-06
0.00258256
-1.33615e-06
0.00258198
-1.33577e-06
0.00258139
-1.33538e-06
0.00258079
-1.335e-06
0.0025802
-1.33462e-06
0.00257961
-1.33425e-06
0.00257901
-1.33388e-06
0.00257842
-1.33352e-06
0.00257782
-1.33316e-06
0.00257722
-1.3328e-06
0.00257662
-1.33246e-06
0.00257601
-1.33212e-06
0.00257541
-1.33179e-06
0.0025748
-1.33147e-06
0.0025742
-1.33115e-06
0.00257359
-1.33085e-06
0.00257298
-1.33055e-06
0.00257237
-1.33027e-06
0.00257175
-1.33e-06
0.00257114
-1.32974e-06
0.00257053
-1.3295e-06
0.00256991
-1.32927e-06
0.00256929
-1.32905e-06
0.00256867
-1.32886e-06
0.00256805
-1.32868e-06
0.00256743
-1.32853e-06
0.00256681
-1.3284e-06
0.00256618
-1.32829e-06
0.00256555
-1.32821e-06
0.00256493
-1.32817e-06
0.0025643
-1.32815e-06
0.00256367
-1.32817e-06
0.00256304
-1.32824e-06
0.00256241
-1.32835e-06
0.00256177
-1.32851e-06
0.00256114
-1.32872e-06
0.0025605
-1.32901e-06
0.00255986
-1.32937e-06
0.00255923
-1.32981e-06
0.00255859
-1.33036e-06
0.00255795
-1.33104e-06
0.0025573
-1.33187e-06
0.00255666
-1.33287e-06
0.00255602
-1.33411e-06
0.00255537
-1.33564e-06
0.00255473
-1.33753e-06
0.00255408
-1.33991e-06
0.00255343
-1.3429e-06
0.00255278
-1.34675e-06
0.00255213
-1.35169e-06
0.00255148
-1.35825e-06
0.00255083
-1.36662e-06
0.00255018
-1.37881e-06
0.00254953
-1.39315e-06
0.00254888
-1.41841e-06
0.00254824
-1.44294e-06
0.00254759
-1.49803e-06
0.00254694
-1.54613e-06
0.00254628
-1.651e-06
0.00254562
-1.773e-06
0.00254495
-1.90358e-06
0.00254421
-2.11123e-06
0.00254352
-2.2514e-06
0.00254283
-2.29005e-06
-2.5186e-06
0.00262855
-1.35013e-06
0.00262811
-1.35324e-06
0.00262766
-1.35599e-06
0.00262721
-1.35299e-06
0.00262676
-1.34595e-06
0.00262632
-1.34093e-06
0.00262586
-1.33876e-06
0.00262541
-1.33755e-06
0.00262496
-1.33654e-06
0.0026245
-1.33574e-06
0.00262405
-1.33509e-06
0.00262359
-1.33452e-06
0.00262313
-1.33398e-06
0.00262266
-1.33344e-06
0.0026222