/*--------------------------------*- C++ -*----------------------------------*\
| =========                 |                                                 |
| \\      /  F ield         | OpenFOAM: The Open Source CFD Toolbox           |
|  \\    /   O peration     | Version:  2512                                  |
|   \\  /    A nd           | Website:  www.openfoam.com                      |
|    \\/     M anipulation  |                                                 |
\*---------------------------------------------------------------------------*/
FoamFile
{
    version     2.0;
    format      ascii;
    arch        "LSB;label=32;scalar=64";
    class       surfaceScalarField;
    location    "0.1";
    object      phiB;
}
// * * * * * * * * * * * * * * * * * * * * * * * * * * * * * * * * * * * * * //

dimensions      [1 2 -2 0 0 -1 0];

oriented        oriented;

internalField   nonuniform List<scalar> 
16432
(
7.78726e-09
0.00192
7.78482e-09
0.00192
7.78292e-09
0.00192
7.78131e-09
0.00192
7.7797e-09
0.00192
7.77808e-09
0.00192
7.7765e-09
0.00192
7.77498e-09
0.00192
7.77349e-09
0.00192
7.77202e-09
0.00192
7.77058e-09
0.00192
7.76915e-09
0.00192
7.76774e-09
0.00192
7.76633e-09
0.00192
7.76494e-09
0.00192
7.76355e-09
0.00192
7.76216e-09
0.00192
7.76077e-09
0.00192
7.75938e-09
0.00192
7.75799e-09
0.00192
7.7566e-09
0.00192
7.7552e-09
0.00192
7.75379e-09
0.00192
7.75238e-09
0.00192
7.75096e-09
0.00192
7.74953e-09
0.00192
7.7481e-09
0.00192
7.74666e-09
0.00192
7.74521e-09
0.00192
7.74375e-09
0.00192
7.74228e-09
0.00192
7.7408e-09
0.00192
7.73931e-09
0.00192
7.73781e-09
0.00192
7.73631e-09
0.00192
7.73479e-09
0.00192
7.73326e-09
0.00192
7.73173e-09
0.00192
7.73018e-09
0.00192
7.72863e-09
0.00192
7.72707e-09
0.00192
7.7255e-09
0.00192
7.72392e-09
0.00192
7.72233e-09
0.00192
7.72074e-09
0.00192
7.71913e-09
0.00192
7.71752e-09
0.00192
7.7159e-09
0.00192
7.71427e-09
0.00192
7.71264e-09
0.00192
7.71099e-09
0.00192
7.70934e-09
0.00192
7.70769e-09
0.00192
7.70602e-09
0.00192
7.70435e-09
0.00192
7.70267e-09
0.00192
7.70099e-09
0.00192
7.6993e-09
0.00192
7.6976e-09
0.00192
7.6959e-09
0.00192
7.69419e-09
0.00192
7.69247e-09
0.00192
7.69075e-09
0.00192
7.68902e-09
0.00192
7.68729e-09
0.00192
7.68555e-09
0.00192
7.68381e-09
0.00192
7.68206e-09
0.00192
7.68031e-09
0.00192
7.67855e-09
0.00192
7.67678e-09
0.00192
7.67502e-09
0.00192
7.67325e-09
0.00192
7.67147e-09
0.00192
7.6697e-09
0.00192
7.66791e-09
0.00192
7.66613e-09
0.00192
7.66434e-09
0.00192
7.66255e-09
0.00192
7.66076e-09
0.00192
7.65896e-09
0.00192
7.65716e-09
0.00192
7.65536e-09
0.00192
7.65356e-09
0.00192
7.65176e-09
0.00192
7.64996e-09
0.00192
7.64815e-09
0.00192
7.64635e-09
0.00192
7.64455e-09
0.00192
7.64274e-09
0.00192
7.64094e-09
0.00192
7.63914e-09
0.00192
7.63734e-09
0.00192
7.63555e-09
0.00192
7.63376e-09
0.00192
7.63197e-09
0.00192
7.63018e-09
0.00192
7.6284e-09
0.00192
7.62663e-09
0.00192
7.62486e-09
0.00192
7.6231e-09
0.00192
7.62135e-09
0.00192
7.61961e-09
0.00192
7.61787e-09
0.00192
7.61615e-09
0.00192
7.61443e-09
0.00192
7.61273e-09
0.00192
7.61104e-09
0.00192
7.60937e-09
0.00192
7.60771e-09
0.00192
7.60607e-09
0.00192
7.60444e-09
0.00192
7.60283e-09
0.00192
7.60124e-09
0.00192
7.59967e-09
0.00192
7.59812e-09
0.00192
7.59659e-09
0.00192
7.59508e-09
0.00192
7.5936e-09
0.00192
7.59214e-09
0.00192
7.59071e-09
0.00192
7.58931e-09
0.00192
7.58793e-09
0.00192
7.58657e-09
0.00192
7.58525e-09
0.00192
7.58395e-09
0.00192
7.58268e-09
0.00192
7.58143e-09
0.00192
7.58021e-09
0.00192
7.57901e-09
0.00192
7.57783e-09
0.00192
7.57667e-09
0.00192
7.57554e-09
0.00192
7.57441e-09
0.00192
7.57329e-09
0.00192
7.57218e-09
0.00192
7.57108e-09
0.00192
7.56997e-09
0.00192
7.56886e-09
0.00192
7.56774e-09
0.00192
7.5666e-09
0.00192
7.56545e-09
0.00192
7.56429e-09
0.00192
7.56309e-09
0.00192
7.56194e-09
0.00192
7.56064e-09
0.00192
7.55965e-09
0.00192
7.55825e-09
0.00192
0.00192
1.34421e-08
0.00192
1.34366e-08
0.00192
1.34318e-08
0.00192
1.34275e-08
0.00192
1.34233e-08
0.00192
1.34191e-08
0.00192
1.34149e-08
0.00192
1.34109e-08
0.00192
1.34068e-08
0.00192
1.34029e-08
0.00192
1.33989e-08
0.00192
1.3395e-08
0.00192
1.33911e-08
0.00192
1.33873e-08
0.00192
1.33834e-08
0.00192
1.33795e-08
0.00192
1.33757e-08
0.00192
1.33719e-08
0.00192
1.3368e-08
0.00192
1.33642e-08
0.00192
1.33603e-08
0.00192
1.33565e-08
0.00192
1.33526e-08
0.00192
1.33488e-08
0.00192
1.33449e-08
0.00192
1.3341e-08
0.00192
1.33371e-08
0.00192
1.33332e-08
0.00192
1.33293e-08
0.00192
1.33254e-08
0.00192
1.33215e-08
0.00192
1.33176e-08
0.00192
1.33136e-08
0.00192
1.33096e-08
0.00192
1.33057e-08
0.00192
1.33017e-08
0.00192
1.32977e-08
0.00192
1.32937e-08
0.00192
1.32897e-08
0.00192
1.32857e-08
0.00192
1.32816e-08
0.00192
1.32776e-08
0.00192
1.32735e-08
0.00192
1.32695e-08
0.00192
1.32654e-08
0.00192
1.32613e-08
0.00192
1.32572e-08
0.00192
1.32531e-08
0.00192
1.3249e-08
0.00192
1.32449e-08
0.00192
1.32407e-08
0.00192
1.32366e-08
0.00192
1.32324e-08
0.00192
1.32283e-08
0.00192
1.32241e-08
0.00192
1.322e-08
0.00192
1.32158e-08
0.00192
1.32116e-08
0.00192
1.32074e-08
0.00192
1.32032e-08
0.00192
1.3199e-08
0.00192
1.31948e-08
0.00192
1.31906e-08
0.00192
1.31864e-08
0.00192
1.31821e-08
0.00192
1.31779e-08
0.00192
1.31737e-08
0.00192
1.31694e-08
0.00192
1.31652e-08
0.00192
1.31609e-08
0.00192
1.31567e-08
0.00192
1.31524e-08
0.00192
1.31481e-08
0.00192
1.31439e-08
0.00192
1.31396e-08
0.00192
1.31353e-08
0.00192
1.3131e-08
0.00192
1.31268e-08
0.00192
1.31225e-08
0.00192
1.31182e-08
0.00192
1.31139e-08
0.00192
1.31096e-08
0.00192
1.31053e-08
0.00192
1.31011e-08
0.00192
1.30968e-08
0.00192
1.30925e-08
0.00192
1.30882e-08
0.00192
1.30839e-08
0.00192
1.30796e-08
0.00192
1.30754e-08
0.00192
1.30711e-08
0.00192
1.30668e-08
0.00192
1.30626e-08
0.00192
1.30583e-08
0.00192
1.3054e-08
0.00192
1.30498e-08
0.00192
1.30456e-08
0.00192
1.30413e-08
0.00192
1.30371e-08
0.00192
1.30329e-08
0.00192
1.30287e-08
0.00192
1.30246e-08
0.00192
1.30204e-08
0.00192
1.30162e-08
0.00192
1.30121e-08
0.00192
1.3008e-08
0.00192
1.30039e-08
0.00192
1.29998e-08
0.00192
1.29958e-08
0.00192
1.29917e-08
0.00192
1.29877e-08
0.00192
1.29837e-08
0.00192
1.29798e-08
0.00192
1.29759e-08
0.00192
1.2972e-08
0.00192
1.29681e-08
0.00192
1.29643e-08
0.00192
1.29605e-08
0.00192
1.29567e-08
0.00192
1.2953e-08
0.00192
1.29493e-08
0.00192
1.29457e-08
0.00192
1.29421e-08
0.00192
1.29385e-08
0.00192
1.2935e-08
0.00192
1.29315e-08
0.00192
1.29281e-08
0.00192
1.29247e-08
0.00192
1.29213e-08
0.00192
1.2918e-08
0.00192
1.29147e-08
0.00192
1.29114e-08
0.00192
1.29082e-08
0.00192
1.29049e-08
0.00192
1.29017e-08
0.00192
1.28985e-08
0.00192
1.28953e-08
0.00192
1.28921e-08
0.00192
1.28889e-08
0.00192
1.28857e-08
0.00192
1.28825e-08
0.00192
1.28792e-08
0.00192
1.28759e-08
0.00192
1.28726e-08
0.00192
1.28692e-08
0.00192
1.28657e-08
0.00192
1.28624e-08
0.00192
1.28587e-08
0.00192
1.28547e-08
0.00192
0.00192
1.50695e-08
0.00192
1.50627e-08
0.00192
1.50564e-08
0.00192
1.50506e-08
0.00192
1.50449e-08
0.00192
1.50393e-08
0.00192
1.50338e-08
0.00192
1.50283e-08
0.00192
1.50229e-08
0.00192
1.50175e-08
0.00192
1.50122e-08
0.00192
1.50069e-08
0.00192
1.50016e-08
0.00192
1.49963e-08
0.00192
1.49911e-08
0.00192
1.49858e-08
0.00192
1.49806e-08
0.00192
1.49754e-08
0.00192
1.49701e-08
0.00192
1.49649e-08
0.00192
1.49597e-08
0.00192
1.49544e-08
0.00192
1.49492e-08
0.00192
1.4944e-08
0.00192
1.49387e-08
0.00192
1.49334e-08
0.00192
1.49282e-08
0.00192
1.49229e-08
0.00192
1.49176e-08
0.00192
1.49123e-08
0.00192
1.4907e-08
0.00192
1.49017e-08
0.00192
1.48963e-08
0.00192
1.4891e-08
0.00192
1.48856e-08
0.00192
1.48802e-08
0.00192
1.48749e-08
0.00192
1.48695e-08
0.00192
1.48641e-08
0.00192
1.48587e-08
0.00192
1.48532e-08
0.00192
1.48478e-08
0.00192
1.48424e-08
0.00192
1.48369e-08
0.00192
1.48315e-08
0.00192
1.4826e-08
0.00192
1.48205e-08
0.00192
1.4815e-08
0.00192
1.48095e-08
0.00192
1.4804e-08
0.00192
1.47985e-08
0.00192
1.4793e-08
0.00192
1.47875e-08
0.00192
1.47819e-08
0.00192
1.47764e-08
0.00192
1.47708e-08
0.00192
1.47653e-08
0.00192
1.47597e-08
0.00192
1.47541e-08
0.00192
1.47485e-08
0.00192
1.4743e-08
0.00192
1.47374e-08
0.00192
1.47318e-08
0.00192
1.47262e-08
0.00192
1.47206e-08
0.00192
1.47149e-08
0.00192
1.47093e-08
0.00192
1.47037e-08
0.00192
1.46981e-08
0.00192
1.46924e-08
0.00192
1.46868e-08
0.00192
1.46811e-08
0.00192
1.46755e-08
0.00192
1.46698e-08
0.00192
1.46642e-08
0.00192
1.46585e-08
0.00192
1.46529e-08
0.00192
1.46472e-08
0.00192
1.46416e-08
0.00192
1.46359e-08
0.00192
1.46302e-08
0.00192
1.46246e-08
0.00192
1.46189e-08
0.00192
1.46132e-08
0.00192
1.46076e-08
0.00192
1.46019e-08
0.00192
1.45962e-08
0.00192
1.45906e-08
0.00192
1.45849e-08
0.00192
1.45793e-08
0.00192
1.45736e-08
0.00192
1.4568e-08
0.00192
1.45623e-08
0.00192
1.45567e-08
0.00192
1.4551e-08
0.00192
1.45454e-08
0.00192
1.45398e-08
0.00192
1.45342e-08
0.00192
1.45286e-08
0.00192
1.4523e-08
0.00192
1.45175e-08
0.00192
1.45119e-08
0.00192
1.45063e-08
0.00192
1.45008e-08
0.00192
1.44953e-08
0.00192
1.44898e-08
0.00192
1.44843e-08
0.00192
1.44789e-08
0.00192
1.44734e-08
0.00192
1.4468e-08
0.00192
1.44626e-08
0.00192
1.44573e-08
0.00192
1.4452e-08
0.00192
1.44466e-08
0.00192
1.44414e-08
0.00192
1.44361e-08
0.00192
1.44309e-08
0.00192
1.44258e-08
0.00192
1.44206e-08
0.00192
1.44155e-08
0.00192
1.44105e-08
0.00192
1.44054e-08
0.00192
1.44004e-08
0.00192
1.43955e-08
0.00192
1.43906e-08
0.00192
1.43857e-08
0.00192
1.43809e-08
0.00192
1.43761e-08
0.00192
1.43714e-08
0.00192
1.43667e-08
0.00192
1.4362e-08
0.00192
1.43573e-08
0.00192
1.43527e-08
0.00192
1.43481e-08
0.00192
1.43435e-08
0.00192
1.43389e-08
0.00192
1.43343e-08
0.00192
1.43297e-08
0.00192
1.43251e-08
0.00192
1.43205e-08
0.00192
1.43159e-08
0.00192
1.43112e-08
0.00192
1.43064e-08
0.00192
1.43016e-08
0.00192
1.42968e-08
0.00192
1.42919e-08
0.00192
1.42868e-08
0.00192
1.42816e-08
0.00192
1.4276e-08
0.00192
0.00192
1.52708e-08
0.00192
1.52636e-08
0.00192
1.52569e-08
0.00192
1.52506e-08
0.00192
1.52445e-08
0.00192
1.52384e-08
0.00192
1.52324e-08
0.00192
1.52265e-08
0.00192
1.52206e-08
0.00192
1.52148e-08
0.00192
1.5209e-08
0.00192
1.52033e-08
0.00192
1.51976e-08
0.00192
1.51919e-08
0.00192
1.51862e-08
0.00192
1.51805e-08
0.00192
1.51748e-08
0.00192
1.51691e-08
0.00192
1.51634e-08
0.00192
1.51578e-08
0.00192
1.51521e-08
0.00192
1.51464e-08
0.00192
1.51407e-08
0.00192
1.51351e-08
0.00192
1.51294e-08
0.00192
1.51236e-08
0.00192
1.51179e-08
0.00192
1.51122e-08
0.00192
1.51065e-08
0.00192
1.51007e-08
0.00192
1.5095e-08
0.00192
1.50892e-08
0.00192
1.50834e-08
0.00192
1.50777e-08
0.00192
1.50719e-08
0.00192
1.5066e-08
0.00192
1.50602e-08
0.00192
1.50544e-08
0.00192
1.50486e-08
0.00192
1.50427e-08
0.00192
1.50368e-08
0.00192
1.5031e-08
0.00192
1.50251e-08
0.00192
1.50192e-08
0.00192
1.50133e-08
0.00192
1.50074e-08
0.00192
1.50015e-08
0.00192
1.49956e-08
0.00192
1.49896e-08
0.00192
1.49837e-08
0.00192
1.49777e-08
0.00192
1.49718e-08
0.00192
1.49658e-08
0.00192
1.49598e-08
0.00192
1.49538e-08
0.00192
1.49478e-08
0.00192
1.49418e-08
0.00192
1.49358e-08
0.00192
1.49298e-08
0.00192
1.49238e-08
0.00192
1.49178e-08
0.00192
1.49118e-08
0.00192
1.49057e-08
0.00192
1.48997e-08
0.00192
1.48936e-08
0.00192
1.48876e-08
0.00192
1.48815e-08
0.00192
1.48755e-08
0.00192
1.48694e-08
0.00192
1.48633e-08
0.00192
1.48573e-08
0.00192
1.48512e-08
0.00192
1.48451e-08
0.00192
1.4839e-08
0.00192
1.48329e-08
0.00192
1.48268e-08
0.00192
1.48207e-08
0.00192
1.48146e-08
0.00192
1.48085e-08
0.00192
1.48024e-08
0.00192
1.47963e-08
0.00192
1.47902e-08
0.00192
1.47841e-08
0.00192
1.4778e-08
0.00192
1.47719e-08
0.00192
1.47658e-08
0.00192
1.47597e-08
0.00192
1.47536e-08
0.00192
1.47475e-08
0.00192
1.47415e-08
0.00192
1.47354e-08
0.00192
1.47293e-08
0.00192
1.47232e-08
0.00192
1.47171e-08
0.00192
1.47111e-08
0.00192
1.4705e-08
0.00192
1.4699e-08
0.00192
1.46929e-08
0.00192
1.46869e-08
0.00192
1.46809e-08
0.00192
1.46749e-08
0.00192
1.46689e-08
0.00192
1.46629e-08
0.00192
1.46569e-08
0.00192
1.4651e-08
0.00192
1.4645e-08
0.00192
1.46391e-08
0.00192
1.46332e-08
0.00192
1.46274e-08
0.00192
1.46215e-08
0.00192
1.46157e-08
0.00192
1.46099e-08
0.00192
1.46041e-08
0.00192
1.45984e-08
0.00192
1.45927e-08
0.00192
1.4587e-08
0.00192
1.45814e-08
0.00192
1.45758e-08
0.00192
1.45702e-08
0.00192
1.45647e-08
0.00192
1.45592e-08
0.00192
1.45537e-08
0.00192
1.45483e-08
0.00192
1.45429e-08
0.00192
1.45375e-08
0.00192
1.45322e-08
0.00192
1.4527e-08
0.00192
1.45218e-08
0.00192
1.45166e-08
0.00192
1.45114e-08
0.00192
1.45063e-08
0.00192
1.45012e-08
0.00192
1.44961e-08
0.00192
1.44911e-08
0.00192
1.4486e-08
0.00192
1.4481e-08
0.00192
1.4476e-08
0.00192
1.44709e-08
0.00192
1.44659e-08
0.00192
1.44608e-08
0.00192
1.44556e-08
0.00192
1.44505e-08
0.00192
1.44452e-08
0.00192
1.44399e-08
0.00192
1.44345e-08
0.00192
1.44291e-08
0.00192
1.44233e-08
0.00192
1.44175e-08
0.00192
1.44111e-08
0.00192
1.44044e-08
0.00192
0.00192
1.50619e-08
0.00192
1.50548e-08
0.00192
1.5048e-08
0.00192
1.50417e-08
0.00192
1.50355e-08
0.00192
1.50293e-08
0.00192
1.50233e-08
0.00192
1.50174e-08
0.00192
1.50115e-08
0.00192
1.50056e-08
0.00192
1.49998e-08
0.00192
1.4994e-08
0.00192
1.49882e-08
0.00192
1.49825e-08
0.00192
1.49767e-08
0.00192
1.4971e-08
0.00192
1.49653e-08
0.00192
1.49596e-08
0.00192
1.49539e-08
0.00192
1.49482e-08
0.00192
1.49425e-08
0.00192
1.49368e-08
0.00192
1.4931e-08
0.00192
1.49253e-08
0.00192
1.49196e-08
0.00192
1.49139e-08
0.00192
1.49081e-08
0.00192
1.49023e-08
0.00192
1.48966e-08
0.00192
1.48908e-08
0.00192
1.4885e-08
0.00192
1.48792e-08
0.00192
1.48734e-08
0.00192
1.48676e-08
0.00192
1.48618e-08
0.00192
1.48559e-08
0.00192
1.48501e-08
0.00192
1.48442e-08
0.00192
1.48383e-08
0.00192
1.48325e-08
0.00192
1.48266e-08
0.00192
1.48207e-08
0.00192
1.48147e-08
0.00192
1.48088e-08
0.00192
1.48029e-08
0.00192
1.4797e-08
0.00192
1.4791e-08
0.00192
1.4785e-08
0.00192
1.47791e-08
0.00192
1.47731e-08
0.00192
1.47671e-08
0.00192
1.47611e-08
0.00192
1.47551e-08
0.00192
1.47491e-08
0.00192
1.47431e-08
0.00192
1.47371e-08
0.00192
1.47311e-08
0.00192
1.4725e-08
0.00192
1.4719e-08
0.00192
1.4713e-08
0.00192
1.47069e-08
0.00192
1.47008e-08
0.00192
1.46948e-08
0.00192
1.46887e-08
0.00192
1.46826e-08
0.00192
1.46765e-08
0.00192
1.46705e-08
0.00192
1.46644e-08
0.00192
1.46583e-08
0.00192
1.46522e-08
0.00192
1.46461e-08
0.00192
1.464e-08
0.00192
1.46339e-08
0.00192
1.46277e-08
0.00192
1.46216e-08
0.00192
1.46155e-08
0.00192
1.46094e-08
0.00192
1.46033e-08
0.00192
1.45971e-08
0.00192
1.4591e-08
0.00192
1.45849e-08
0.00192
1.45788e-08
0.00192
1.45726e-08
0.00192
1.45665e-08
0.00192
1.45604e-08
0.00192
1.45542e-08
0.00192
1.45481e-08
0.00192
1.4542e-08
0.00192
1.45359e-08
0.00192
1.45298e-08
0.00192
1.45236e-08
0.00192
1.45175e-08
0.00192
1.45114e-08
0.00192
1.45053e-08
0.00192
1.44992e-08
0.00192
1.44931e-08
0.00192
1.44871e-08
0.00192
1.4481e-08
0.00192
1.44749e-08
0.00192
1.44689e-08
0.00192
1.44629e-08
0.00192
1.44568e-08
0.00192
1.44508e-08
0.00192
1.44448e-08
0.00192
1.44389e-08
0.00192
1.44329e-08
0.00192
1.4427e-08
0.00192
1.44211e-08
0.00192
1.44152e-08
0.00192
1.44093e-08
0.00192
1.44034e-08
0.00192
1.43976e-08
0.00192
1.43918e-08
0.00192
1.43861e-08
0.00192
1.43803e-08
0.00192
1.43746e-08
0.00192
1.43689e-08
0.00192
1.43633e-08
0.00192
1.43577e-08
0.00192
1.43521e-08
0.00192
1.43466e-08
0.00192
1.43411e-08
0.00192
1.43356e-08
0.00192
1.43302e-08
0.00192
1.43249e-08
0.00192
1.43195e-08
0.00192
1.43142e-08
0.00192
1.4309e-08
0.00192
1.43038e-08
0.00192
1.42986e-08
0.00192
1.42934e-08
0.00192
1.42883e-08
0.00192
1.42832e-08
0.00192
1.42781e-08
0.00192
1.4273e-08
0.00192
1.42679e-08
0.00192
1.42628e-08
0.00192
1.42577e-08
0.00192
1.42526e-08
0.00192
1.42475e-08
0.00192
1.42423e-08
0.00192
1.4237e-08
0.00192
1.42317e-08
0.00192
1.42263e-08
0.00192
1.42208e-08
0.00192
1.42151e-08
0.00192
1.42092e-08
0.00192
1.42031e-08
0.00192
1.41965e-08
0.00192
1.41893e-08
0.00192
1.41826e-08
0.00192
0.00192
1.4755e-08
0.00192
1.47481e-08
0.00192
1.47415e-08
0.00192
1.47352e-08
0.00192
1.47291e-08
0.00192
1.4723e-08
0.00192
1.47171e-08
0.00192
1.47112e-08
0.00192
1.47054e-08
0.00192
1.46996e-08
0.00192
1.46939e-08
0.00192
1.46881e-08
0.00192
1.46825e-08
0.00192
1.46768e-08
0.00192
1.46712e-08
0.00192
1.46655e-08
0.00192
1.46599e-08
0.00192
1.46543e-08
0.00192
1.46487e-08
0.00192
1.4643e-08
0.00192
1.46374e-08
0.00192
1.46318e-08
0.00192
1.46262e-08
0.00192
1.46205e-08
0.00192
1.46149e-08
0.00192
1.46093e-08
0.00192
1.46036e-08
0.00192
1.45979e-08
0.00192
1.45922e-08
0.00192
1.45866e-08
0.00192
1.45809e-08
0.00192
1.45752e-08
0.00192
1.45694e-08
0.00192
1.45637e-08
0.00192
1.4558e-08
0.00192
1.45522e-08
0.00192
1.45465e-08
0.00192
1.45407e-08
0.00192
1.45349e-08
0.00192
1.45291e-08
0.00192
1.45233e-08
0.00192
1.45175e-08
0.00192
1.45117e-08
0.00192
1.45059e-08
0.00192
1.45e-08
0.00192
1.44942e-08
0.00192
1.44883e-08
0.00192
1.44825e-08
0.00192
1.44766e-08
0.00192
1.44707e-08
0.00192
1.44648e-08
0.00192
1.44589e-08
0.00192
1.4453e-08
0.00192
1.44471e-08
0.00192
1.44412e-08
0.00192
1.44353e-08
0.00192
1.44293e-08
0.00192
1.44234e-08
0.00192
1.44174e-08
0.00192
1.44115e-08
0.00192
1.44055e-08
0.00192
1.43996e-08
0.00192
1.43936e-08
0.00192
1.43876e-08
0.00192
1.43816e-08
0.00192
1.43757e-08
0.00192
1.43697e-08
0.00192
1.43637e-08
0.00192
1.43577e-08
0.00192
1.43517e-08
0.00192
1.43457e-08
0.00192
1.43396e-08
0.00192
1.43336e-08
0.00192
1.43276e-08
0.00192
1.43216e-08
0.00192
1.43156e-08
0.00192
1.43095e-08
0.00192
1.43035e-08
0.00192
1.42975e-08
0.00192
1.42915e-08
0.00192
1.42854e-08
0.00192
1.42794e-08
0.00192
1.42734e-08
0.00192
1.42673e-08
0.00192
1.42613e-08
0.00192
1.42553e-08
0.00192
1.42492e-08
0.00192
1.42432e-08
0.00192
1.42372e-08
0.00192
1.42312e-08
0.00192
1.42251e-08
0.00192
1.42191e-08
0.00192
1.42131e-08
0.00192
1.42071e-08
0.00192
1.42011e-08
0.00192
1.41951e-08
0.00192
1.41892e-08
0.00192
1.41832e-08
0.00192
1.41772e-08
0.00192
1.41713e-08
0.00192
1.41653e-08
0.00192
1.41594e-08
0.00192
1.41535e-08
0.00192
1.41476e-08
0.00192
1.41417e-08
0.00192
1.41359e-08
0.00192
1.413e-08
0.00192
1.41242e-08
0.00192
1.41184e-08
0.00192
1.41126e-08
0.00192
1.41069e-08
0.00192
1.41011e-08
0.00192
1.40954e-08
0.00192
1.40898e-08
0.00192
1.40841e-08
0.00192
1.40785e-08
0.00192
1.40729e-08
0.00192
1.40674e-08
0.00192
1.40619e-08
0.00192
1.40564e-08
0.00192
1.4051e-08
0.00192
1.40456e-08
0.00192
1.40402e-08
0.00192
1.40349e-08
0.00192
1.40296e-08
0.00192
1.40244e-08
0.00192
1.40192e-08
0.00192
1.4014e-08
0.00192
1.40089e-08
0.00192
1.40038e-08
0.00192
1.39987e-08
0.00192
1.39936e-08
0.00192
1.39886e-08
0.00192
1.39836e-08
0.00192
1.39786e-08
0.00192
1.39736e-08
0.00192
1.39686e-08
0.00192
1.39636e-08
0.00192
1.39585e-08
0.00192
1.39534e-08
0.00192
1.39483e-08
0.00192
1.39431e-08
0.00192
1.39378e-08
0.00192
1.39324e-08
0.00192
1.39269e-08
0.00192
1.39212e-08
0.00192
1.39152e-08
0.00192
1.39089e-08
0.00192
1.39023e-08
0.00192
1.38951e-08
0.00192
1.38885e-08
0.00192
1.38815e-08
0.00192
0.00192
1.44282e-08
0.00192
1.44215e-08
0.00192
1.44151e-08
0.00192
1.44089e-08
0.00192
1.44029e-08
0.00192
1.43969e-08
0.00192
1.43911e-08
0.00192
1.43853e-08
0.00192
1.43796e-08
0.00192
1.43739e-08
0.00192
1.43683e-08
0.00192
1.43627e-08
0.00192
1.43572e-08
0.00192
1.43516e-08
0.00192
1.43461e-08
0.00192
1.43406e-08
0.00192
1.43351e-08
0.00192
1.43296e-08
0.00192
1.43241e-08
0.00192
1.43186e-08
0.00192
1.43131e-08
0.00192
1.43076e-08
0.00192
1.43021e-08
0.00192
1.42965e-08
0.00192
1.4291e-08
0.00192
1.42855e-08
0.00192
1.428e-08
0.00192
1.42744e-08
0.00192
1.42688e-08
0.00192
1.42633e-08
0.00192
1.42577e-08
0.00192
1.42521e-08
0.00192
1.42465e-08
0.00192
1.42409e-08
0.00192
1.42353e-08
0.00192
1.42297e-08
0.00192
1.4224e-08
0.00192
1.42184e-08
0.00192
1.42127e-08
0.00192
1.42071e-08
0.00192
1.42014e-08
0.00192
1.41957e-08
0.00192
1.419e-08
0.00192
1.41843e-08
0.00192
1.41786e-08
0.00192
1.41728e-08
0.00192
1.41671e-08
0.00192
1.41614e-08
0.00192
1.41556e-08
0.00192
1.41499e-08
0.00192
1.41441e-08
0.00192
1.41383e-08
0.00192
1.41325e-08
0.00192
1.41267e-08
0.00192
1.41209e-08
0.00192
1.41151e-08
0.00192
1.41093e-08
0.00192
1.41035e-08
0.00192
1.40977e-08
0.00192
1.40919e-08
0.00192
1.4086e-08
0.00192
1.40802e-08
0.00192
1.40743e-08
0.00192
1.40685e-08
0.00192
1.40626e-08
0.00192
1.40568e-08
0.00192
1.40509e-08
0.00192
1.4045e-08
0.00192
1.40392e-08
0.00192
1.40333e-08
0.00192
1.40274e-08
0.00192
1.40215e-08
0.00192
1.40156e-08
0.00192
1.40097e-08
0.00192
1.40038e-08
0.00192
1.39979e-08
0.00192
1.3992e-08
0.00192
1.39861e-08
0.00192
1.39802e-08
0.00192
1.39743e-08
0.00192
1.39684e-08
0.00192
1.39625e-08
0.00192
1.39566e-08
0.00192
1.39507e-08
0.00192
1.39448e-08
0.00192
1.39389e-08
0.00192
1.3933e-08
0.00192
1.39271e-08
0.00192
1.39212e-08
0.00192
1.39153e-08
0.00192
1.39094e-08
0.00192
1.39035e-08
0.00192
1.38976e-08
0.00192
1.38918e-08
0.00192
1.38859e-08
0.00192
1.388e-08
0.00192
1.38742e-08
0.00192
1.38683e-08
0.00192
1.38625e-08
0.00192
1.38567e-08
0.00192
1.38509e-08
0.00192
1.38451e-08
0.00192
1.38393e-08
0.00192
1.38335e-08
0.00192
1.38277e-08
0.00192
1.3822e-08
0.00192
1.38163e-08
0.00192
1.38106e-08
0.00192
1.38049e-08
0.00192
1.37993e-08
0.00192
1.37936e-08
0.00192
1.3788e-08
0.00192
1.37825e-08
0.00192
1.37769e-08
0.00192
1.37714e-08
0.00192
1.37659e-08
0.00192
1.37604e-08
0.00192
1.3755e-08
0.00192
1.37496e-08
0.00192
1.37443e-08
0.00192
1.3739e-08
0.00192
1.37337e-08
0.00192
1.37285e-08
0.00192
1.37233e-08
0.00192
1.37181e-08
0.00192
1.3713e-08
0.00192
1.37079e-08
0.00192
1.37028e-08
0.00192
1.36978e-08
0.00192
1.36928e-08
0.00192
1.36879e-08
0.00192
1.36829e-08
0.00192
1.3678e-08
0.00192
1.36731e-08
0.00192
1.36683e-08
0.00192
1.36634e-08
0.00192
1.36585e-08
0.00192
1.36535e-08
0.00192
1.36486e-08
0.00192
1.36436e-08
0.00192
1.36385e-08
0.00192
1.36334e-08
0.00192
1.36282e-08
0.00192
1.36228e-08
0.00192
1.36173e-08
0.00192
1.36116e-08
0.00192
1.36056e-08
0.00192
1.35993e-08
0.00192
1.35926e-08
0.00192
1.35856e-08
0.00192
1.35789e-08
0.00192
1.35722e-08
0.00192
0.00192
1.40979e-08
0.00192
1.40914e-08
0.00192
1.40851e-08
0.00192
1.4079e-08
0.00192
1.40731e-08
0.00192
1.40673e-08
0.00192
1.40616e-08
0.00192
1.40559e-08
0.00192
1.40503e-08
0.00192
1.40448e-08
0.00192
1.40393e-08
0.00192
1.40338e-08
0.00192
1.40284e-08
0.00192
1.4023e-08
0.00192
1.40176e-08
0.00192
1.40122e-08
0.00192
1.40068e-08
0.00192
1.40014e-08
0.00192
1.3996e-08
0.00192
1.39907e-08
0.00192
1.39853e-08
0.00192
1.39799e-08
0.00192
1.39745e-08
0.00192
1.39691e-08
0.00192
1.39637e-08
0.00192
1.39583e-08
0.00192
1.39529e-08
0.00192
1.39475e-08
0.00192
1.39421e-08
0.00192
1.39366e-08
0.00192
1.39312e-08
0.00192
1.39257e-08
0.00192
1.39202e-08
0.00192
1.39147e-08
0.00192
1.39093e-08
0.00192
1.39038e-08
0.00192
1.38982e-08
0.00192
1.38927e-08
0.00192
1.38872e-08
0.00192
1.38816e-08
0.00192
1.38761e-08
0.00192
1.38705e-08
0.00192
1.3865e-08
0.00192
1.38594e-08
0.00192
1.38538e-08
0.00192
1.38482e-08
0.00192
1.38426e-08
0.00192
1.3837e-08
0.00192
1.38314e-08
0.00192
1.38257e-08
0.00192
1.38201e-08
0.00192
1.38144e-08
0.00192
1.38088e-08
0.00192
1.38031e-08
0.00192
1.37975e-08
0.00192
1.37918e-08
0.00192
1.37861e-08
0.00192
1.37804e-08
0.00192
1.37747e-08
0.00192
1.3769e-08
0.00192
1.37633e-08
0.00192
1.37576e-08
0.00192
1.37519e-08
0.00192
1.37462e-08
0.00192
1.37405e-08
0.00192
1.37347e-08
0.00192
1.3729e-08
0.00192
1.37233e-08
0.00192
1.37175e-08
0.00192
1.37118e-08
0.00192
1.3706e-08
0.00192
1.37003e-08
0.00192
1.36945e-08
0.00192
1.36887e-08
0.00192
1.3683e-08
0.00192
1.36772e-08
0.00192
1.36714e-08
0.00192
1.36657e-08
0.00192
1.36599e-08
0.00192
1.36541e-08
0.00192
1.36483e-08
0.00192
1.36426e-08
0.00192
1.36368e-08
0.00192
1.3631e-08
0.00192
1.36252e-08
0.00192
1.36195e-08
0.00192
1.36137e-08
0.00192
1.36079e-08
0.00192
1.36022e-08
0.00192
1.35964e-08
0.00192
1.35906e-08
0.00192
1.35849e-08
0.00192
1.35791e-08
0.00192
1.35734e-08
0.00192
1.35677e-08
0.00192
1.35619e-08
0.00192
1.35562e-08
0.00192
1.35505e-08
0.00192
1.35448e-08
0.00192
1.35391e-08
0.00192
1.35334e-08
0.00192
1.35277e-08
0.00192
1.35221e-08
0.00192
1.35165e-08
0.00192
1.35108e-08
0.00192
1.35052e-08
0.00192
1.34996e-08
0.00192
1.34941e-08
0.00192
1.34885e-08
0.00192
1.3483e-08
0.00192
1.34775e-08
0.00192
1.3472e-08
0.00192
1.34666e-08
0.00192
1.34612e-08
0.00192
1.34558e-08
0.00192
1.34504e-08
0.00192
1.34451e-08
0.00192
1.34398e-08
0.00192
1.34345e-08
0.00192
1.34293e-08
0.00192
1.34241e-08
0.00192
1.3419e-08
0.00192
1.34139e-08
0.00192
1.34088e-08
0.00192
1.34037e-08
0.00192
1.33987e-08
0.00192
1.33938e-08
0.00192
1.33889e-08
0.00192
1.3384e-08
0.00192
1.33791e-08
0.00192
1.33743e-08
0.00192
1.33695e-08
0.00192
1.33647e-08
0.00192
1.33599e-08
0.00192
1.33551e-08
0.00192
1.33503e-08
0.00192
1.33456e-08
0.00192
1.33407e-08
0.00192
1.33359e-08
0.00192
1.3331e-08
0.00192
1.3326e-08
0.00192
1.33209e-08
0.00192
1.33158e-08
0.00192
1.33105e-08
0.00192
1.3305e-08
0.00192
1.32993e-08
0.00192
1.32933e-08
0.00192
1.3287e-08
0.00192
1.32804e-08
0.00192
1.32734e-08
0.00192
1.32668e-08
0.00192
1.32602e-08
0.00192
1.32534e-08
0.00192
0.00192
1.3767e-08
0.00192
1.37606e-08
0.00192
1.37545e-08
0.00192
1.37486e-08
0.00192
1.37428e-08
0.00192
1.37371e-08
0.00192
1.37315e-08
0.00192
1.37259e-08
0.00192
1.37205e-08
0.00192
1.37151e-08
0.00192
1.37097e-08
0.00192
1.37043e-08
0.00192
1.3699e-08
0.00192
1.36937e-08
0.00192
1.36884e-08
0.00192
1.36832e-08
0.00192
1.36779e-08
0.00192
1.36726e-08
0.00192
1.36674e-08
0.00192
1.36621e-08
0.00192
1.36569e-08
0.00192
1.36516e-08
0.00192
1.36464e-08
0.00192
1.36411e-08
0.00192
1.36358e-08
0.00192
1.36306e-08
0.00192
1.36253e-08
0.00192
1.362e-08
0.00192
1.36147e-08
0.00192
1.36094e-08
0.00192
1.3604e-08
0.00192
1.35987e-08
0.00192
1.35934e-08
0.00192
1.3588e-08
0.00192
1.35826e-08
0.00192
1.35773e-08
0.00192
1.35719e-08
0.00192
1.35665e-08
0.00192
1.35611e-08
0.00192
1.35557e-08
0.00192
1.35502e-08
0.00192
1.35448e-08
0.00192
1.35394e-08
0.00192
1.35339e-08
0.00192
1.35285e-08
0.00192
1.3523e-08
0.00192
1.35175e-08
0.00192
1.3512e-08
0.00192
1.35065e-08
0.00192
1.3501e-08
0.00192
1.34955e-08
0.00192
1.349e-08
0.00192
1.34845e-08
0.00192
1.3479e-08
0.00192
1.34734e-08
0.00192
1.34679e-08
0.00192
1.34623e-08
0.00192
1.34568e-08
0.00192
1.34512e-08
0.00192
1.34457e-08
0.00192
1.34401e-08
0.00192
1.34345e-08
0.00192
1.34289e-08
0.00192
1.34233e-08
0.00192
1.34177e-08
0.00192
1.34121e-08
0.00192
1.34065e-08
0.00192
1.34009e-08
0.00192
1.33953e-08
0.00192
1.33897e-08
0.00192
1.33841e-08
0.00192
1.33784e-08
0.00192
1.33728e-08
0.00192
1.33672e-08
0.00192
1.33616e-08
0.00192
1.33559e-08
0.00192
1.33503e-08
0.00192
1.33447e-08
0.00192
1.3339e-08
0.00192
1.33334e-08
0.00192
1.33277e-08
0.00192
1.33221e-08
0.00192
1.33164e-08
0.00192
1.33108e-08
0.00192
1.33052e-08
0.00192
1.32995e-08
0.00192
1.32939e-08
0.00192
1.32882e-08
0.00192
1.32826e-08
0.00192
1.3277e-08
0.00192
1.32714e-08
0.00192
1.32657e-08
0.00192
1.32601e-08
0.00192
1.32545e-08
0.00192
1.32489e-08
0.00192
1.32433e-08
0.00192
1.32377e-08
0.00192
1.32321e-08
0.00192
1.32266e-08
0.00192
1.3221e-08
0.00192
1.32155e-08
0.00192
1.32099e-08
0.00192
1.32044e-08
0.00192
1.31989e-08
0.00192
1.31934e-08
0.00192
1.31879e-08
0.00192
1.31825e-08
0.00192
1.3177e-08
0.00192
1.31716e-08
0.00192
1.31662e-08
0.00192
1.31609e-08
0.00192
1.31555e-08
0.00192
1.31502e-08
0.00192
1.31449e-08
0.00192
1.31397e-08
0.00192
1.31344e-08
0.00192
1.31292e-08
0.00192
1.31241e-08
0.00192
1.31189e-08
0.00192
1.31138e-08
0.00192
1.31088e-08
0.00192
1.31038e-08
0.00192
1.30988e-08
0.00192
1.30938e-08
0.00192
1.30889e-08
0.00192
1.3084e-08
0.00192
1.30792e-08
0.00192
1.30744e-08
0.00192
1.30696e-08
0.00192
1.30649e-08
0.00192
1.30602e-08
0.00192
1.30555e-08
0.00192
1.30508e-08
0.00192
1.30462e-08
0.00192
1.30415e-08
0.00192
1.30368e-08
0.00192
1.30322e-08
0.00192
1.30274e-08
0.00192
1.30227e-08
0.00192
1.30179e-08
0.00192
1.3013e-08
0.00192
1.3008e-08
0.00192
1.30029e-08
0.00192
1.29977e-08
0.00192
1.29922e-08
0.00192
1.29866e-08
0.00192
1.29806e-08
0.00192
1.29743e-08
0.00192
1.29678e-08
0.00192
1.2961e-08
0.00192
1.29543e-08
0.00192
1.29478e-08
0.00192
1.2941e-08
0.00192
1.29341e-08
0.00192
0.00192
1.34359e-08
0.00192
1.34297e-08
0.00192
1.34237e-08
0.00192
1.34179e-08
0.00192
1.34123e-08
0.00192
1.34067e-08
0.00192
1.34012e-08
0.00192
1.33958e-08
0.00192
1.33904e-08
0.00192
1.33852e-08
0.00192
1.33799e-08
0.00192
1.33747e-08
0.00192
1.33695e-08
0.00192
1.33643e-08
0.00192
1.33591e-08
0.00192
1.3354e-08
0.00192
1.33489e-08
0.00192
1.33437e-08
0.00192
1.33386e-08
0.00192
1.33335e-08
0.00192
1.33283e-08
0.00192
1.33232e-08
0.00192
1.33181e-08
0.00192
1.33129e-08
0.00192
1.33078e-08
0.00192
1.33026e-08
0.00192
1.32975e-08
0.00192
1.32923e-08
0.00192
1.32871e-08
0.00192
1.32819e-08
0.00192
1.32768e-08
0.00192
1.32715e-08
0.00192
1.32663e-08
0.00192
1.32611e-08
0.00192
1.32559e-08
0.00192
1.32506e-08
0.00192
1.32454e-08
0.00192
1.32401e-08
0.00192
1.32348e-08
0.00192
1.32295e-08
0.00192
1.32242e-08
0.00192
1.32189e-08
0.00192
1.32136e-08
0.00192
1.32083e-08
0.00192
1.3203e-08
0.00192
1.31976e-08
0.00192
1.31923e-08
0.00192
1.31869e-08
0.00192
1.31816e-08
0.00192
1.31762e-08
0.00192
1.31708e-08
0.00192
1.31654e-08
0.00192
1.31601e-08
0.00192
1.31547e-08
0.00192
1.31493e-08
0.00192
1.31438e-08
0.00192
1.31384e-08
0.00192
1.3133e-08
0.00192
1.31276e-08
0.00192
1.31221e-08
0.00192
1.31167e-08
0.00192
1.31112e-08
0.00192
1.31058e-08
0.00192
1.31003e-08
0.00192
1.30949e-08
0.00192
1.30894e-08
0.00192
1.30839e-08
0.00192
1.30785e-08
0.00192
1.3073e-08
0.00192
1.30675e-08
0.00192
1.3062e-08
0.00192
1.30565e-08
0.00192
1.3051e-08
0.00192
1.30455e-08
0.00192
1.304e-08
0.00192
1.30345e-08
0.00192
1.3029e-08
0.00192
1.30235e-08
0.00192
1.3018e-08
0.00192
1.30125e-08
0.00192
1.3007e-08
0.00192
1.30015e-08
0.00192
1.2996e-08
0.00192
1.29905e-08
0.00192
1.2985e-08
0.00192
1.29794e-08
0.00192
1.29739e-08
0.00192
1.29684e-08
0.00192
1.29629e-08
0.00192
1.29574e-08
0.00192
1.29519e-08
0.00192
1.29465e-08
0.00192
1.2941e-08
0.00192
1.29355e-08
0.00192
1.293e-08
0.00192
1.29246e-08
0.00192
1.29191e-08
0.00192
1.29137e-08
0.00192
1.29082e-08
0.00192
1.29028e-08
0.00192