/*--------------------------------*- C++ -*----------------------------------*\
| =========                 |                                                 |
| \\      /  F ield         | OpenFOAM: The Open Source CFD Toolbox           |
|  \\    /   O peration     | Version:  2512                                  |
|   \\  /    A nd           | Website:  www.openfoam.com                      |
|    \\/     M anipulation  |                                                 |
\*---------------------------------------------------------------------------*/
FoamFile
{
    version     2.0;
    format      ascii;
    arch        "LSB;label=32;scalar=64";
    class       volVectorField;
    location    "0.1";
    object      U;
}
// * * * * * * * * * * * * * * * * * * * * * * * * * * * * * * * * * * * * * //

dimensions      [0 1 -1 0 0 0 0];

internalField   nonuniform List<vector> 
8333
(
(0.0277875 -3.15656e-06 -2.4719e-19)
(0.0277887 -3.28567e-06 8.76237e-20)
(0.027791 -3.27608e-06 -1.93037e-19)
(0.027793 -3.13103e-06 2.26295e-19)
(0.0277943 -3.06671e-06 2.73051e-20)
(0.0277954 -3.07432e-06 1.74144e-19)
(0.0277964 -3.07917e-06 1.33615e-19)
(0.0277975 -3.07031e-06 3.71895e-19)
(0.0277985 -3.05939e-06 -2.46077e-19)
(0.0277995 -3.04964e-06 1.00796e-19)
(0.0278004 -3.04005e-06 -1.82313e-19)
(0.0278013 -3.03026e-06 2.43311e-19)
(0.0278021 -3.02039e-06 3.54618e-20)
(0.0278029 -3.0105e-06 1.80772e-19)
(0.0278037 -3.0006e-06 1.46333e-19)
(0.0278044 -2.99069e-06 3.73458e-19)
(0.0278051 -2.98076e-06 -2.25444e-19)
(0.0278057 -2.97083e-06 5.85025e-20)
(0.0278063 -2.96089e-06 -4.82901e-20)
(0.0278068 -2.95094e-06 -2.78098e-20)
(0.0278073 -2.941e-06 4.28834e-19)
(0.0278078 -2.93105e-06 -1.05761e-19)
(0.0278082 -2.92109e-06 2.18958e-19)
(0.0278086 -2.91113e-06 -1.14262e-19)
(0.0278089 -2.90117e-06 2.7645e-19)
(0.0278092 -2.89121e-06 5.01977e-20)
(0.0278094 -2.88124e-06 1.91823e-19)
(0.0278096 -2.87128e-06 1.50796e-19)
(0.0278098 -2.86131e-06 3.78597e-19)
(0.0278099 -2.85133e-06 -2.43444e-19)
(0.02781 -2.84136e-06 1.02242e-19)
(0.02781 -2.83139e-06 -1.78161e-19)
(0.02781 -2.82142e-06 2.4893e-19)
(0.02781 -2.81144e-06 3.86276e-20)
(0.0278099 -2.80147e-06 1.79985e-19)
(0.0278098 -2.7915e-06 1.44828e-19)
(0.0278096 -2.78153e-06 3.74923e-19)
(0.0278094 -2.77155e-06 -2.49665e-19)
(0.0278091 -2.76158e-06 1.13391e-19)
(0.0278089 -2.75162e-06 -1.78938e-19)
(0.0278085 -2.74166e-06 2.44454e-19)
(0.0278082 -2.73169e-06 4.0139e-20)
(0.0278077 -2.72173e-06 1.90401e-19)
(0.0278073 -2.71178e-06 1.54612e-19)
(0.0278068 -2.70182e-06 3.80214e-19)
(0.0278063 -2.69186e-06 -2.44499e-19)
(0.0278057 -2.68192e-06 1.07265e-19)
(0.0278051 -2.67198e-06 -1.76133e-19)
(0.0278044 -2.66203e-06 2.53176e-19)
(0.0278037 -2.6521e-06 3.89452e-20)
(0.027803 -2.64217e-06 1.90954e-19)
(0.0278022 -2.63225e-06 1.57408e-19)
(0.0278014 -2.62232e-06 3.77326e-19)
(0.0278006 -2.61241e-06 -2.46688e-19)
(0.0277997 -2.6025e-06 1.04699e-19)
(0.0277987 -2.59259e-06 -1.7272e-19)
(0.0277978 -2.58269e-06 2.49937e-19)
(0.0277968 -2.5728e-06 3.89356e-20)
(0.0277957 -2.56291e-06 1.87265e-19)
(0.0277946 -2.55303e-06 1.51452e-19)
(0.0277935 -2.54315e-06 3.73046e-19)
(0.0277923 -2.53329e-06 -2.55104e-19)
(0.0277911 -2.52343e-06 1.11524e-19)
(0.0277899 -2.51357e-06 -1.7556e-19)
(0.0277886 -2.50373e-06 2.49689e-19)
(0.0277873 -2.4939e-06 4.71075e-20)
(0.0277859 -2.48407e-06 1.96997e-19)
(0.0277845 -2.47426e-06 1.56242e-19)
(0.0277831 -2.46447e-06 3.69264e-19)
(0.0277816 -2.45468e-06 -2.54919e-19)
(0.0277801 -2.44491e-06 1.04119e-19)
(0.0277786 -2.43514e-06 -1.73955e-19)
(0.027777 -2.42538e-06 2.57416e-19)
(0.0277753 -2.41563e-06 3.69968e-20)
(0.0277737 -2.40589e-06 1.88706e-19)
(0.027772 -2.39618e-06 1.57749e-19)
(0.0277703 -2.38647e-06 3.73493e-19)
(0.0277685 -2.37677e-06 -2.55605e-19)
(0.0277667 -2.36709e-06 1.06777e-19)
(0.0277648 -2.35743e-06 -1.66658e-19)
(0.0277629 -2.34779e-06 2.59253e-19)
(0.027761 -2.33816e-06 3.58403e-20)
(0.0277591 -2.32855e-06 1.86174e-19)
(0.0277571 -2.31894e-06 1.54348e-19)
(0.027755 -2.30935e-06 3.72442e-19)
(0.027753 -2.29978e-06 -2.57893e-19)
(0.0277509 -2.29023e-06 1.04537e-19)
(0.0277487 -2.28068e-06 -1.66912e-19)
(0.0277465 -2.27114e-06 2.62315e-19)
(0.0277443 -2.26163e-06 4.11819e-20)
(0.0277421 -2.25213e-06 1.91065e-19)
(0.0277398 -2.24266e-06 1.58827e-19)
(0.0277375 -2.23319e-06 3.66501e-19)
(0.0277351 -2.22376e-06 -2.56663e-19)
(0.0277327 -2.21435e-06 1.03891e-19)
(0.0277303 -2.20494e-06 -1.67442e-19)
(0.0277279 -2.19556e-06 2.60614e-19)
(0.0277254 -2.18619e-06 3.74878e-20)
(0.0277228 -2.17683e-06 1.86054e-19)
(0.0277203 -2.16751e-06 1.56313e-19)
(0.0277177 -2.1582e-06 3.61507e-19)
(0.027715 -2.1489e-06 -2.60944e-19)
(0.0277124 -2.13963e-06 1.05729e-19)
(0.0277097 -2.13038e-06 -1.71951e-19)
(0.0277069 -2.12116e-06 2.59883e-19)
(0.0277042 -2.11195e-06 3.67169e-20)
(0.0277014 -2.10277e-06 1.88898e-19)
(0.0276985 -2.09363e-06 1.60734e-19)
(0.0276956 -2.0845e-06 3.6282e-19)
(0.0276927 -2.0754e-06 -2.62313e-19)
(0.0276898 -2.06632e-06 1.03832e-19)
(0.0276868 -2.05727e-06 -1.64131e-19)
(0.0276838 -2.04824e-06 2.60654e-19)
(0.0276808 -2.03922e-06 3.27313e-20)
(0.0276777 -2.03025e-06 1.82342e-19)
(0.0276746 -2.0213e-06 1.5685e-19)
(0.0276715 -2.01238e-06 3.63157e-19)
(0.0276683 -2.00349e-06 -2.66247e-19)
(0.0276651 -1.99463e-06 1.08704e-19)
(0.0276619 -1.98581e-06 -1.6884e-19)
(0.0276586 -1.97704e-06 2.65808e-19)
(0.0276553 -1.9683e-06 4.28156e-20)
(0.027652 -1.9596e-06 1.91957e-19)
(0.0276486 -1.95094e-06 1.61874e-19)
(0.0276452 -1.94232e-06 3.60624e-19)
(0.0276418 -1.93376e-06 -2.63381e-19)
(0.0276384 -1.92524e-06 1.00181e-19)
(0.0276349 -1.91679e-06 -1.62679e-19)
(0.0276314 -1.9084e-06 2.70053e-19)
(0.0276278 -1.9001e-06 2.84248e-20)
(0.0276242 -1.8919e-06 1.81979e-19)
(0.0276206 -1.88381e-06 1.63968e-19)
(0.027617 -1.87585e-06 3.62246e-19)
(0.0276134 -1.86805e-06 -2.64683e-19)
(0.0276097 -1.86045e-06 1.07687e-19)
(0.027606 -1.85311e-06 -1.66943e-19)
(0.0276022 -1.84613e-06 2.66798e-19)
(0.0275985 -1.83957e-06 3.67856e-20)
(0.0275947 -1.83377e-06 1.89162e-19)
(0.0275909 -1.82867e-06 1.64897e-19)
(0.0275871 -1.8253e-06 3.54969e-19)
(0.0275833 -1.82354e-06 -2.56643e-19)
(0.0275795 -1.82309e-06 6.67164e-20)
(0.0275757 -1.83685e-06 -5.21373e-20)
(0.0275719 -1.81703e-06 1.45616e-20)
(0.0275686 -1.93417e-06 4.33949e-19)
(0.0275643 -1.80376e-06 -1.19677e-19)
(0.0275632 -2.53758e-06 2.14669e-19)
(0.0275583 -3.16305e-06 -1.11241e-19)
(0.0511076 -1.02409e-05 -5.15993e-19)
(0.0511045 -1.06722e-05 9.86944e-19)
(0.0511027 -1.082e-05 -5.16537e-19)
(0.0511015 -1.04975e-05 1.44924e-18)
(0.0510998 -1.02561e-05 5.68428e-19)
(0.0510977 -1.02232e-05 1.25179e-18)
(0.0510954 -1.02367e-05 8.9802e-19)
(0.0510932 -1.02308e-05 2.37706e-18)
(0.0510909 -1.02183e-05 -5.52183e-19)
(0.0510886 -1.02077e-05 1.01665e-18)
(0.0510862 -1.01977e-05 -4.91015e-19)
(0.0510838 -1.01873e-05 1.5085e-18)
(0.0510814 -1.01768e-05 5.97108e-19)
(0.0510789 -1.01663e-05 1.26975e-18)
(0.0510763 -1.01557e-05 9.4852e-19)
(0.0510738 -1.01452e-05 2.36598e-18)
(0.0510711 -1.01347e-05 -4.32902e-19)
(0.0510685 -1.01241e-05 7.19297e-19)
(0.0510658 -1.01137e-05 2.8464e-19)
(0.051063 -1.01032e-05 6.56773e-20)
(0.0510602 -1.00927e-05 2.44586e-18)
(0.0510574 -1.00823e-05 -1.27553e-20)
(0.0510545 -1.00719e-05 1.52833e-18)
(0.0510516 -1.00615e-05 -1.75244e-19)
(0.0510486 -1.00512e-05 1.65552e-18)
(0.0510456 -1.00408e-05 6.47588e-19)
(0.0510426 -1.00305e-05 1.31256e-18)
(0.0510395 -1.00202e-05 9.68506e-19)
(0.0510364 -1.00099e-05 2.4038e-18)
(0.0510332 -9.99971e-06 -5.45189e-19)
(0.05103 -9.98949e-06 1.01437e-18)
(0.0510268 -9.97929e-06 -4.82228e-19)
(0.0510235 -9.96912e-06 1.52524e-18)
(0.0510201 -9.95898e-06 6.16904e-19)
(0.0510168 -9.94885e-06 1.26751e-18)
(0.0510133 -9.93875e-06 9.33971e-19)
(0.0510099 -9.92867e-06 2.38652e-18)
(0.0510064 -9.91862e-06 -5.90228e-19)
(0.0510028 -9.90858e-06 1.04939e-18)
(0.0509993 -9.89857e-06 -4.67461e-19)
(0.0509956 -9.88858e-06 1.50493e-18)
(0.050992 -9.87861e-06 6.00061e-19)
(0.0509883 -9.86867e-06 1.29945e-18)
(0.0509845 -9.85875e-06 9.76495e-19)
(0.0509807 -9.84884e-06 2.40333e-18)
(0.0509769 -9.83896e-06 -5.56032e-19)
(0.0509731 -9.82911e-06 1.02172e-18)
(0.0509692 -9.81928e-06 -4.8665e-19)
(0.0509652 -9.80947e-06 1.54501e-18)
(0.0509612 -9.79968e-06 5.98719e-19)
(0.0509572 -9.78992e-06 1.29283e-18)
(0.0509531 -9.78019e-06 9.93989e-19)
(0.050949 -9.77047e-06 2.39974e-18)
(0.0509449 -9.76078e-06 -5.64933e-19)
(0.0509407 -9.75111e-06 1.00658e-18)
(0.0509365 -9.74146e-06 -4.62543e-19)
(0.0509322 -9.73184e-06 1.52834e-18)
(0.0509279 -9.72225e-06 5.95589e-19)
(0.0509236 -9.71268e-06 1.2869e-18)
(0.0509192 -9.70314e-06 9.67536e-19)
(0.0509148 -9.69362e-06 2.38223e-18)
(0.0509104 -9.68413e-06 -6.16944e-19)
(0.0509059 -9.67466e-06 1.0344e-18)
(0.0509013 -9.66521e-06 -4.71023e-19)
(0.0508968 -9.65579e-06 1.52844e-18)
(0.0508922 -9.6464e-06 6.2954e-19)
(0.0508875 -9.63703e-06 1.33495e-18)
(0.0508828 -9.62767e-06 1.00464e-18)
(0.0508781 -9.61834e-06 2.37226e-18)
(0.0508733 -9.60903e-06 -6.07442e-19)
(0.0508685 -9.59976e-06 1.00503e-18)
(0.0508637 -9.59051e-06 -4.75434e-19)
(0.0508588 -9.58129e-06 1.56601e-18)
(0.0508539 -9.57209e-06 5.93821e-19)
(0.050849 -9.56292e-06 1.2922e-18)
(0.050844 -9.55378e-06 1.00051e-18)
(0.050839 -9.54466e-06 2.393e-18)
(0.0508339 -9.53556e-06 -6.16451e-19)
(0.0508288 -9.52648e-06 1.01516e-18)
(0.0508237 -9.51743e-06 -4.33919e-19)
(0.0508185 -9.5084e-06 1.58426e-18)
(0.0508133 -9.49941e-06 5.9702e-19)
(0.0508081 -9.49043e-06 1.27883e-18)
(0.0508028 -9.48148e-06 9.82015e-19)
(0.0507975 -9.47256e-06 2.38122e-18)
(0.0507921 -9.46367e-06 -6.20184e-19)
(0.0507867 -9.45481e-06 9.98783e-19)
(0.0507813 -9.44598e-06 -4.48729e-19)
(0.0507758 -9.43718e-06 1.58743e-18)
(0.0507703 -9.4284e-06 6.12128e-19)
(0.0507648 -9.41966e-06 1.30463e-18)
(0.0507592 -9.41094e-06 1.01291e-18)
(0.0507536 -9.40225e-06 2.36021e-18)
(0.050748 -9.39357e-06 -6.22637e-19)
(0.0507423 -9.38494e-06 1.00071e-18)
(0.0507366 -9.37633e-06 -4.49398e-19)
(0.0507308 -9.36777e-06 1.58269e-18)
(0.0507251 -9.35922e-06 6.04641e-19)
(0.0507193 -9.35071e-06 1.28147e-18)
(0.0507134 -9.34223e-06 1.00192e-18)
(0.0507075 -9.33379e-06 2.34103e-18)
(0.0507016 -9.32538e-06 -6.44253e-19)
(0.0506957 -9.31701e-06 1.01127e-18)
(0.0506897 -9.30867e-06 -4.66845e-19)
(0.0506836 -9.30036e-06 1.58663e-18)
(0.0506776 -9.29209e-06 6.01966e-19)
(0.0506715 -9.28385e-06 1.29432e-18)
(0.0506654 -9.27564e-06 1.02418e-18)
(0.0506592 -9.26747e-06 2.35446e-18)
(0.050653 -9.25935e-06 -6.46517e-19)
(0.0506468 -9.25127e-06 9.88883e-19)
(0.0506406 -9.24324e-06 -4.25197e-19)
(0.0506343 -9.23524e-06 1.5937e-18)
(0.050628 -9.22729e-06 5.90739e-19)
(0.0506216 -9.21938e-06 1.25399e-18)
(0.0506152 -9.21152e-06 9.91587e-19)
(0.0506088 -9.20371e-06 2.34887e-18)
(0.0506023 -9.19595e-06 -6.72952e-19)
(0.0505959 -9.18825e-06 1.02e-18)
(0.0505894 -9.1806e-06 -4.54098e-19)
(0.0505828 -9.173e-06 1.61065e-18)
(0.0505762 -9.16545e-06 6.35748e-19)
(0.0505696 -9.15798e-06 1.31035e-18)
(0.050563 -9.15059e-06 1.03177e-18)
(0.0505563 -9.14328e-06 2.33838e-18)
(0.0505496 -9.13605e-06 -6.48296e-19)
(0.0505429 -9.12892e-06 9.68656e-19)
(0.0505361 -9.1219e-06 -4.39351e-19)
(0.0505293 -9.11501e-06 1.63223e-18)
(0.0505225 -9.10826e-06 5.73646e-19)
(0.0505157 -9.10169e-06 1.24857e-18)
(0.0505088 -9.09533e-06 1.0281e-18)
(0.0505019 -9.08925e-06 2.3491e-18)
(0.050495 -9.08352e-06 -6.62887e-19)
(0.050488 -9.07826e-06 1.00995e-18)
(0.0504811 -9.0736e-06 -4.47888e-19)
(0.0504741 -9.06978e-06 1.61939e-18)
(0.0504671 -9.06697e-06 6.08919e-19)
(0.05046 -9.06587e-06 1.28984e-18)
(0.050453 -9.06648e-06 1.04786e-18)
(0.0504459 -9.071e-06 2.30962e-18)
(0.0504389 -9.07913e-06 -5.94842e-19)
(0.0504318 -9.09343e-06 7.38705e-19)
(0.0504249 -9.13317e-06 2.30196e-19)
(0.0504178 -9.13129e-06 2.43319e-19)
(0.0504116 -9.3955e-06 2.50284e-18)
(0.0504033 -9.09309e-06 -7.44654e-20)
(0.0504006 -1.07074e-05 1.50081e-18)
(0.0503892 -1.01394e-05 -1.82306e-19)
(0.0503878 -1.62614e-05 1.73847e-18)
(0.0599259 -1.30106e-05 -1.53543e-18)
(0.0599172 -1.33855e-05 4.35562e-18)
(0.0599097 -1.35613e-05 -1.09659e-18)
(0.059903 -1.32744e-05 5.70178e-18)
(0.0598961 -1.30218e-05 2.02865e-18)
(0.0598888 -1.29735e-05 4.99902e-18)
(0.0598815 -1.29851e-05 3.34418e-18)
(0.0598742 -1.29842e-05 7.44292e-18)
(0.0598668 -1.29787e-05 -1.70261e-18)
(0.0598593 -1.29758e-05 4.44897e-18)
(0.0598519 -1.29738e-05 -1.00907e-18)
(0.0598443 -1.29715e-05 5.86449e-18)
(0.0598368 -1.29691e-05 2.09163e-18)
(0.0598292 -1.29667e-05 5.06879e-18)
(0.0598215 -1.29643e-05 3.49671e-18)
(0.0598138 -1.2962e-05 7.40007e-18)
(0.0598061 -1.29597e-05 -1.33298e-18)
(0.0597983 -1.29574e-05 3.49843e-18)
(0.0597905 -1.29552e-05 1.2776e-18)
(0.0597826 -1.2953e-05 1.5519e-18)
(0.0597747 -1.29508e-05 8.01235e-18)
(0.0597667 -1.29487e-05 -9.23745e-20)
(0.0597587 -1.29466e-05 5.81151e-18)
(0.0597507 -1.29445e-05 -1.5035e-19)
(0.0597426 -1.29424e-05 6.24001e-18)
(0.0597345 -1.29404e-05 2.16984e-18)
(0.0597264 -1.29384e-05 5.16277e-18)
(0.0597182 -1.29365e-05 3.55999e-18)
(0.0597099 -1.29345e-05 7.51999e-18)
(0.0597016 -1.29326e-05 -1.67089e-18)
(0.0596933 -1.29308e-05 4.41017e-18)
(0.0596849 -1.29289e-05 -1.00493e-18)
(0.0596765 -1.29271e-05 5.87513e-18)
(0.0596681 -1.29253e-05 2.15934e-18)
(0.0596596 -1.29235e-05 5.06501e-18)
(0.059651 -1.29218e-05 3.43288e-18)
(0.0596425 -1.29201e-05 7.46227e-18)
(0.0596339 -1.29184e-05 -1.81783e-18)
(0.0596252 -1.29168e-05 4.47135e-18)
(0.0596165 -1.29151e-05 -9.1829e-19)
(0.0596078 -1.29135e-05 5.85586e-18)
(0.059599 -1.29119e-05 2.06792e-18)
(0.0595902 -1.29104e-05 5.1361e-18)
(0.0595813 -1.29088e-05 3.56053e-18)
(0.0595724 -1.29073e-05 7.47958e-18)
(0.0595635 -1.29058e-05 -1.69393e-18)
(0.0595545 -1.29043e-05 4.39907e-18)
(0.0595455 -1.29029e-05 -1.06653e-18)
(0.0595364 -1.29014e-05 5.95866e-18)
(0.0595273 -1.29e-05 2.09767e-18)
(0.0595182 -1.28986e-05 5.0855e-18)
(0.059509 -1.28973e-05 3.5977e-18)
(0.0594998 -1.28959e-05 7.49498e-18)
(0.0594905 -1.28946e-05 -1.70886e-18)
(0.0594812 -1.28933e-05 4.37098e-18)
(0.0594719 -1.2892e-05 -9.55657e-19)
(0.0594625 -1.28907e-05 5.91874e-18)
(0.0594531 -1.28894e-05 2.0501e-18)
(0.0594437 -1.28882e-05 5.09506e-18)
(0.0594342 -1.2887e-05 3.53878e-18)
(0.0594246 -1.28858e-05 7.45709e-18)
(0.0594151 -1.28846e-05 -1.87853e-18)
(0.0594055 -1.28834e-05 4.43809e-18)
(0.0593958 -1.28823e-05 -9.86805e-19)
(0.0593861 -1.28812e-05 5.92628e-18)
(0.0593764 -1.288e-05 2.16094e-18)
(0.0593666 -1.28789e-05 5.23386e-18)
(0.0593568 -1.28779e-05 3.66122e-18)
(0.059347 -1.28768e-05 7.43838e-18)
(0.0593371 -1.28758e-05 -1.8396e-18)
(0.0593272 -1.28747e-05 4.39269e-18)
(0.0593173 -1.28737e-05 -9.98674e-19)
(0.0593073 -1.28727e-05 6.02414e-18)
(0.0592972 -1.28718e-05 2.05315e-18)
(0.0592872 -1.28708e-05 5.1171e-18)
(0.0592771 -1.28699e-05 3.64199e-18)
(0.0592669 -1.28689e-05 7.51237e-18)
(0.0592568 -1.2868e-05 -1.90354e-18)
(0.0592466 -1.28671e-05 4.45141e-18)
(0.0592363 -1.28663e-05 -8.3752e-19)
(0.059226 -1.28654e-05 6.10033e-18)
(0.0592157 -1.28646e-05 2.09796e-18)
(0.0592053 -1.28638e-05 5.07639e-18)
(0.0591949 -1.2863e-05 3.5748e-18)
(0.0591845 -1.28622e-05 7.44103e-18)
(0.059174 -1.28614e-05 -1.88187e-18)
(0.0591635 -1.28607e-05 4.37162e-18)
(0.059153 -1.28599e-05 -9.25059e-19)
(0.0591424 -1.28592e-05 6.07672e-18)
(0.0591318 -1.28585e-05 2.09062e-18)
(0.0591212 -1.28578e-05 5.18116e-18)
(0.0591105 -1.28571e-05 3.69171e-18)
(0.0590998 -1.28564e-05 7.41154e-18)
(0.059089 -1.28558e-05 -1.90297e-18)
(0.0590782 -1.28552e-05 4.37145e-18)
(0.0590674 -1.28546e-05 -9.16233e-19)
(0.0590565 -1.2854e-05 6.05321e-18)
(0.0590456 -1.28535e-05 2.10174e-18)
(0.0590347 -1.28529e-05 5.09921e-18)
(0.0590238 -1.28524e-05 3.64575e-18)
(0.0590128 -1.28519e-05 7.35761e-18)
(0.0590017 -1.28514e-05 -1.96292e-18)
(0.0589907 -1.2851e-05 4.41868e-18)
(0.0589796 -1.28505e-05 -9.82565e-19)
(0.0589684 -1.28501e-05 6.09345e-18)
(0.0589573 -1.28497e-05 2.11074e-18)
(0.0589461 -1.28494e-05 5.157e-18)
(0.0589348 -1.28491e-05 3.71482e-18)
(0.0589236 -1.28488e-05 7.40201e-18)
(0.0589123 -1.28486e-05 -1.94212e-18)
(0.0589009 -1.28484e-05 4.29713e-18)
(0.0588896 -1.28482e-05 -8.49226e-19)
(0.0588782 -1.2848e-05 6.1026e-18)
(0.0588667 -1.28479e-05 2.10347e-18)
(0.0588553 -1.28479e-05 4.99214e-18)
(0.0588438 -1.28479e-05 3.56373e-18)
(0.0588322 -1.28479e-05 7.3566e-18)
(0.0588207 -1.2848e-05 -2.06086e-18)
(0.0588091 -1.28482e-05 4.4436e-18)
(0.0587975 -1.28485e-05 -9.45945e-19)
(0.0587858 -1.28488e-05 6.18035e-18)
(0.0587741 -1.28492e-05 2.23524e-18)
(0.0587624 -1.28497e-05 5.18257e-18)
(0.0587507 -1.28503e-05 3.72752e-18)
(0.0587389 -1.28511e-05 7.32846e-18)
(0.0587271 -1.28519e-05 -1.93196e-18)
(0.0587152 -1.2853e-05 4.24363e-18)
(0.0587034 -1.28542e-05 -9.22166e-19)
(0.0586915 -1.28556e-05 6.14536e-18)
(0.0586796 -1.28573e-05 2.02137e-18)
(0.0586676 -1.28594e-05 4.98151e-18)
(0.0586556 -1.28619e-05 3.6889e-18)
(0.0586436 -1.28649e-05 7.36572e-18)
(0.0586316 -1.28686e-05 -2.00407e-18)
(0.0586196 -1.28732e-05 4.38733e-18)
(0.0586075 -1.28789e-05 -9.42564e-19)
(0.0585954 -1.28862e-05 6.18863e-18)
(0.0585833 -1.28956e-05 2.15157e-18)
(0.0585711 -1.2908e-05 5.11306e-18)
(0.058559 -1.29244e-05 3.76945e-18)
(0.0585469 -1.2947e-05 7.24706e-18)
(0.0585347 -1.29787e-05 -1.76988e-18)
(0.0585226 -1.30213e-05 3.549e-18)
(0.0585106 -1.30994e-05 1.09494e-18)
(0.0584985 -1.31609e-05 1.9698e-18)
(0.058487 -1.34897e-05 8.16269e-18)
(0.0584743 -1.33516e-05 -2.68255e-19)
(0.0584651 -1.50382e-05 5.77459e-18)
(0.0584503 -1.41107e-05 -2.10793e-19)
(0.0584422 -1.91959e-05 6.513e-18)
(0.0625729 -1.30945e-05 -5.12618e-18)
(0.0625618 -1.33281e-05 1.51792e-17)
(0.0625515 -1.3488e-05 -1.7219e-18)
(0.0625421 -1.32856e-05 1.83289e-17)
(0.0625327 -1.3056e-05 3.96582e-18)
(0.0625229 -1.29899e-05 1.64625e-17)
(0.0625131 -1.29907e-05 8.59815e-18)
(0.0625033 -1.29876e-05 1.41747e-17)
(0.0624934 -1.29813e-05 -5.54e-18)
(0.0624835 -1.29776e-05 1.56111e-17)
(0.0624735 -1.2975e-05 -1.43999e-18)
(0.0624635 -1.29724e-05 1.88233e-17)
(0.0624535 -1.29698e-05 4.01971e-18)
(0.0624434 -1.29672e-05 1.6673e-17)
(0.0624332 -1.29646e-05 8.91313e-18)
(0.0624231 -1.29621e-05 1.41097e-17)
(0.0624128 -1.29595e-05 -4.84259e-18)
(0.0624026 -1.2957e-05 1.3734e-17)
(0.0623923 -1.29545e-05 2.41155e-18)
(0.0623819 -1.2952e-05 1.08802e-17)
(0.0623715 -1.29495e-05 1.74466e-17)
(0.0623611 -1.29471e-05 -2.00058e-18)
(0.0623506 -1.29446e-05 1.7901e-17)
(0.0623401 -1.29422e-05 -3.53101e-20)
(0.0623296 -1.29398e-05 1.93218e-17)
(0.062319 -1.29374e-05 4.03124e-18)
(0.0623083 -1.2935e-05 1.67454e-17)
(0.0622976 -1.29326e-05 9.02902e-18)
(0.0622869 -1.29302e-05 1.43112e-17)
(0.0622761 -1.29279e-05 -5.40264e-18)
(0.0622653 -1.29256e-05 1.54822e-17)
(0.0622545 -1.29233e-05 -1.49684e-18)
(0.0622436 -1.2921e-05 1.87976e-17)
(0.0622326 -1.29187e-05 4.14805e-18)
(0.0622217 -1.29164e-05 1.67218e-17)
(0.0622107 -1.29142e-05 8.7583e-18)
(0.0621996 -1.2912e-05 1.41872e-17)
(0.0621885 -1.29098e-05 -5.68267e-18)
(0.0621774 -1.29076e-05 1.55176e-17)
(0.0621662 -1.29054e-05 -1.28513e-18)
(0.062155 -1.29032e-05 1.85994e-17)
(0.0621437 -1.2901e-05 3.91457e-18)
(0.0621324 -1.28989e-05 1.68319e-17)
(0.0621211 -1.28968e-05 9.02906e-18)
(0.0621097 -1.28946e-05 1.41826e-17)
(0.0620983 -1.28925e-05 -5.39052e-18)
(0.0620868 -1.28904e-05 1.50454e-17)
(0.0620753 -1.28883e-05 -1.73739e-18)
(0.0620638 -1.28863e-05 1.8909e-17)
(0.0620522 -1.28842e-05 4.09798e-18)
(0.0620406 -1.28821e-05 1.68244e-17)
(0.0620289 -1.28801e-05 9.01731e-18)
(0.0620172 -1.28781e-05 1.42143e-17)
(0.0620055 -1.2876e-05 -5.4492e-18)
(0.0619937 -1.2874e-05 1.53366e-17)
(0.0619819 -1.2872e-05 -1.45345e-18)
(0.06197 -1.28701e-05 1.90041e-17)
(0.0619581 -1.28681e-05 3.93614e-18)
(0.0619462 -1.28661e-05 1.67354e-17)
(0.0619342 -1.28642e-05 8.96589e-18)
(0.0619222 -1.28622e-05 1.41817e-17)
(0.0619102 -1.28603e-05 -5.73406e-18)
(0.0618981 -1.28584e-05 1.53316e-17)
(0.0618859 -1.28565e-05 -1.51479e-18)
(0.0618738 -1.28546e-05 1.89452e-17)
(0.0618616 -1.28527e-05 4.13588e-18)
(0.0618493 -1.28509e-05 1.6869e-17)
(0.0618371 -1.2849e-05 9.18169e-18)
(0.0618247 -1.28471e-05 1.41561e-17)
(0.0618124 -1.28453e-05 -5.70787e-18)
(0.0618 -1.28435e-05 1.56362e-17)
(0.0617875 -1.28417e-05 -1.47695e-18)
(0.0617751 -1.28399e-05 1.9074e-17)
(0.0617626 -1.28381e-05 3.94191e-18)
(0.06175 -1.28363e-05 1.67176e-17)
(0.0617374 -1.28345e-05 9.14046e-18)
(0.0617248 -1.28328e-05 1.43295e-17)
(0.0617122 -1.2831e-05 -5.93549e-18)
(0.0616995 -1.28293e-05 1.56881e-17)
(0.0616867 -1.28276e-05 -1.07415e-18)
(0.061674 -1.28258e-05 1.92215e-17)
(0.0616612 -1.28241e-05 4.07853e-18)
(0.0616483 -1.28224e-05 1.67558e-17)
(0.0616355 -1.28208e-05 9.0096e-18)
(0.0616225 -1.28191e-05 1.41287e-17)
(0.0616096 -1.28174e-05 -5.78916e-18)
(0.0615966 -1.28158e-05 1.55112e-17)
(0.0615836 -1.28142e-05 -1.3439e-18)
(0.0615705 -1.28126e-05 1.90569e-17)
(0.0615574 -1.2811e-05 3.91294e-18)
(0.0615443 -1.28094e-05 1.71231e-17)
(0.0615312 -1.28079e-05 9.3079e-18)
(0.061518 -1.28063e-05 1.41326e-17)
(0.0615047 -1.28048e-05 -5.80447e-18)
(0.0614914 -1.28033e-05 1.53018e-17)
(0.0614781 -1.28018e-05 -1.31886e-18)
(0.0614648 -1.28003e-05 1.91139e-17)
(0.0614514 -1.27989e-05 4.0045e-18)
(0.061438 -1.27974e-05 1.67616e-17)
(0.0614246 -1.2796e-05 9.14628e-18)
(0.0614111 -1.27946e-05 1.40199e-17)
(0.0613976 -1.27933e-05 -5.93068e-18)
(0.061384 -1.2792e-05 1.56237e-17)
(0.0613705 -1.27907e-05 -1.45708e-18)
(0.0613568 -1.27894e-05 1.90564e-17)
(0.0613432 -1.27882e-05 4.0414e-18)
(0.0613295 -1.2787e-05 1.68433e-17)
(0.0613158 -1.27859e-05 9.30417e-18)
(0.061302 -1.27848e-05 1.40894e-17)
(0.0612883 -1.27837e-05 -5.80592e-18)
(0.0612745 -1.27827e-05 1.51491e-17)
(0.0612606 -1.27818e-05 -1.2656e-18)
(0.0612467 -1.27809e-05 1.92099e-17)
(0.0612328 -1.27801e-05 4.11585e-18)
(0.0612189 -1.27793e-05 1.66423e-17)
(0.0612049 -1.27787e-05 8.90261e-18)
(0.0611909 -1.27781e-05 1.39655e-17)
(0.0611768 -1.27776e-05 -6.13007e-18)
(0.0611628 -1.27772e-05 1.54516e-17)
(0.0611487 -1.27769e-05 -1.44041e-18)
(0.0611345 -1.27767e-05 1.95808e-17)
(0.0611204 -1.27767e-05 4.40534e-18)
(0.0611062 -1.27768e-05 1.67215e-17)
(0.0610919 -1.27771e-05 9.25481e-18)
(0.0610777 -1.27775e-05 1.39037e-17)
(0.0610634 -1.27782e-05 -5.75907e-18)
(0.0610491 -1.27792e-05 1.50763e-17)
(0.0610348 -1.27804e-05 -1.34929e-18)
(0.0610204 -1.2782e-05 1.88795e-17)
(0.061006 -1.2784e-05 3.82063e-18)
(0.0609916 -1.27865e-05 1.64761e-17)
(0.0609771 -1.27897e-05 9.14997e-18)
(0.0609626 -1.27937e-05 1.39814e-17)
(0.0609481 -1.27987e-05 -5.95275e-18)
(0.0609336 -1.28051e-05 1.52841e-17)
(0.060919 -1.28133e-05 -1.46698e-18)
(0.0609045 -1.28239e-05 1.94213e-17)
(0.0608899 -1.28378e-05 4.21903e-18)
(0.0608753 -1.2856e-05 1.66606e-17)
(0.0608607 -1.28807e-05 9.30928e-18)
(0.0608461 -1.29132e-05 1.37723e-17)
(0.0608315 -1.2962e-05 -5.50956e-18)
(0.0608169 -1.30194e-05 1.40112e-17)
(0.0608023 -1.31381e-05 2.17711e-18)
(0.0607879 -1.32216e-05 1.10689e-17)
(0.0607735 -1.36258e-05 1.75199e-17)
(0.060759 -1.36432e-05 -2.35739e-18)
(0.0607457 -1.51869e-05 1.79528e-17)
(0.0607303 -1.54035e-05 -2.01594e-19)
(0.0607175 -1.86346e-05 1.99496e-17)
(0.0607011 -2.12189e-05 4.24142e-18)
(0.0632245 -1.33225e-05 -2.06873e-18)
(0.0632125 -1.34837e-05 3.96772e-18)
(0.0632014 -1.36213e-05 -1.91327e-18)
(0.0631913 -1.34826e-05 5.23367e-18)
(0.063181 -1.32955e-05 1.5743e-18)
(0.0631704 -1.32302e-05 4.62751e-18)
(0.0631598 -1.32248e-05 2.71071e-18)
(0.0631492 -1.32198e-05 7.58558e-18)
(0.0631385 -1.32128e-05 -2.22561e-18)
(0.0631278 -1.32083e-05 4.05494e-18)
(0.063117 -1.32052e-05 -1.8403e-18)
(0.0631062 -1.32023e-05 5.39028e-18)
(0.0630954 -1.31994e-05 1.63278e-18)
(0.0630845 -1.31965e-05 4.68856e-18)
(0.0630735 -1.31937e-05 2.87566e-18)
(0.0630626 -1.3191e-05 7.53278e-18)
(0.0630515 -1.31883e-05 -1.78593e-18)
(0.0630405 -1.31855e-05 2.91444e-18)
(0.0630294 -1.31828e-05 8.27802e-19)
(0.0630182 -1.318e-05 5.75554e-19)
(0.063007 -1.31773e-05 7.92904e-18)
(0.0629958 -1.31746e-05 -5.89318e-19)
(0.0629845 -1.31719e-05 5.57666e-18)
(0.0629732 -1.31692e-05 -8.48183e-19)
(0.0629619 -1.31665e-05 5.85534e-18)
(0.0629505 -1.31639e-05 1.72841e-18)
(0.062939 -1.31612e-05 4.7973e-18)
(0.0629276 -1.31585e-05 2.95312e-18)
(0.062916 -1.31559e-05 7.66463e-18)
(0.0629045 -1.31533e-05 -2.21518e-18)
(0.0628929 -1.31506e-05 4.00734e-18)
(0.0628812 -1.3148e-05 -1.83343e-18)
(0.0628695 -1.31454e-05 5.40705e-18)
(0.0628578 -1.31429e-05 1.70671e-18)
(0.062846 -1.31403e-05 4.6785e-18)
(0.0628342 -1.31377e-05 2.81853e-18)
(0.0628224 -1.31352e-05 7.60969e-18)
(0.0628105 -1.31327e-05 -2.36193e-18)
(0.0627985 -1.31301e-05 4.07246e-18)
(0.0627866 -1.31276e-05 -1.73167e-18)
(0.0627746 -1.31252e-05 5.40458e-18)
(0.0627625 -1.31227e-05 1.59807e-18)
(0.0627504 -1.31202e-05 4.74878e-18)
(0.0627383 -1.31177e-05 2.95498e-18)
(0.0627261 -1.31153e-05 7.63259e-18)
(0.0627139 -1.31128e-05 -2.24874e-18)
(0.0627016 -1.31104e-05 4.00647e-18)
(0.0626893 -1.3108e-05 -1.88435e-18)
(0.062677 -1.31056e-05 5.50492e-18)
(0.0626646 -1.31032e-05 1.6292e-18)
(0.0626522 -1.31008e-05 4.70519e-18)
(0.0626397 -1.30985e-05 2.98253e-18)
(0.0626272 -1.30961e-05 7.64507e-18)
(0.0626147 -1.30937e-05 -2.25657e-18)
(0.0626021 -1.30914e-05 3.96847e-18)
(0.0625895 -1.30891e-05 -1.79237e-18)
(0.0625769 -1.30867e-05 5.45653e-18)
(0.0625642 -1.30844e-05 1.58507e-18)
(0.0625514 -1.30821e-05 4.69886e-18)
(0.0625387 -1.30798e-05 2.9284e-18)
(0.0625259 -1.30775e-05 7.60766e-18)
(0.062513 -1.30753e-05 -2.43198e-18)
(0.0625001 -1.3073e-05 4.03631e-18)
(0.0624872 -1.30708e-05 -1.80027e-18)
(0.0624743 -1.30685e-05 5.47917e-18)
(0.0624613 -1.30663e-05 1.70571e-18)
(0.0624482 -1.30641e-05 4.83561e-18)
(0.0624351 -1.30619e-05 3.07054e-18)
(0.062422 -1.30597e-05 7.58918e-18)
(0.0624089 -1.30575e-05 -2.39743e-18)
(0.0623957 -1.30553e-05 3.97839e-18)
(0.0623825 -1.30532e-05 -1.82026e-18)
(0.0623692 -1.3051e-05 5.59143e-18)
(0.0623559 -1.30488e-05 1.59237e-18)
(0.0623425 -1.30466e-05 4.72525e-18)
(0.0623292 -1.30445e-05 3.05891e-18)
(0.0623158 -1.30423e-05 7.67081e-18)
(0.0623023 -1.30402e-05 -2.46982e-18)
(0.0622888 -1.30381e-05 4.03422e-18)
(0.0622753 -1.3036e-05 -1.66735e-18)
(0.0622617 -1.30338e-05 5.65843e-18)
(0.0622481 -1.30317e-05 1.64185e-18)
(0.0622345 -1.30296e-05 4.68489e-18)
(0.0622208 -1.30276e-05 2.98666e-18)
(0.0622071 -1.30255e-05 7.58545e-18)
(0.0621934 -1.30234e-05 -2.45151e-18)
(0.0621796 -1.30213e-05 3.96896e-18)
(0.0621658 -1.30193e-05 -1.75417e-18)
(0.0621519 -1.30172e-05 5.64746e-18)
(0.062138 -1.30152e-05 1.62966e-18)
(0.0621241 -1.30132e-05 4.79266e-18)
(0.0621101 -1.30112e-05 3.10983e-18)
(0.0620961 -1.30092e-05 7.55051e-18)
(0.0620821 -1.30073e-05 -2.48877e-18)
(0.062068 -1.30054e-05 3.95038e-18)
(0.0620539 -1.30035e-05 -1.73783e-18)
(0.0620398 -1.30016e-05 5.62454e-18)
(0.0620256 -1.29997e-05 1.64103e-18)
(0.0620114 -1.29979e-05 4.70925e-18)
(0.0619972 -1.29961e-05 3.0703e-18)
(0.0619829 -1.29943e-05 7.50451e-18)
(0.0619686 -1.29926e-05 -2.54643e-18)
(0.0619543 -1.29909e-05 3.9974e-18)
(0.0619399 -1.29892e-05 -1.81287e-18)
(0.0619255 -1.29876e-05 5.66456e-18)
(0.061911 -1.29861e-05 1.65344e-18)
(0.0618966 -1.29846e-05 4.76858e-18)
(0.0618821 -1.29831e-05 3.13394e-18)
(0.0618675 -1.29817e-05 7.54366e-18)
(0.0618529 -1.29804e-05 -2.51737e-18)
(0.0618383 -1.29791e-05 3.87052e-18)
(0.0618237 -1.29779e-05 -1.68409e-18)
(0.061809 -1.29768e-05 5.67065e-18)
(0.0617943 -1.29758e-05 1.6502e-18)
(0.0617796 -1.29748e-05 4.61169e-18)
(0.0617648 -1.2974e-05 2.99275e-18)
(0.06175 -1.29733e-05 7.50509e-18)
(0.0617351 -1.29727e-05 -2.64766e-18)
(0.0617203 -1.29722e-05 4.02591e-18)
(0.0617054 -1.29719e-05 -1.77225e-18)
(0.0616905 -1.29717e-05 5.75567e-18)
(0.0616755 -1.29718e-05 1.77385e-18)
(0.0616605 -1.2972e-05 4.78955e-18)
(0.0616455 -1.29725e-05 3.15704e-18)
(0.0616304 -1.29732e-05 7.4782e-18)
(0.0616154 -1.29742e-05 -2.52692e-18)
(0.0616002 -1.29756e-05 3.81957e-18)
(0.0615851 -1.29774e-05 -1.76041e-18)
(0.0615699 -1.29796e-05 5.72406e-18)
(0.0615547 -1.29824e-05 1.56508e-18)
(0.0615395 -1.29859e-05 4.58147e-18)
(0.0615243 -1.29903e-05 3.11918e-18)
(0.061509 -1.29958e-05 7.50794e-18)
(0.0614937 -1.30027e-05 -2.6038e-18)
(0.0614784 -1.30114e-05 3.96057e-18)
(0.061463 -1.30224e-05 -1.78064e-18)
(0.0614477 -1.30365e-05 5.76892e-18)
(0.0614323 -1.30549e-05 1.7047e-18)
(0.0614169 -1.30789e-05 4.71207e-18)
(0.0614015 -1.31115e-05 3.21468e-18)
(0.0613861 -1.31532e-05 7.37118e-18)
(0.0613707 -1.32181e-05 -2.32162e-18)
(0.0613553 -1.32892e-05 2.95986e-18)
(0.0613399 -1.34457e-05 5.87364e-19)
(0.0613247 -1.35494e-05 1.0512e-18)
(0.0613094 -1.40201e-05 8.1414e-18)
(0.0612942 -1.41206e-05 -7.79504e-19)
(0.0612795 -1.55252e-05 5.50748e-18)
(0.0612637 -1.60913e-05 -9.23994e-19)
(0.0612489 -1.85507e-05 6.15281e-18)
(0.0612326 -2.22166e-05 1.78123e-18)
(0.0612132 -2.11618e-05 4.78877e-18)
(0.0633597 -1.27876e-05 -3.37458e-18)
(0.0633475 -1.28939e-05 -5.96717e-19)
(0.0633362 -1.29862e-05 -3.81807e-18)
(0.0633259 -1.28895e-05 1.5955e-20)
(0.0633154 -1.27398e-05 -1.43471e-18)
(0.0633046 -1.26745e-05 -1.34419e-19)
(0.0632938 -1.26615e-05 -1.24883e-18)
(0.063283 -1.26534e-05 2.47558e-18)
(0.0632721 -1.26448e-05 -3.38183e-18)
(0.0632612 -1.26387e-05 -5.67936e-19)
(0.0632502 -1.26341e-05 -3.84058e-18)
(0.0632392 -1.26299e-05 4.89248e-20)
(0.0632282 -1.26259e-05 -1.43158e-18)
(0.0632171 -1.26219e-05 -1.47594e-19)
(0.0632059 -1.2618e-05 -1.18208e-18)
(0.0631948 -1.26141e-05 2.4583e-18)
(0.0631836 -1.26102e-05 -3.07747e-18)
(0.0631723 -1.26064e-05 -1.37855e-18)
(0.063161 -1.26025e-05 -1.90026e-18)
(0.0631497 -1.25987e-05 -3.13001e-18)
(0.0631383 -1.25949e-05 2.16655e-18)
(0.0631268 -1.2591e-05 -2.51182e-18)
(0.0631154 -1.25872e-05 5.46766e-19)
(0.0631039 -1.25833e-05 -3.09755e-18)
(0.0630923 -1.25795e-05 4.43069e-19)
(0.0630807 -1.25757e-05 -1.34341e-18)
(0.0630691 -1.25719e-05 -4.7184e-20)
(0.0630574 -1.2568e-05 -1.10811e-18)
(0.0630457 -1.25643e-05 2.49914e-18)
(0.0630339 -1.25605e-05 -3.44033e-18)
(0.0630221 -1.25567e-05 -5.85854e-19)
(0.0630103 -1.25529e-05 -3.81629e-18)
(0.0629984 -1.25492e-05 9.06681e-20)
(0.0629865 -1.25454e-05 -1.39311e-18)
(0.0629745 -1.25417e-05 -1.85839e-19)