/*--------------------------------*- C++ -*----------------------------------*\
| =========                 |                                                 |
| \\      /  F ield         | OpenFOAM: The Open Source CFD Toolbox           |
|  \\    /   O peration     | Version:  2512                                  |
|   \\  /    A nd           | Website:  www.openfoam.com                      |
|    \\/     M anipulation  |                                                 |
\*---------------------------------------------------------------------------*/
FoamFile
{
    version     2.0;
    format      ascii;
    arch        "LSB;label=32;scalar=64";
    class       volScalarField;
    location    "0.1";
    object      Uy;
}
// * * * * * * * * * * * * * * * * * * * * * * * * * * * * * * * * * * * * * //

dimensions      [0 1 -1 0 0 0 0];

internalField   nonuniform List<scalar> 
8333
(
-3.15656e-06
-3.28567e-06
-3.27608e-06
-3.13103e-06
-3.06671e-06
-3.07432e-06
-3.07917e-06
-3.07031e-06
-3.05939e-06
-3.04964e-06
-3.04005e-06
-3.03026e-06
-3.02039e-06
-3.0105e-06
-3.0006e-06
-2.99069e-06
-2.98076e-06
-2.97083e-06
-2.96089e-06
-2.95094e-06
-2.941e-06
-2.93105e-06
-2.92109e-06
-2.91113e-06
-2.90117e-06
-2.89121e-06
-2.88124e-06
-2.87128e-06
-2.86131e-06
-2.85133e-06
-2.84136e-06
-2.83139e-06
-2.82142e-06
-2.81144e-06
-2.80147e-06
-2.7915e-06
-2.78153e-06
-2.77155e-06
-2.76158e-06
-2.75162e-06
-2.74166e-06
-2.73169e-06
-2.72173e-06
-2.71178e-06
-2.70182e-06
-2.69186e-06
-2.68192e-06
-2.67198e-06
-2.66203e-06
-2.6521e-06
-2.64217e-06
-2.63225e-06
-2.62232e-06
-2.61241e-06
-2.6025e-06
-2.59259e-06
-2.58269e-06
-2.5728e-06
-2.56291e-06
-2.55303e-06
-2.54315e-06
-2.53329e-06
-2.52343e-06
-2.51357e-06
-2.50373e-06
-2.4939e-06
-2.48407e-06
-2.47426e-06
-2.46447e-06
-2.45468e-06
-2.44491e-06
-2.43514e-06
-2.42538e-06
-2.41563e-06
-2.40589e-06
-2.39618e-06
-2.38647e-06
-2.37677e-06
-2.36709e-06
-2.35743e-06
-2.34779e-06
-2.33816e-06
-2.32855e-06
-2.31894e-06
-2.30935e-06
-2.29978e-06
-2.29023e-06
-2.28068e-06
-2.27114e-06
-2.26163e-06
-2.25213e-06
-2.24266e-06
-2.23319e-06
-2.22376e-06
-2.21435e-06
-2.20494e-06
-2.19556e-06
-2.18619e-06
-2.17683e-06
-2.16751e-06
-2.1582e-06
-2.1489e-06
-2.13963e-06
-2.13038e-06
-2.12116e-06
-2.11195e-06
-2.10277e-06
-2.09363e-06
-2.0845e-06
-2.0754e-06
-2.06632e-06
-2.05727e-06
-2.04824e-06
-2.03922e-06
-2.03025e-06
-2.0213e-06
-2.01238e-06
-2.00349e-06
-1.99463e-06
-1.98581e-06
-1.97704e-06
-1.9683e-06
-1.9596e-06
-1.95094e-06
-1.94232e-06
-1.93376e-06
-1.92524e-06
-1.91679e-06
-1.9084e-06
-1.9001e-06
-1.8919e-06
-1.88381e-06
-1.87585e-06
-1.86805e-06
-1.86045e-06
-1.85311e-06
-1.84613e-06
-1.83957e-06
-1.83377e-06
-1.82867e-06
-1.8253e-06
-1.82354e-06
-1.82309e-06
-1.83685e-06
-1.81703e-06
-1.93417e-06
-1.80376e-06
-2.53758e-06
-3.16305e-06
-1.02409e-05
-1.06722e-05
-1.082e-05
-1.04975e-05
-1.02561e-05
-1.02232e-05
-1.02367e-05
-1.02308e-05
-1.02183e-05
-1.02077e-05
-1.01977e-05
-1.01873e-05
-1.01768e-05
-1.01663e-05
-1.01557e-05
-1.01452e-05
-1.01347e-05
-1.01241e-05
-1.01137e-05
-1.01032e-05
-1.00927e-05
-1.00823e-05
-1.00719e-05
-1.00615e-05
-1.00512e-05
-1.00408e-05
-1.00305e-05
-1.00202e-05
-1.00099e-05
-9.99971e-06
-9.98949e-06
-9.97929e-06
-9.96912e-06
-9.95898e-06
-9.94885e-06
-9.93875e-06
-9.92867e-06
-9.91862e-06
-9.90858e-06
-9.89857e-06
-9.88858e-06
-9.87861e-06
-9.86867e-06
-9.85875e-06
-9.84884e-06
-9.83896e-06
-9.82911e-06
-9.81928e-06
-9.80947e-06
-9.79968e-06
-9.78992e-06
-9.78019e-06
-9.77047e-06
-9.76078e-06
-9.75111e-06
-9.74146e-06
-9.73184e-06
-9.72225e-06
-9.71268e-06
-9.70314e-06
-9.69362e-06
-9.68413e-06
-9.67466e-06
-9.66521e-06
-9.65579e-06
-9.6464e-06
-9.63703e-06
-9.62767e-06
-9.61834e-06
-9.60903e-06
-9.59976e-06
-9.59051e-06
-9.58129e-06
-9.57209e-06
-9.56292e-06
-9.55378e-06
-9.54466e-06
-9.53556e-06
-9.52648e-06
-9.51743e-06
-9.5084e-06
-9.49941e-06
-9.49043e-06
-9.48148e-06
-9.47256e-06
-9.46367e-06
-9.45481e-06
-9.44598e-06
-9.43718e-06
-9.4284e-06
-9.41966e-06
-9.41094e-06
-9.40225e-06
-9.39357e-06
-9.38494e-06
-9.37633e-06
-9.36777e-06
-9.35922e-06
-9.35071e-06
-9.34223e-06
-9.33379e-06
-9.32538e-06
-9.31701e-06
-9.30867e-06
-9.30036e-06
-9.29209e-06
-9.28385e-06
-9.27564e-06
-9.26747e-06
-9.25935e-06
-9.25127e-06
-9.24324e-06
-9.23524e-06
-9.22729e-06
-9.21938e-06
-9.21152e-06
-9.20371e-06
-9.19595e-06
-9.18825e-06
-9.1806e-06
-9.173e-06
-9.16545e-06
-9.15798e-06
-9.15059e-06
-9.14328e-06
-9.13605e-06
-9.12892e-06
-9.1219e-06
-9.11501e-06
-9.10826e-06
-9.10169e-06
-9.09533e-06
-9.08925e-06
-9.08352e-06
-9.07826e-06
-9.0736e-06
-9.06978e-06
-9.06697e-06
-9.06587e-06
-9.06648e-06
-9.071e-06
-9.07913e-06
-9.09343e-06
-9.13317e-06
-9.13129e-06
-9.3955e-06
-9.09309e-06
-1.07074e-05
-1.01394e-05
-1.62614e-05
-1.30106e-05
-1.33855e-05
-1.35613e-05
-1.32744e-05
-1.30218e-05
-1.29735e-05
-1.29851e-05
-1.29842e-05
-1.29787e-05
-1.29758e-05
-1.29738e-05
-1.29715e-05
-1.29691e-05
-1.29667e-05
-1.29643e-05
-1.2962e-05
-1.29597e-05
-1.29574e-05
-1.29552e-05
-1.2953e-05
-1.29508e-05
-1.29487e-05
-1.29466e-05
-1.29445e-05
-1.29424e-05
-1.29404e-05
-1.29384e-05
-1.29365e-05
-1.29345e-05
-1.29326e-05
-1.29308e-05
-1.29289e-05
-1.29271e-05
-1.29253e-05
-1.29235e-05
-1.29218e-05
-1.29201e-05
-1.29184e-05
-1.29168e-05
-1.29151e-05
-1.29135e-05
-1.29119e-05
-1.29104e-05
-1.29088e-05
-1.29073e-05
-1.29058e-05
-1.29043e-05
-1.29029e-05
-1.29014e-05
-1.29e-05
-1.28986e-05
-1.28973e-05
-1.28959e-05
-1.28946e-05
-1.28933e-05
-1.2892e-05
-1.28907e-05
-1.28894e-05
-1.28882e-05
-1.2887e-05
-1.28858e-05
-1.28846e-05
-1.28834e-05
-1.28823e-05
-1.28812e-05
-1.288e-05
-1.28789e-05
-1.28779e-05
-1.28768e-05
-1.28758e-05
-1.28747e-05
-1.28737e-05
-1.28727e-05
-1.28718e-05
-1.28708e-05
-1.28699e-05
-1.28689e-05
-1.2868e-05
-1.28671e-05
-1.28663e-05
-1.28654e-05
-1.28646e-05
-1.28638e-05
-1.2863e-05
-1.28622e-05
-1.28614e-05
-1.28607e-05
-1.28599e-05
-1.28592e-05
-1.28585e-05
-1.28578e-05
-1.28571e-05
-1.28564e-05
-1.28558e-05
-1.28552e-05
-1.28546e-05
-1.2854e-05
-1.28535e-05
-1.28529e-05
-1.28524e-05
-1.28519e-05
-1.28514e-05
-1.2851e-05
-1.28505e-05
-1.28501e-05
-1.28497e-05
-1.28494e-05
-1.28491e-05
-1.28488e-05
-1.28486e-05
-1.28484e-05
-1.28482e-05
-1.2848e-05
-1.28479e-05
-1.28479e-05
-1.28479e-05
-1.28479e-05
-1.2848e-05
-1.28482e-05
-1.28485e-05
-1.28488e-05
-1.28492e-05
-1.28497e-05
-1.28503e-05
-1.28511e-05
-1.28519e-05
-1.2853e-05
-1.28542e-05
-1.28556e-05
-1.28573e-05
-1.28594e-05
-1.28619e-05
-1.28649e-05
-1.28686e-05
-1.28732e-05
-1.28789e-05
-1.28862e-05
-1.28956e-05
-1.2908e-05
-1.29244e-05
-1.2947e-05
-1.29787e-05
-1.30213e-05
-1.30994e-05
-1.31609e-05
-1.34897e-05
-1.33516e-05
-1.50382e-05
-1.41107e-05
-1.91959e-05
-1.30945e-05
-1.33281e-05
-1.3488e-05
-1.32856e-05
-1.3056e-05
-1.29899e-05
-1.29907e-05
-1.29876e-05
-1.29813e-05
-1.29776e-05
-1.2975e-05
-1.29724e-05
-1.29698e-05
-1.29672e-05
-1.29646e-05
-1.29621e-05
-1.29595e-05
-1.2957e-05
-1.29545e-05
-1.2952e-05
-1.29495e-05
-1.29471e-05
-1.29446e-05
-1.29422e-05
-1.29398e-05
-1.29374e-05
-1.2935e-05
-1.29326e-05
-1.29302e-05
-1.29279e-05
-1.29256e-05
-1.29233e-05
-1.2921e-05
-1.29187e-05
-1.29164e-05
-1.29142e-05
-1.2912e-05
-1.29098e-05
-1.29076e-05
-1.29054e-05
-1.29032e-05
-1.2901e-05
-1.28989e-05
-1.28968e-05
-1.28946e-05
-1.28925e-05
-1.28904e-05
-1.28883e-05
-1.28863e-05
-1.28842e-05
-1.28821e-05
-1.28801e-05
-1.28781e-05
-1.2876e-05
-1.2874e-05
-1.2872e-05
-1.28701e-05
-1.28681e-05
-1.28661e-05
-1.28642e-05
-1.28622e-05
-1.28603e-05
-1.28584e-05
-1.28565e-05
-1.28546e-05
-1.28527e-05
-1.28509e-05
-1.2849e-05
-1.28471e-05
-1.28453e-05
-1.28435e-05
-1.28417e-05
-1.28399e-05
-1.28381e-05
-1.28363e-05
-1.28345e-05
-1.28328e-05
-1.2831e-05
-1.28293e-05
-1.28276e-05
-1.28258e-05
-1.28241e-05
-1.28224e-05
-1.28208e-05
-1.28191e-05
-1.28174e-05
-1.28158e-05
-1.28142e-05
-1.28126e-05
-1.2811e-05
-1.28094e-05
-1.28079e-05
-1.28063e-05
-1.28048e-05
-1.28033e-05
-1.28018e-05
-1.28003e-05
-1.27989e-05
-1.27974e-05
-1.2796e-05
-1.27946e-05
-1.27933e-05
-1.2792e-05
-1.27907e-05
-1.27894e-05
-1.27882e-05
-1.2787e-05
-1.27859e-05
-1.27848e-05
-1.27837e-05
-1.27827e-05
-1.27818e-05
-1.27809e-05
-1.27801e-05
-1.27793e-05
-1.27787e-05
-1.27781e-05
-1.27776e-05
-1.27772e-05
-1.27769e-05
-1.27767e-05
-1.27767e-05
-1.27768e-05
-1.27771e-05
-1.27775e-05
-1.27782e-05
-1.27792e-05
-1.27804e-05
-1.2782e-05
-1.2784e-05
-1.27865e-05
-1.27897e-05
-1.27937e-05
-1.27987e-05
-1.28051e-05
-1.28133e-05
-1.28239e-05
-1.28378e-05
-1.2856e-05
-1.28807e-05
-1.29132e-05
-1.2962e-05
-1.30194e-05
-1.31381e-05
-1.32216e-05
-1.36258e-05
-1.36432e-05
-1.51869e-05
-1.54035e-05
-1.86346e-05
-2.12189e-05
-1.33225e-05
-1.34837e-05
-1.36213e-05
-1.34826e-05
-1.32955e-05
-1.32302e-05
-1.32248e-05
-1.32198e-05
-1.32128e-05
-1.32083e-05
-1.32052e-05
-1.32023e-05
-1.31994e-05
-1.31965e-05
-1.31937e-05
-1.3191e-05
-1.31883e-05
-1.31855e-05
-1.31828e-05
-1.318e-05
-1.31773e-05
-1.31746e-05
-1.31719e-05
-1.31692e-05
-1.31665e-05
-1.31639e-05
-1.31612e-05
-1.31585e-05
-1.31559e-05
-1.31533e-05
-1.31506e-05
-1.3148e-05
-1.31454e-05
-1.31429e-05
-1.31403e-05
-1.31377e-05
-1.31352e-05
-1.31327e-05
-1.31301e-05
-1.31276e-05
-1.31252e-05
-1.31227e-05
-1.31202e-05
-1.31177e-05
-1.31153e-05
-1.31128e-05
-1.31104e-05
-1.3108e-05
-1.31056e-05
-1.31032e-05
-1.31008e-05
-1.30985e-05
-1.30961e-05
-1.30937e-05
-1.30914e-05
-1.30891e-05
-1.30867e-05
-1.30844e-05
-1.30821e-05
-1.30798e-05
-1.30775e-05
-1.30753e-05
-1.3073e-05
-1.30708e-05
-1.30685e-05
-1.30663e-05
-1.30641e-05
-1.30619e-05
-1.30597e-05
-1.30575e-05
-1.30553e-05
-1.30532e-05
-1.3051e-05
-1.30488e-05
-1.30466e-05
-1.30445e-05
-1.30423e-05
-1.30402e-05
-1.30381e-05
-1.3036e-05
-1.30338e-05
-1.30317e-05
-1.30296e-05
-1.30276e-05
-1.30255e-05
-1.30234e-05
-1.30213e-05
-1.30193e-05
-1.30172e-05
-1.30152e-05
-1.30132e-05
-1.30112e-05
-1.30092e-05
-1.30073e-05
-1.30054e-05
-1.30035e-05
-1.30016e-05
-1.29997e-05
-1.29979e-05
-1.29961e-05
-1.29943e-05
-1.29926e-05
-1.29909e-05
-1.29892e-05
-1.29876e-05
-1.29861e-05
-1.29846e-05
-1.29831e-05
-1.29817e-05
-1.29804e-05
-1.29791e-05
-1.29779e-05
-1.29768e-05
-1.29758e-05
-1.29748e-05
-1.2974e-05
-1.29733e-05
-1.29727e-05
-1.29722e-05
-1.29719e-05
-1.29717e-05
-1.29718e-05
-1.2972e-05
-1.29725e-05
-1.29732e-05
-1.29742e-05
-1.29756e-05
-1.29774e-05
-1.29796e-05
-1.29824e-05
-1.29859e-05
-1.29903e-05
-1.29958e-05
-1.30027e-05
-1.30114e-05
-1.30224e-05
-1.30365e-05
-1.30549e-05
-1.30789e-05
-1.31115e-05
-1.31532e-05
-1.32181e-05
-1.32892e-05
-1.34457e-05
-1.35494e-05
-1.40201e-05
-1.41206e-05
-1.55252e-05
-1.60913e-05
-1.85507e-05
-2.22166e-05
-2.11618e-05
-1.27876e-05
-1.28939e-05
-1.29862e-05
-1.28895e-05
-1.27398e-05
-1.26745e-05
-1.26615e-05
-1.26534e-05
-1.26448e-05
-1.26387e-05
-1.26341e-05
-1.26299e-05
-1.26259e-05
-1.26219e-05
-1.2618e-05
-1.26141e-05
-1.26102e-05
-1.26064e-05
-1.26025e-05
-1.25987e-05
-1.25949e-05
-1.2591e-05
-1.25872e-05
-1.25833e-05
-1.25795e-05
-1.25757e-05
-1.25719e-05
-1.2568e-05
-1.25643e-05
-1.25605e-05
-1.25567e-05
-1.25529e-05
-1.25492e-05
-1.25454e-05
-1.25417e-05
-1.2538e-05
-1.25343e-05
-1.25306e-05
-1.25269e-05
-1.25232e-05
-1.25195e-05
-1.25159e-05
-1.25122e-05
-1.25086e-05
-1.2505e-05
-1.25013e-05
-1.24977e-05
-1.24941e-05
-1.24906e-05
-1.2487e-05
-1.24834e-05
-1.24798e-05
-1.24763e-05
-1.24727e-05
-1.24692e-05
-1.24656e-05
-1.24621e-05
-1.24586e-05
-1.24551e-05
-1.24516e-05
-1.24481e-05
-1.24446e-05
-1.24412e-05
-1.24377e-05
-1.24342e-05
-1.24308e-05
-1.24273e-05
-1.24239e-05
-1.24204e-05
-1.2417e-05
-1.24136e-05
-1.24103e-05
-1.24069e-05
-1.24036e-05
-1.24002e-05
-1.23969e-05
-1.23936e-05
-1.23903e-05
-1.2387e-05
-1.23838e-05
-1.23805e-05
-1.23773e-05
-1.23741e-05
-1.23709e-05
-1.23677e-05
-1.23646e-05
-1.23615e-05
-1.23584e-05
-1.23553e-05
-1.23522e-05
-1.23492e-05
-1.23462e-05
-1.23432e-05
-1.23402e-05
-1.23372e-05
-1.23343e-05
-1.23314e-05
-1.23286e-05
-1.23257e-05
-1.23229e-05
-1.23202e-05
-1.23175e-05
-1.23149e-05
-1.23123e-05
-1.23098e-05
-1.23073e-05
-1.23048e-05
-1.23025e-05
-1.23002e-05
-1.2298e-05
-1.22959e-05
-1.22939e-05
-1.2292e-05
-1.22902e-05
-1.22885e-05
-1.22869e-05
-1.22855e-05
-1.22843e-05
-1.22832e-05
-1.22823e-05
-1.22816e-05
-1.22812e-05
-1.2281e-05
-1.22811e-05
-1.22816e-05
-1.22824e-05
-1.22837e-05
-1.22855e-05
-1.22878e-05
-1.2291e-05
-1.2295e-05
-1.23001e-05
-1.23065e-05
-1.23147e-05
-1.23252e-05
-1.23386e-05
-1.23559e-05
-1.23784e-05
-1.24078e-05
-1.24479e-05
-1.24989e-05
-1.25779e-05
-1.26641e-05
-1.28483e-05
-1.29807e-05
-1.34761e-05
-1.36921e-05
-1.4928e-05
-1.58633e-05
-1.75939e-05
-2.07823e-05
-2.16714e-05
-2.04219e-05
-1.25972e-05
-1.26628e-05
-1.27297e-05
-1.26681e-05
-1.25541e-05
-1.24957e-05
-1.24803e-05
-1.24717e-05
-1.24634e-05
-1.24572e-05
-1.24526e-05
-1.24484e-05
-1.24445e-05
-1.24406e-05
-1.24368e-05
-1.24331e-05
-1.24294e-05
-1.24257e-05
-1.2422e-05
-1.24182e-05
-1.24145e-05
-1.24108e-05
-1.2407e-05
-1.24033e-05
-1.23996e-05
-1.23959e-05
-1.23921e-05
-1.23884e-05
-1.23848e-05
-1.23811e-05
-1.23774e-05
-1.23738e-05
-1.23701e-05
-1.23665e-05
-1.23629e-05
-1.23593e-05
-1.23557e-05
-1.23522e-05
-1.23486e-05
-1.23451e-05
-1.23416e-05
-1.23381e-05
-1.23346e-05
-1.23312e-05
-1.23277e-05
-1.23242e-05
-1.23208e-05
-1.23174e-05
-1.2314e-05
-1.23106e-05
-1.23072e-05
-1.23039e-05
-1.23005e-05
-1.22972e-05
-1.22938e-05
-1.22905e-05
-1.22872e-05
-1.22839e-05
-1.22806e-05
-1.22774e-05
-1.22741e-05
-1.22709e-05
-1.22676e-05
-1.22644e-05
-1.22613e-05
-1.22581e-05
-1.22549e-05
-1.22518e-05
-1.22486e-05
-1.22455e-05
-1.22424e-05
-1.22393e-05
-1.22362e-05
-1.22331e-05
-1.223e-05
-1.22269e-05
-1.22239e-05
-1.22209e-05
-1.22179e-05
-1.22149e-05
-1.22119e-05
-1.22089e-05
-1.2206e-05
-1.22031e-05
-1.22002e-05
-1.21973e-05
-1.21944e-05
-1.21915e-05
-1.21887e-05
-1.21858e-05
-1.2183e-05
-1.21803e-05
-1.21775e-05
-1.21748e-05
-1.21722e-05
-1.21695e-05
-1.21669e-05
-1.21644e-05
-1.21618e-05
-1.21594e-05
-1.21569e-05
-1.21546e-05
-1.21522e-05
-1.215e-05
-1.21478e-05
-1.21456e-05
-1.21436e-05
-1.21416e-05
-1.21398e-05
-1.2138e-05
-1.21363e-05
-1.21348e-05
-1.21333e-05
-1.21321e-05
-1.21309e-05
-1.21299e-05
-1.21291e-05
-1.21284e-05
-1.2128e-05
-1.21278e-05
-1.21279e-05
-1.21282e-05
-1.21289e-05
-1.21299e-05
-1.21313e-05
-1.21332e-05
-1.21356e-05
-1.21386e-05
-1.21423e-05
-1.21469e-05
-1.21525e-05
-1.21595e-05
-1.21681e-05
-1.21787e-05
-1.2192e-05
-1.22086e-05
-1.22298e-05
-1.22572e-05
-1.22924e-05
-1.23399e-05
-1.24e-05
-1.24912e-05
-1.25933e-05
-1.27954e-05
-1.29619e-05
-1.34557e-05
-1.37771e-05
-1.48369e-05
-1.59264e-05
-1.72222e-05
-1.99214e-05
-2.03055e-05
-2.14836e-05
-1.2196e-05
-1.22434e-05
-1.22886e-05
-1.2245e-05
-1.21556e-05
-1.21026e-05
-1.20846e-05
-1.20747e-05
-1.20659e-05
-1.20592e-05
-1.2054e-05
-1.20493e-05
-1.20449e-05
-1.20407e-05
-1.20364e-05
-1.20323e-05
-1.20281e-05
-1.20239e-05
-1.20197e-05
-1.20155e-05
-1.20113e-05
-1.20071e-05
-1.20029e-05
-1.19987e-05
-1.19944e-05
-1.19902e-05
-1.1986e-05
-1.19817e-05
-1.19775e-05
-1.19733e-05
-1.19691e-05
-1.19649e-05
-1.19608e-05
-1.19566e-05
-1.19525e-05
-1.19483e-05
-1.19442e-05
-1.19401e-05
-1.1936e-05
-1.19319e-05
-1.19279e-05
-1.19238e-05
-1.19198e-05
-1.19158e-05
-1.19117e-05
-1.19078e-05
-1.19038e-05
-1.18998e-05
-1.18959e-05
-1.18919e-05
-1.1888e-05
-1.1884e-05
-1.18801e-05
-1.18762e-05
-1.18723e-05
-1.18684e-05
-1.18645e-05
-1.18607e-05
-1.18568e-05
-1.1853e-05
-1.18492e-05
-1.18454e-05
-1.18416e-05
-1.18378e-05
-1.1834e-05
-1.18303e-05
-1.18265e-05
-1.18228e-05
-1.1819e-05
-1.18153e-05
-1.18116e-05
-1.18079e-05
-1.18042e-05
-1.18006e-05
-1.17969e-05
-1.17933e-05
-1.17896e-05
-1.1786e-05
-1.17824e-05
-1.17788e-05
-1.17752e-05
-1.17717e-05
-1.17682e-05
-1.17646e-05
-1.17611e-05
-1.17577e-05
-1.17542e-05
-1.17508e-05
-1.17474e-05
-1.1744e-05
-1.17406e-05
-1.17373e-05
-1.1734e-05
-1.17307e-05
-1.17275e-05
-1.17243e-05
-1.17211e-05
-1.1718e-05
-1.1715e-05
-1.17119e-05
-1.1709e-05
-1.17061e-05
-1.17033e-05
-1.17005e-05
-1.16979e-05
-1.16953e-05
-1.16927e-05
-1.16903e-05
-1.1688e-05
-1.16858e-05
-1.16837e-05
-1.16818e-05
-1.168e-05
-1.16783e-05
-1.16768e-05
-1.16755e-05
-1.16744e-05
-1.16736e-05
-1.1673e-05
-1.16726e-05
-1.16726e-05
-1.16728e-05
-1.16735e-05
-1.16746e-05
-1.16761e-05
-1.16782e-05
-1.16809e-05
-1.16843e-05
-1.16885e-05
-1.16938e-05
-1.17003e-05
-1.17083e-05
-1.17182e-05
-1.17304e-05
-1.17457e-05
-1.17649e-05
-1.17893e-05
-1.18207e-05
-1.1861e-05
-1.19151e-05
-1.19839e-05
-1.20856e-05
-1.22029e-05
-1.2418e-05
-1.26174e-05
-1.31031e-05
-1.34965e-05
-1.44554e-05
-1.55319e-05
-1.67677e-05
-1.87228e-05
-1.99319e-05
-2.01592e-05
-2.05256e-05
-1.19052e-05
-1.19371e-05
-1.1966e-05
-1.19354e-05
-1.1867e-05
-1.18209e-05
-1.18022e-05
-1.17918e-05
-1.1783e-05
-1.17761e-05
-1.17706e-05
-1.17658e-05
-1.17611e-05
-1.17567e-05
-1.17522e-05
-1.17478e-05
-1.17434e-05
-1.1739e-05
-1.17345e-05
-1.173e-05
-1.17255e-05
-1.1721e-05
-1.17165e-05
-1.1712e-05
-1.17074e-05
-1.17029e-05
-1.16983e-05
-1.16938e-05
-1.16893e-05
-1.16847e-05
-1.16802e-05
-1.16758e-05
-1.16713e-05
-1.16668e-05
-1.16623e-05
-1.16579e-05
-1.16535e-05
-1.16491e-05
-1.16447e-05
-1.16403e-05
-1.1636e-05
-1.16317e-05
-1.16273e-05
-1.1623e-05
-1.16187e-05
-1.16144e-05
-1.16101e-05
-1.16059e-05
-1.16016e-05
-1.15974e-05
-1.15932e-05
-1.1589e-05
-1.15849e-05
-1.15807e-05
-1.15765e-05
-1.15724e-05
-1.15683e-05
-1.15641e-05
-1.156e-05
-1.15559e-05
-1.15519e-05
-1.15478e-05
-1.15438e-05
-1.15398e-05
-1.15358e-05
-1.15318e-05
-1.15278e-05
-1.15238e-05
-1.15199e-05
-1.1516e-05
-1.15121e-05
-1.15082e-05
-1.15043e-05
-1.15004e-05
-1.14966e-05
-1.14928e-05
-1.14889e-05
-1.14852e-05
-1.14814e-05
-1.14777e-05
-1.14739e-05
-1.14702e-05
-1.14666e-05
-1.14629e-05
-1.14593e-05
-1.14557e-05
-1.14521e-05
-1.14485e-05
-1.1445e-05
-1.14415e-05
-1.14381e-05
-1.14347e-05
-1.14313e-05
-1.14279e-05
-1.14247e-05
-1.14214e-05
-1.14182e-05
-1.14151e-05
-1.1412e-05
-1.1409e-05
-1.1406e-05
-1.14031e-05
-1.14003e-05
-1.13975e-05
-1.13949e-05
-1.13924e-05
-1.13899e-05
-1.13876e-05
-1.13854e-05
-1.13833e-05
-1.13813e-05
-1.13796e-05
-1.13779e-05
-1.13765e-05
-1.13753e-05
-1.13743e-05
-1.13735e-05
-1.13729e-05
-1.13727e-05
-1.13727e-05
-1.13731e-05
-1.13739e-05
-1.13751e-05
-1.13768e-05
-1.1379e-05
-1.13819e-05
-1.13854e-05
-1.13897e-05
-1.13949e-05
-1.14013e-05
-1.14091e-05
-1.14186e-05
-1.14301e-05
-1.14443e-05
-1.14618e-05
-1.14837e-05
-1.15113e-05
-1.15465e-05
-1.15917e-05
-1.16516e-05
-1.1728e-05
-1.18378e-05
-1.19687e-05
-1.21905e-05
-1.24168e-05
-1.28839e-05
-1.33249e-05
-1.41833e-05
-1.52176e-05
-1.63278e-05
-1.78972e-05
-1.9149e-05
-1.96034e-05
-2.13952e-05
-1.97299e-05
-1.15406e-05
-1.15635e-05
-1.15817e-05
-1.15588e-05
-1.15054e-05
-1.14652e-05
-1.14464e-05
-1.14357e-05
-1.1427e-05
-1.14199e-05
-1.14142e-05
-1.14091e-05
-1.14043e-05
-1.13996e-05
-1.13949e-05
-1.13903e-05
-1.13856e-05
-1.13809e-05
-1.13761e-05
-1.13713e-05
-1.13665e-05
-1.13616e-05
-1.13568e-05
-1.13519e-05
-1.13471e-05
-1.13422e-05
-1.13373e-05
-1.13324e-05
-1.13275e-05
-1.13226e-05
-1.13177e-05
-1.13129e-05
-1.13081e-05
-1.13033e-05
-1.12985e-05
-1.12937e-05
-1.12889e-05
-1.12841e-05
-1.12793e-05
-1.12746e-05
-1.12699e-05
-1.12652e-05
-1.12605e-05
-1.12558e-05
-1.12512e-05
-1.12466e-05
-1.12419e-05
-1.12373e-05
-1.12327e-05
-1.12281e-05
-1.12236e-05
-1.1219e-05
-1.12145e-05
-1.121e-05
-1.12055e-05
-1.1201e-05
-1.11965e-05
-1.1192e-05
-1.11876e-05
-1.11831e-05
-1.11788e-05
-1.11744e-05
-1.117e-05
-1.11656e-05
-1.11613e-05
-1.11569e-05
-1.11526e-05
-1.11483e-05
-1.1144e-05
-1.11397e-05
-1.11355e-05
-1.11312e-05
-1.1127e-05
-1.11227e-05
-1.11185e-05
-1.11143e-05
-1.11101e-05
-1.1106e-05
-1.11018e-05
-1.10977e-05
-1.10937e-05
-1.10896e-05
-1.10856e-05
-1.10815e-05
-1.10776e-05
-1.10736e-05
-1.10696e-05
-1.10657e-05
-1.10618e-05
-1.10579e-05
-1.10541e-05
-1.10502e-05
-1.10465e-05
-1.10427e-05
-1.10391e-05
-1.10354e-05
-1.10318e-05
-1.10283e-05
-1.10248e-05
-1.10214e-05
-1.10181e-05
-1.10149e-05
-1.10117e-05
-1.10086e-05
-1.10056e-05
-1.10027e-05
-1.1e-05
-1.09973e-05
-1.09949e-05
-1.09925e-05
-1.09904e-05
-1.09883e-05
-1.09865e-05
-1.09848e-05
-1.09834e-05
-1.09822e-05
-1.09813e-05
-1.09807e-05
-1.09804e-05
-1.09804e-05
-1.09808e-05
-1.09817e-05
-1.0983e-05
-1.09849e-05
-1.09873e-05
-1.09904e-05
-1.09943e-05
-1.09992e-05
-1.1005e-05
-1.10123e-05
-1.10209e-05
-1.10316e-05
-1.10444e-05
-1.10603e-05
-1.10798e-05
-1.11041e-05
-1.11345e-05
-1.11734e-05
-1.12228e-05
-1.1288e-05
-1.13714e-05
-1.14884e-05
-1.16314e-05
-1.18584e-05
-1.21081e-05
-1.25619e-05
-1.30373e-05
-1.38322e-05
-1.48066e-05
-1.58522e-05
-1.71202e-05
-1.84743e-05
-1.87683e-05
-2.02347e-05
-2.03939e-05
-1.85325e-05
-1.12222e-05
-1.12382e-05
-1.12488e-05
-1.12311e-05
-1.11894e-05
-1.1155e-05
-1.11368e-05
-1.1126e-05
-1.11175e-05
-1.11104e-05
-1.11045e-05
-1.10992e-05
-1.10942e-05
-1.10893e-05
-1.10844e-05
-1.10795e-05
-1.10746e-05
-1.10696e-05
-1.10646e-05
-1.10596e-05
-1.10545e-05
-1.10493e-05
-1.10442e-05
-1.1039e-05
-1.10338e-05
-1.10285e-05
-1.10232e-05
-1.1018e-05
-1.10129e-05
-1.10077e-05
-1.10026e-05
-1.09973e-05
-1.09921e-05
-1.09869e-05
-1.09818e-05
-1.09767e-05
-1.09716e-05
-1.09665e-05
-1.09614e-05
-1.09564e-05
-1.09513e-05
-1.09462e-05
-1.09413e-05
-1.09363e-05
-1.09313e-05
-1.09263e-05
-1.09214e-05
-1.09164e-05
-1.09115e-05
-1.09066e-05
-1.09017e-05
-1.08968e-05
-1.0892e-05
-1.08872e-05
-1.08823e-05
-1.08775e-05
-1.08727e-05
-1.08679e-05
-1.08631e-05
-1.08584e-05
-1.08537e-05
-1.0849e-05
-1.08443e-05
-1.08396e-05
-1.0835e-05
-1.08304e-05
-1.08258e-05
-1.08212e-05
-1.08166e-05
-1.0812e-05
-1.08075e-05
-1.0803e-05
-1.07986e-05
-1.07941e-05
-1.07897e-05
-1.07853e-05
-1.07809e-05
-1.07765e-05
-1.07722e-05
-1.07678e-05
-1.07635e-05
-1.07592e-05
-1.0755e-05
-1.07508e-05
-1.07466e-05
-1.07424e-05
-1.07382e-05
-1.07341e-05
-1.07301e-05
-1.07261e-05
-1.07222e-05
-1.07183e-05
-1.07144e-05
-1.07105e-05
-1.07068e-05
-1.0703e-05
-1.06994e-05
-1.06957e-05
-1.06922e-05
-1.06888e-05
-1.06854e-05
-1.06821e-05
-1.06789e-05
-1.06758e-05
-1.06728e-05
-1.06699e-05
-1.06671e-05
-1.06645e-05
-1.0662e-05
-1.06597e-05
-1.06575e-05
-1.06555e-05
-1.06538e-05
-1.06523e-05
-1.0651e-05
-1.065e-05
-1.06493e-05
-1.06489e-05
-1.06489e-05
-1.06492e-05
-1.065e-05
-1.06512e-05
-1.06529e-05
-1.06552e-05
-1.06582e-05
-1.0662e-05
-1.06666e-05
-1.06722e-05
-1.06789e-05
-1.06871e-05
-1.06968e-05
-1.07086e-05
-1.07228e-05
-1.07402e-05
-1.07614e-05
-1.07879e-05
-1.08209e-05
-1.08628e-05
-1.09158e-05
-1.09852e-05
-1.10738e-05
-1.11955e-05
-1.13469e-05
-1.15754e-05
-1.18376e-05
-1.22691e-05
-1.27502e-05
-1.34833e-05
-1.43778e-05
-1.53696e-05
-1.64221e-05
-1.77454e-05
-1.80311e-05
-1.9309e-05
-1.88034e-05
-1.9444e-05
-1.08777e-05
-1.08891e-05
-1.08946e-05
-1.08798e-05
-1.08466e-05
-1.0817e-05
-1.07996e-05
-1.07888e-05
-1.07804e-05
-1.07734e-05
-1.07674e-05
-1.07621e-05
-1.07569e-05
-1.07518e-05
-1.07468e-05
-1.07417e-05
-1.07365e-05
-1.07313e-05
-1.0726e-05
-1.07206e-05
-1.07152e-05
-1.07096e-05
-1.07042e-05
-1.06987e-05
-1.06932e-05
-1.06877e-05
-1.06821e-05
-1.06765e-05
-1.06709e-05
-1.06653e-05
-1.06598e-05
-1.06543e-05
-1.06488e-05
-1.06433e-05
-1.06378e-05
-1.06323e-05
-1.06268e-05
-1.06213e-05
-1.06159e-05
-1.06105e-05
-1.06052e-05
-1.05998e-05
-1.05944e-05
-1.0589e-05
-1.05837e-05
-1.05784e-05
-1.05731e-05
-1.05678e-05
-1.05625e-05
-1.05573e-05
-1.05521e-05
-1.05469e-05
-1.05417e-05
-1.05366e-05
-1.05315e-05
-1.05264e-05
-1.05212e-05
-1.05161e-05
-1.05109e-05
-1.05058e-05
-1.05008e-05
-1.04958e-05
-1.04907e-05
-1.04857e-05
-1.04807e-05
-1.04757e-05
-1.04707e-05
-1.04658e-05
-1.04609e-05
-1.0456e-05
-1.04511e-05
-1.04462e-05
-1.04413e-05
-1.04364e-05
-1.04315e-05
-1.04267e-05
-1.04219e-05
-1.04171e-05
-1.04123e-05
-1.04076e-05
-1.04029e-05
-1.03982e-05
-1.03935e-05
-1.03889e-05
-1.03843e-05
-1.03797e-05
-1.03751e-05
-1.03706e-05
-1.03661e-05
-1.03617e-05
-1.03573e-05
-1.0353e-05
-1.03488e-05
-1.03445e-05
-1.03405e-05
-1.03364e-05
-1.03324e-05
-1.03284e-05
-1.03245e-05
-1.03207e-05
-1.03171e-05
-1.03135e-05
-1.03099e-05
-1.03065e-05
-1.03032e-05
-1.03001e-05
-1.02971e-05
-1.02943e-05
-1.02916e-05
-1.02891e-05
-1.02868e-05
-1.02846e-05
-1.02827e-05
-1.02811e-05
-1.02798e-05
-1.02787e-05
-1.02779e-05
-1.02774e-05
-1.02774e-05
-1.02778e-05
-1.02787e-05
-1.02801e-05
-1.02821e-05
-1.02847e-05
-1.0288e-05
-1.02921e-05
-1.02971e-05
-1.03031e-05
-1.03104e-05
-1.03194e-05
-1.033e-05
-1.03428e-05
-1.03583e-05
-1.03771e-05
-1.04e-05
-1.04284e-05
-1.04638e-05
-1.05085e-05
-1.05648e-05
-1.06382e-05
-1.07319e-05
-1.0859e-05
-1.10184e-05
-1.12492e-05
-1.15244e-05
-1.19428e-05
-1.2426e-05
-1.31094e-05
-1.39341e-05
-1.48597e-05
-1.57895e-05
-1.69509e-05
-1.74359e-05
-1.81824e-05
-1.85564e-05
-1.83807e-05
-1.83942e-05
-1.05448e-05
-1.05523e-05
-1.05542e-05
-1.05416e-05
-1.0515e-05
-1.04898e-05
-1.04737e-05
-1.04632e-05
-1.04549e-05
-1.0448e-05
-1.04421e-05
-1.04367e-05
-1.04314e-05
-1.04262e-05
-1.04209e-05
-1.04155e-05
-1.041e-05
-1.04045e-05
-1.0399e-05
-1.03934e-05
-1.03878e-05
-1.03821e-05
-1.03763e-05
-1.03705e-05
-1.03646e-05
-1.03588e-05
-1.03529e-05
-1.0347e-05
-1.03411e-05
-1.03352e-05
-1.03292e-05
-1.03234e-05
-1.03175e-05
-1.03117e-05
-1.03058e-05
-1.03e-05
-1.02942e-05
-1.02885e-05
-1.02827e-05
-1.0277e-05
-1.02713e-05
-1.02657e-05
-1.026e-05
-1.02544e-05
-1.02488e-05
-1.02432e-05
-1.02376e-05
-1.02321e-05
-1.02265e-05
-1.0221e-05
-1.02155e-05
-1.021e-05
-1.02045e-05
-1.0199e-05
-1.01936e-05
-1.01882e-05
-1.01829e-05
-1.01775e-05
-1.01722e-05
-1.01669e-05
-1.01616e-05
-1.01562e-05
-1.01509e-05
-1.01456e-05
-1.01403e-05
-1.0135e-05
-1.01297e-05
-1.01245e-05
-1.01193e-05
-1.01141e-05
-1.0109e-05
-1.01038e-05
-1.00987e-05
-1.00936e-05
-1.00886e-05
-1.00835e-05
-1.00785e-05
-1.00736e-05
-1.00686e-05
-1.00637e-05
-1.00588e-05
-1.0054e-05
-1.00491e-05
-1.00443e-05
-1.00395e-05
-1.00348e-05
-1.00301e-05
-1.00254e-05
-1.00207e-05
-1.00161e-05
-1.00116e-05
-1.0007e-05
-1.00025e-05
-9.99806e-06
-9.99368e-06
-9.98936e-06
-9.98516e-06
-9.98099e-06
-9.97689e-06
-9.97283e-06
-9.96893e-06
-9.96516e-06
-9.96147e-06
-9.9579e-06
-9.95445e-06
-9.9512e-06
-9.94808e-06
-9.94508e-06
-9.94233e-06
-9.9398e-06
-9.93747e-06
-9.93527e-06
-9.93331e-06
-9.93162e-06
-9.93027e-06
-9.92924e-06
-9.92856e-06
-9.92826e-06
-9.92839e-06
-9.92893e-06
-9.92991e-06
-9.93151e-06
-9.93371e-06
-9.93666e-06
-9.94036e-06
-9.94497e-06
-9.9507e-06
-9.95751e-06
-9.96554e-06
-9.97523e-06
-9.98678e-06
-1.00006e-05
-1.00175e-05
-1.00375e-05
-1.00621e-05
-1.00923e-05
-1.01296e-05
-1.01769e-05
-1.02361e-05
-1.03125e-05
-1.04095e-05
-1.0539e-05
-1.07015e-05
-1.09288e-05
-1.12062e-05
-1.1607e-05
-1.20812e-05
-1.27191e-05
-1.34784e-05
-1.43392e-05
-1.51708e-05
-1.62123e-05
-1.6737e-05
-1.73954e-05
-1.77409e-05
-1.8029e-05
-1.87033e-05
-1.71536e-05
-1.02104e-05
-1.02152e-05
-1.02149e-05
-1.02038e-05
-1.01819e-05
-1.01603e-05
-1.01453e-05
-1.0135e-05
-1.01268e-05
-1.012e-05
-1.01142e-05
-1.01086e-05
-1.01031e-05
-1.00977e-05
-1.00922e-05
-1.00866e-05
-1.00808e-05
-1.00751e-05
-1.00695e-05
-1.00638e-05
-1.00578e-05
-1.00519e-05
-1.00458e-05
-1.00395e-05
-1.00331e-05
-1.00269e-05
-1.00207e-05
-1.00146e-05
-1.00084e-05
-1.00021e-05
-9.99576e-06
-9.98941e-06
-9.98308e-06
-9.97686e-06
-9.97066e-06
-9.96454e-06
-9.95847e-06
-9.9524e-06
-9.94648e-06
-9.94032e-06
-9.93416e-06
-9.92813e-06
-9.92211e-06
-9.91604e-06
-9.91004e-06
-9.90399e-06
-9.89792e-06
-9.8921e-06
-9.88609e-06
-9.8802e-06
-9.87423e-06
-9.86838e-06
-9.86252e-06
-9.85668e-06
-9.85078e-06
-9.84499e-06
-9.83925e-06
-9.83363e-06
-9.82797e-06
-9.82225e-06
-9.81643e-06
-9.81062e-06
-9.8049e-06
-9.7992e-06
-9.79353e-06
-9.78788e-06
-9.78229e-06
-9.77675e-06
-9.77123e-06
-9.76575e-06
-9.76029e-06
-9.75485e-06
-9.74944e-06
-9.74407e-06
-9.73874e-06
-9.73341e-06
-9.72812e-06
-9.72289e-06
-9.71771e-06
-9.71252e-06
-9.70738e-06
-9.70231e-06
-9.6972e-06
-9.69207e-06
-9.687e-06
-9.682e-06
-9.67703e-06
-9.67222e-06
-9.66736e-06
-9.66239e-06
-9.65756e-06
-9.65283e-06
-9.64796e-06
-9.64338e-06
-9.63869e-06
-9.63418e-06
-9.62959e-06
-9.62532e-06
-9.62098e-06
-9.61675e-06
-9.61265e-06
-9.60846e-06
-9.60471e-06
-9.60093e-06
-9.59729e-06
-9.59367e-06
-9.59051e-06
-9.58736e-06
-9.58428e-06
-9.58156e-06
-9.57903e-06
-9.57696e-06
-9.57503e-06
-9.57321e-06
-9.57173e-06
-9.57064e-06
-9.56993e-06
-9.56965e-06
-9.5698e-06
-9.57047e-06
-9.57168e-06
-9.57345e-06
-9.5759e-06
-9.57915e-06
-9.58335e-06
-9.58846e-06
-9.5945e-06
-9.60191e-06
-9.61089e-06
-9.62095e-06
-9.63349e-06
-9.6483e-06
-9.66619e-06
-9.68737e-06
-9.71351e-06
-9.74525e-06
-9.78411e-06
-9.83287e-06
-9.89414e-06
-9.97263e-06
-1.00718e-05
-1.02029e-05
-1.03689e-05
-1.05946e-05
-1.08724e-05
-1.12567e-05
-1.17167e-05
-1.23131e-05
-1.30135e-05
-1.38088e-05
-1.45697e-05
-1.54937e-05
-1.60499e-05
-1.6635e-05
-1.69875e-05
-1.74468e-05
-1.72024e-05
-1.80459e-05
-9.87646e-06
-9.87889e-06
-9.87668e-06
-9.86637e-06
-9.84796e-06
-9.82922e-06
-9.81539e-06
-9.80553e-06
-9.79781e-06
-9.79118e-06
-9.7853e-06
-9.77964e-06
-9.77406e-06
-9.76852e-06
-9.76289e-06
-9.75719e-06
-9.75142e-06
-9.74558e-06
-9.73954e-06
-9.73343e-06
-9.72703e-06
-9.7208e-06
-9.71433e-06
-9.70779e-06
-9.70128e-06
-9.69478e-06
-9.68825e-06
-9.68167e-06
-9.67508e-06
-9.66842e-06
-9.66181e-06
-9.65525e-06
-9.64875e-06
-9.64226e-06
-9.63579e-06
-9.6293e-06
-9.62289e-06
-9.61651e-06
-9.61028e-06
-9.60372e-06
-9.59722e-06
-9.59077e-06
-9.58432e-06
-9.57788e-06
-9.5715e-06
-9.56517e-06
-9.55888e-06
-9.55258e-06
-9.5463e-06
-9.54004e-06
-9.53384e-06
-9.52766e-06
-9.52147e-06
-9.5153e-06
-9.50916e-06
-9.50313e-06
-9.49697e-06
-9.49091e-06
-9.48489e-06
-9.47886e-06
-9.47283e-06
-9.46675e-06
-9.46071e-06
-9.45475e-06
-9.44884e-06
-9.44295e-06
-9.4371e-06
-9.43127e-06
-9.42544e-06
-9.41961e-06
-9.41384e-06
-9.40808e-06
-9.40238e-06
-9.39662e-06
-9.39094e-06
-9.38532e-06
-9.37971e-06
-9.37409e-06
-9.36854e-06
-9.36294e-06
-9.35752e-06
-9.35207e-06
-9.3466e-06
-9.34115e-06
-9.33576e-06
-9.33045e-06
-9.32521e-06
-9.32015e-06
-9.31502e-06
-9.30984e-06
-9.30468e-06
-9.29967e-06
-9.29453e-06
-9.28974e-06
-9.28477e-06
-9.28e-06
-9.27514e-06
-9.2707e-06
-9.26614e-06
-9.26183e-06
-9.25746e-06
-9.25308e-06
-9.24926e-06
-9.24536e-06
-9.2416e-06
-9.23782e-06
-9.23452e-06