/*--------------------------------*- C++ -*----------------------------------*\
| =========                 |                                                 |
| \\      /  F ield         | OpenFOAM: The Open Source CFD Toolbox           |
|  \\    /   O peration     | Version:  2512                                  |
|   \\  /    A nd           | Website:  www.openfoam.com                      |
|    \\/     M anipulation  |                                                 |
\*---------------------------------------------------------------------------*/
FoamFile
{
    version     2.0;
    format      ascii;
    arch        "LSB;label=32;scalar=64";
    class       volScalarField;
    location    "0.1";
    object      Uz;
}
// * * * * * * * * * * * * * * * * * * * * * * * * * * * * * * * * * * * * * //

dimensions      [0 1 -1 0 0 0 0];

internalField   nonuniform List<scalar> 
8333
(
-2.4719e-19
8.76237e-20
-1.93037e-19
2.26295e-19
2.73051e-20
1.74144e-19
1.33615e-19
3.71895e-19
-2.46077e-19
1.00796e-19
-1.82313e-19
2.43311e-19
3.54618e-20
1.80772e-19
1.46333e-19
3.73458e-19
-2.25444e-19
5.85025e-20
-4.82901e-20
-2.78098e-20
4.28834e-19
-1.05761e-19
2.18958e-19
-1.14262e-19
2.7645e-19
5.01977e-20
1.91823e-19
1.50796e-19
3.78597e-19
-2.43444e-19
1.02242e-19
-1.78161e-19
2.4893e-19
3.86276e-20
1.79985e-19
1.44828e-19
3.74923e-19
-2.49665e-19
1.13391e-19
-1.78938e-19
2.44454e-19
4.0139e-20
1.90401e-19
1.54612e-19
3.80214e-19
-2.44499e-19
1.07265e-19
-1.76133e-19
2.53176e-19
3.89452e-20
1.90954e-19
1.57408e-19
3.77326e-19
-2.46688e-19
1.04699e-19
-1.7272e-19
2.49937e-19
3.89356e-20
1.87265e-19
1.51452e-19
3.73046e-19
-2.55104e-19
1.11524e-19
-1.7556e-19
2.49689e-19
4.71075e-20
1.96997e-19
1.56242e-19
3.69264e-19
-2.54919e-19
1.04119e-19
-1.73955e-19
2.57416e-19
3.69968e-20
1.88706e-19
1.57749e-19
3.73493e-19
-2.55605e-19
1.06777e-19
-1.66658e-19
2.59253e-19
3.58403e-20
1.86174e-19
1.54348e-19
3.72442e-19
-2.57893e-19
1.04537e-19
-1.66912e-19
2.62315e-19
4.11819e-20
1.91065e-19
1.58827e-19
3.66501e-19
-2.56663e-19
1.03891e-19
-1.67442e-19
2.60614e-19
3.74878e-20
1.86054e-19
1.56313e-19
3.61507e-19
-2.60944e-19
1.05729e-19
-1.71951e-19
2.59883e-19
3.67169e-20
1.88898e-19
1.60734e-19
3.6282e-19
-2.62313e-19
1.03832e-19
-1.64131e-19
2.60654e-19
3.27313e-20
1.82342e-19
1.5685e-19
3.63157e-19
-2.66247e-19
1.08704e-19
-1.6884e-19
2.65808e-19
4.28156e-20
1.91957e-19
1.61874e-19
3.60624e-19
-2.63381e-19
1.00181e-19
-1.62679e-19
2.70053e-19
2.84248e-20
1.81979e-19
1.63968e-19
3.62246e-19
-2.64683e-19
1.07687e-19
-1.66943e-19
2.66798e-19
3.67856e-20
1.89162e-19
1.64897e-19
3.54969e-19
-2.56643e-19
6.67164e-20
-5.21373e-20
1.45616e-20
4.33949e-19
-1.19677e-19
2.14669e-19
-1.11241e-19
-5.15993e-19
9.86944e-19
-5.16537e-19
1.44924e-18
5.68428e-19
1.25179e-18
8.9802e-19
2.37706e-18
-5.52183e-19
1.01665e-18
-4.91015e-19
1.5085e-18
5.97108e-19
1.26975e-18
9.4852e-19
2.36598e-18
-4.32902e-19
7.19297e-19
2.8464e-19
6.56773e-20
2.44586e-18
-1.27553e-20
1.52833e-18
-1.75244e-19
1.65552e-18
6.47588e-19
1.31256e-18
9.68506e-19
2.4038e-18
-5.45189e-19
1.01437e-18
-4.82228e-19
1.52524e-18
6.16904e-19
1.26751e-18
9.33971e-19
2.38652e-18
-5.90228e-19
1.04939e-18
-4.67461e-19
1.50493e-18
6.00061e-19
1.29945e-18
9.76495e-19
2.40333e-18
-5.56032e-19
1.02172e-18
-4.8665e-19
1.54501e-18
5.98719e-19
1.29283e-18
9.93989e-19
2.39974e-18
-5.64933e-19
1.00658e-18
-4.62543e-19
1.52834e-18
5.95589e-19
1.2869e-18
9.67536e-19
2.38223e-18
-6.16944e-19
1.0344e-18
-4.71023e-19
1.52844e-18
6.2954e-19
1.33495e-18
1.00464e-18
2.37226e-18
-6.07442e-19
1.00503e-18
-4.75434e-19
1.56601e-18
5.93821e-19
1.2922e-18
1.00051e-18
2.393e-18
-6.16451e-19
1.01516e-18
-4.33919e-19
1.58426e-18
5.9702e-19
1.27883e-18
9.82015e-19
2.38122e-18
-6.20184e-19
9.98783e-19
-4.48729e-19
1.58743e-18
6.12128e-19
1.30463e-18
1.01291e-18
2.36021e-18
-6.22637e-19
1.00071e-18
-4.49398e-19
1.58269e-18
6.04641e-19
1.28147e-18
1.00192e-18
2.34103e-18
-6.44253e-19
1.01127e-18
-4.66845e-19
1.58663e-18
6.01966e-19
1.29432e-18
1.02418e-18
2.35446e-18
-6.46517e-19
9.88883e-19
-4.25197e-19
1.5937e-18
5.90739e-19
1.25399e-18
9.91587e-19
2.34887e-18
-6.72952e-19
1.02e-18
-4.54098e-19
1.61065e-18
6.35748e-19
1.31035e-18
1.03177e-18
2.33838e-18
-6.48296e-19
9.68656e-19
-4.39351e-19
1.63223e-18
5.73646e-19
1.24857e-18
1.0281e-18
2.3491e-18
-6.62887e-19
1.00995e-18
-4.47888e-19
1.61939e-18
6.08919e-19
1.28984e-18
1.04786e-18
2.30962e-18
-5.94842e-19
7.38705e-19
2.30196e-19
2.43319e-19
2.50284e-18
-7.44654e-20
1.50081e-18
-1.82306e-19
1.73847e-18
-1.53543e-18
4.35562e-18
-1.09659e-18
5.70178e-18
2.02865e-18
4.99902e-18
3.34418e-18
7.44292e-18
-1.70261e-18
4.44897e-18
-1.00907e-18
5.86449e-18
2.09163e-18
5.06879e-18
3.49671e-18
7.40007e-18
-1.33298e-18
3.49843e-18
1.2776e-18
1.5519e-18
8.01235e-18
-9.23745e-20
5.81151e-18
-1.5035e-19
6.24001e-18
2.16984e-18
5.16277e-18
3.55999e-18
7.51999e-18
-1.67089e-18
4.41017e-18
-1.00493e-18
5.87513e-18
2.15934e-18
5.06501e-18
3.43288e-18
7.46227e-18
-1.81783e-18
4.47135e-18
-9.1829e-19
5.85586e-18
2.06792e-18
5.1361e-18
3.56053e-18
7.47958e-18
-1.69393e-18
4.39907e-18
-1.06653e-18
5.95866e-18
2.09767e-18
5.0855e-18
3.5977e-18
7.49498e-18
-1.70886e-18
4.37098e-18
-9.55657e-19
5.91874e-18
2.0501e-18
5.09506e-18
3.53878e-18
7.45709e-18
-1.87853e-18
4.43809e-18
-9.86805e-19
5.92628e-18
2.16094e-18
5.23386e-18
3.66122e-18
7.43838e-18
-1.8396e-18
4.39269e-18
-9.98674e-19
6.02414e-18
2.05315e-18
5.1171e-18
3.64199e-18
7.51237e-18
-1.90354e-18
4.45141e-18
-8.3752e-19
6.10033e-18
2.09796e-18
5.07639e-18
3.5748e-18
7.44103e-18
-1.88187e-18
4.37162e-18
-9.25059e-19
6.07672e-18
2.09062e-18
5.18116e-18
3.69171e-18
7.41154e-18
-1.90297e-18
4.37145e-18
-9.16233e-19
6.05321e-18
2.10174e-18
5.09921e-18
3.64575e-18
7.35761e-18
-1.96292e-18
4.41868e-18
-9.82565e-19
6.09345e-18
2.11074e-18
5.157e-18
3.71482e-18
7.40201e-18
-1.94212e-18
4.29713e-18
-8.49226e-19
6.1026e-18
2.10347e-18
4.99214e-18
3.56373e-18
7.3566e-18
-2.06086e-18
4.4436e-18
-9.45945e-19
6.18035e-18
2.23524e-18
5.18257e-18
3.72752e-18
7.32846e-18
-1.93196e-18
4.24363e-18
-9.22166e-19
6.14536e-18
2.02137e-18
4.98151e-18
3.6889e-18
7.36572e-18
-2.00407e-18
4.38733e-18
-9.42564e-19
6.18863e-18
2.15157e-18
5.11306e-18
3.76945e-18
7.24706e-18
-1.76988e-18
3.549e-18
1.09494e-18
1.9698e-18
8.16269e-18
-2.68255e-19
5.77459e-18
-2.10793e-19
6.513e-18
-5.12618e-18
1.51792e-17
-1.7219e-18
1.83289e-17
3.96582e-18
1.64625e-17
8.59815e-18
1.41747e-17
-5.54e-18
1.56111e-17
-1.43999e-18
1.88233e-17
4.01971e-18
1.6673e-17
8.91313e-18
1.41097e-17
-4.84259e-18
1.3734e-17
2.41155e-18
1.08802e-17
1.74466e-17
-2.00058e-18
1.7901e-17
-3.53101e-20
1.93218e-17
4.03124e-18
1.67454e-17
9.02902e-18
1.43112e-17
-5.40264e-18
1.54822e-17
-1.49684e-18
1.87976e-17
4.14805e-18
1.67218e-17
8.7583e-18
1.41872e-17
-5.68267e-18
1.55176e-17
-1.28513e-18
1.85994e-17
3.91457e-18
1.68319e-17
9.02906e-18
1.41826e-17
-5.39052e-18
1.50454e-17
-1.73739e-18
1.8909e-17
4.09798e-18
1.68244e-17
9.01731e-18
1.42143e-17
-5.4492e-18
1.53366e-17
-1.45345e-18
1.90041e-17
3.93614e-18
1.67354e-17
8.96589e-18
1.41817e-17
-5.73406e-18
1.53316e-17
-1.51479e-18
1.89452e-17
4.13588e-18
1.6869e-17
9.18169e-18
1.41561e-17
-5.70787e-18
1.56362e-17
-1.47695e-18
1.9074e-17
3.94191e-18
1.67176e-17
9.14046e-18
1.43295e-17
-5.93549e-18
1.56881e-17
-1.07415e-18
1.92215e-17
4.07853e-18
1.67558e-17
9.0096e-18
1.41287e-17
-5.78916e-18
1.55112e-17
-1.3439e-18
1.90569e-17
3.91294e-18
1.71231e-17
9.3079e-18
1.41326e-17
-5.80447e-18
1.53018e-17
-1.31886e-18
1.91139e-17
4.0045e-18
1.67616e-17
9.14628e-18
1.40199e-17
-5.93068e-18
1.56237e-17
-1.45708e-18
1.90564e-17
4.0414e-18
1.68433e-17
9.30417e-18
1.40894e-17
-5.80592e-18
1.51491e-17
-1.2656e-18
1.92099e-17
4.11585e-18
1.66423e-17
8.90261e-18
1.39655e-17
-6.13007e-18
1.54516e-17
-1.44041e-18
1.95808e-17
4.40534e-18
1.67215e-17
9.25481e-18
1.39037e-17
-5.75907e-18
1.50763e-17
-1.34929e-18
1.88795e-17
3.82063e-18
1.64761e-17
9.14997e-18
1.39814e-17
-5.95275e-18
1.52841e-17
-1.46698e-18
1.94213e-17
4.21903e-18
1.66606e-17
9.30928e-18
1.37723e-17
-5.50956e-18
1.40112e-17
2.17711e-18
1.10689e-17
1.75199e-17
-2.35739e-18
1.79528e-17
-2.01594e-19
1.99496e-17
4.24142e-18
-2.06873e-18
3.96772e-18
-1.91327e-18
5.23367e-18
1.5743e-18
4.62751e-18
2.71071e-18
7.58558e-18
-2.22561e-18
4.05494e-18
-1.8403e-18
5.39028e-18
1.63278e-18
4.68856e-18
2.87566e-18
7.53278e-18
-1.78593e-18
2.91444e-18
8.27802e-19
5.75554e-19
7.92904e-18
-5.89318e-19
5.57666e-18
-8.48183e-19
5.85534e-18
1.72841e-18
4.7973e-18
2.95312e-18
7.66463e-18
-2.21518e-18
4.00734e-18
-1.83343e-18
5.40705e-18
1.70671e-18
4.6785e-18
2.81853e-18
7.60969e-18
-2.36193e-18
4.07246e-18
-1.73167e-18
5.40458e-18
1.59807e-18
4.74878e-18
2.95498e-18
7.63259e-18
-2.24874e-18
4.00647e-18
-1.88435e-18
5.50492e-18
1.6292e-18
4.70519e-18
2.98253e-18
7.64507e-18
-2.25657e-18
3.96847e-18
-1.79237e-18
5.45653e-18
1.58507e-18
4.69886e-18
2.9284e-18
7.60766e-18
-2.43198e-18
4.03631e-18
-1.80027e-18
5.47917e-18
1.70571e-18
4.83561e-18
3.07054e-18
7.58918e-18
-2.39743e-18
3.97839e-18
-1.82026e-18
5.59143e-18
1.59237e-18
4.72525e-18
3.05891e-18
7.67081e-18
-2.46982e-18
4.03422e-18
-1.66735e-18
5.65843e-18
1.64185e-18
4.68489e-18
2.98666e-18
7.58545e-18
-2.45151e-18
3.96896e-18
-1.75417e-18
5.64746e-18
1.62966e-18
4.79266e-18
3.10983e-18
7.55051e-18
-2.48877e-18
3.95038e-18
-1.73783e-18
5.62454e-18
1.64103e-18
4.70925e-18
3.0703e-18
7.50451e-18
-2.54643e-18
3.9974e-18
-1.81287e-18
5.66456e-18
1.65344e-18
4.76858e-18
3.13394e-18
7.54366e-18
-2.51737e-18
3.87052e-18
-1.68409e-18
5.67065e-18
1.6502e-18
4.61169e-18
2.99275e-18
7.50509e-18
-2.64766e-18
4.02591e-18
-1.77225e-18
5.75567e-18
1.77385e-18
4.78955e-18
3.15704e-18
7.4782e-18
-2.52692e-18
3.81957e-18
-1.76041e-18
5.72406e-18
1.56508e-18
4.58147e-18
3.11918e-18
7.50794e-18
-2.6038e-18
3.96057e-18
-1.78064e-18
5.76892e-18
1.7047e-18
4.71207e-18
3.21468e-18
7.37118e-18
-2.32162e-18
2.95986e-18
5.87364e-19
1.0512e-18
8.1414e-18
-7.79504e-19
5.50748e-18
-9.23994e-19
6.15281e-18
1.78123e-18
4.78877e-18
-3.37458e-18
-5.96717e-19
-3.81807e-18
1.5955e-20
-1.43471e-18
-1.34419e-19
-1.24883e-18
2.47558e-18
-3.38183e-18
-5.67936e-19
-3.84058e-18
4.89248e-20
-1.43158e-18
-1.47594e-19
-1.18208e-18
2.4583e-18
-3.07747e-18
-1.37855e-18
-1.90026e-18
-3.13001e-18
2.16655e-18
-2.51182e-18
5.46766e-19
-3.09755e-18
4.43069e-19
-1.34341e-18
-4.7184e-20
-1.10811e-18
2.49914e-18
-3.44033e-18
-5.85854e-19
-3.81629e-18
9.06681e-20
-1.39311e-18
-1.85839e-19
-1.15898e-18
2.48022e-18
-3.4881e-18
-5.19679e-19
-3.7476e-18
1.14031e-19
-1.46066e-18
-1.38436e-19
-1.09926e-18
2.53202e-18
-3.49594e-18
-5.52326e-19
-3.78064e-18
1.39674e-19
-1.47963e-18
-1.05153e-19
-1.1136e-18
2.50666e-18
-3.47115e-18
-5.80402e-19
-3.81596e-18
9.52029e-20
-1.45804e-18
-1.80128e-19
-1.14165e-18
2.48397e-18
-3.51647e-18
-5.34517e-19
-3.74642e-18
1.54449e-19
-1.37233e-18
-1.37846e-19
-1.03061e-18
2.47138e-18
-3.53184e-18
-6.22102e-19
-3.77649e-18
2.41223e-19
-1.44189e-18
-1.5498e-19
-1.00621e-18
2.53176e-18
-3.58167e-18
-6.08062e-19
-3.76158e-18
2.13154e-19
-1.44807e-18
-1.76985e-19
-1.04545e-18
2.46246e-18
-3.59224e-18
-5.70929e-19
-3.76709e-18
2.61409e-19
-1.43625e-18
-1.27844e-19
-9.97252e-19
2.41154e-18
-3.64561e-18
-6.44705e-19
-3.75165e-18
2.56373e-19
-1.44166e-18
-1.52537e-19
-9.88953e-19
2.42436e-18
-3.64616e-18
-6.33861e-19
-3.79694e-18
2.66353e-19
-1.43109e-18
-1.36654e-19
-9.88242e-19
2.42121e-18
-3.63114e-18
-6.79801e-19
-3.74869e-18
2.47618e-19
-1.43416e-18
-1.52777e-19
-9.7834e-19
2.45472e-18
-3.67403e-18
-5.91836e-19
-3.76738e-18
3.05746e-19
-1.4155e-18
-1.43294e-19
-9.7285e-19
2.44631e-18
-3.68304e-18
-6.79168e-19
-3.78107e-18
3.17073e-19
-1.4761e-18
-2.24199e-19
-9.53468e-19
2.42723e-18
-3.71225e-18
-6.42233e-19
-3.799e-18
3.19242e-19
-1.39651e-18
-1.90678e-19
-8.91136e-19
2.33363e-18
-3.51925e-18
-1.38121e-18
-2.09416e-18
-2.80056e-18
2.40416e-18
-2.60833e-18
4.25815e-19
-3.1427e-18
6.18373e-19
-1.31817e-18
-1.55411e-19
-8.87327e-19
-1.13793e-17
-4.94821e-18
-1.10759e-17
-3.43733e-18
-7.19101e-18
-4.02954e-18
-6.18254e-18
-7.59792e-19
-1.13272e-17
-4.88118e-18
-1.12123e-17
-3.4958e-18
-7.2766e-18
-4.11751e-18
-6.19797e-18
-7.27564e-19
-1.08883e-17
-6.09047e-18
-8.12324e-18
-8.66098e-18
-6.78148e-19
-9.67897e-18
-2.96661e-18
-1.00508e-17
-2.94063e-18
-7.18366e-18
-3.90968e-18
-6.06272e-18
-8.02774e-19
-1.14713e-17
-4.87258e-18
-1.11398e-17
-3.39356e-18
-7.27925e-18
-4.23961e-18
-6.05705e-18
-8.43816e-19
-1.15108e-17
-4.77169e-18
-1.10028e-17
-3.30853e-18
-7.35204e-18
-4.15426e-18
-6.03795e-18
-7.18671e-19
-1.16525e-17
-4.84543e-18
-1.10413e-17
-3.39698e-18
-7.43214e-18
-3.98327e-18
-6.12339e-18
-8.06704e-19
-1.15051e-17
-4.80257e-18
-1.11737e-17
-3.41846e-18
-7.34387e-18
-4.20028e-18
-6.16112e-18
-8.41868e-19
-1.14188e-17
-4.72133e-18
-1.09844e-17
-3.26994e-18
-7.17957e-18
-4.21887e-18
-5.92488e-18
-8.65169e-19
-1.15342e-17
-4.91515e-18
-1.10558e-17
-3.11777e-18
-7.297e-18
-4.17868e-18
-5.88178e-18
-7.03277e-19
-1.16968e-17
-4.89921e-18
-1.11369e-17
-3.26108e-18
-7.40236e-18
-4.20773e-18
-5.92974e-18
-9.10941e-19
-1.16803e-17
-4.72356e-18
-1.1073e-17
-3.16227e-18
-7.36374e-18
-4.11431e-18
-5.86387e-18
-1.02497e-18
-1.18213e-17
-4.95006e-18
-1.10722e-17
-3.17236e-18
-7.35358e-18
-4.09531e-18
-5.83484e-18
-9.47276e-19
-1.17297e-17
-4.95312e-18
-1.1127e-17
-3.1202e-18
-7.32589e-18
-4.10034e-18
-5.88334e-18
-9.80907e-19
-1.17276e-17
-5.06546e-18
-1.10327e-17
-3.19983e-18
-7.26569e-18
-4.03167e-18
-5.75651e-18
-8.20041e-19
-1.17266e-17
-4.82559e-18
-1.10621e-17
-3.07997e-18
-7.37008e-18
-4.15174e-18
-5.95837e-18
-8.02145e-19
-1.17874e-17
-4.94422e-18
-1.11291e-17
-3.12447e-18
-7.39653e-18
-4.20957e-18
-5.82186e-18
-9.44171e-19
-1.1893e-17
-4.9641e-18
-1.11664e-17
-3.07748e-18
-7.26289e-18
-4.25124e-18
-5.67992e-18
-1.08522e-18
-1.15437e-17
-6.09438e-18
-8.37078e-18
-8.27549e-18
-2.54067e-19
-9.73549e-18
-3.22473e-18
-1.00836e-17
-2.608e-18
-7.13508e-18
-4.18588e-18
-5.68153e-18
-3.28957e-17
-1.08807e-17
-2.88528e-17
-6.94919e-18
-2.19796e-17
-8.95724e-18
-1.7629e-17
-9.93218e-18
-3.26773e-17
-1.06092e-17
-2.9486e-17
-7.14408e-18
-2.23561e-17
-9.15869e-18
-1.76531e-17
-9.90559e-18
-3.22093e-17
-1.26994e-17
-2.40619e-17
-1.66455e-17
-7.39693e-18
-2.90162e-17
-7.05271e-18
-2.75692e-17
-6.43177e-18
-2.23156e-17
-8.62273e-18
-1.75841e-17
-1.0217e-17
-3.30341e-17
-1.05893e-17
-2.92585e-17
-6.82205e-18
-2.26765e-17
-9.4374e-18
-1.74816e-17
-1.02664e-17
-3.30704e-17
-1.04349e-17
-2.91512e-17
-6.75089e-18
-2.25225e-17
-9.2202e-18
-1.74264e-17
-1.0176e-17
-3.3354e-17
-1.06733e-17
-2.90445e-17
-7.03862e-18
-2.25268e-17
-8.77007e-18
-1.76313e-17
-1.00413e-17
-3.31538e-17
-1.03894e-17
-2.94104e-17
-6.99271e-18
-2.25371e-17
-9.20225e-18
-1.73694e-17
-1.02082e-17
-3.28986e-17
-1.02148e-17
-2.91626e-17
-6.74774e-18
-2.21844e-17
-9.31701e-18
-1.71149e-17
-1.0407e-17
-3.30049e-17
-1.06049e-17
-2.91661e-17
-6.46057e-18
-2.25637e-17
-9.2762e-18
-1.73435e-17
-9.99392e-18
-3.3772e-17
-1.06318e-17
-2.93736e-17
-6.73517e-18
-2.27345e-17
-9.35216e-18
-1.71519e-17
-1.04703e-17
-3.32915e-17
-1.02104e-17
-2.92984e-17
-6.62672e-18
-2.26235e-17
-9.13463e-18
-1.7074e-17
-1.0692e-17
-3.36225e-17
-1.05891e-17
-2.91881e-17
-6.6899e-18
-2.25731e-17
-9.02423e-18
-1.7117e-17
-1.07344e-17
-3.33827e-17
-1.06284e-17
-2.93556e-17
-6.47164e-18
-2.26932e-17
-9.11262e-18
-1.69847e-17
-1.06784e-17
-3.35574e-17
-1.09646e-17
-2.90552e-17
-6.63662e-18
-2.2199e-17
-8.88962e-18
-1.71132e-17
-1.01959e-17
-3.35355e-17
-1.04433e-17
-2.8942e-17
-6.42984e-18
-2.25989e-17
-9.08301e-18
-1.76488e-17
-9.84646e-18
-3.33121e-17
-1.05897e-17
-2.9445e-17
-6.5521e-18
-2.24776e-17
-9.20914e-18
-1.68536e-17
-1.04671e-17
-3.39713e-17
-1.07531e-17
-2.9474e-17
-6.45428e-18
-2.23755e-17
-9.43523e-18
-1.65688e-17
-1.08198e-17
-3.29577e-17
-1.25665e-17
-2.42689e-17
-1.61325e-17
-6.64898e-18
-2.91217e-17
-7.59269e-18
-2.75163e-17
-5.60604e-18
-2.22066e-17
-9.26786e-18
-1.66272e-17
-1.0507e-17
-2.19015e-17
-9.70958e-18
-2.09524e-17
-7.02194e-18
-1.41845e-17
-8.39935e-18
-1.21629e-17
-2.70708e-18
-2.18025e-17
-9.75199e-18
-2.10733e-17
-7.15893e-18
-1.42764e-17
-8.4852e-18
-1.20534e-17
-2.93629e-18
-2.10731e-17
-1.17949e-17
-1.58485e-17
-1.61461e-17
-2.32481e-18
-1.86645e-17
-6.45904e-18
-1.90377e-17
-6.10065e-18
-1.41213e-17
-8.17735e-18
-1.18422e-17
-2.73023e-18
-2.19843e-17
-9.69906e-18
-2.11187e-17
-6.97288e-18
-1.43847e-17
-8.48981e-18
-1.20235e-17
-2.97853e-18
-2.20794e-17
-9.60004e-18
-2.08509e-17
-6.80426e-18
-1.43624e-17
-8.46473e-18
-1.19124e-17
-2.8134e-18
-2.21931e-17
-9.71578e-18
-2.08784e-17
-6.9254e-18
-1.44204e-17
-8.29671e-18
-1.1735e-17
-2.87184e-18
-2.2126e-17
-9.65733e-18
-2.10991e-17
-6.86442e-18
-1.44846e-17
-8.51806e-18
-1.19976e-17
-2.93981e-18
-2.20297e-17
-9.63619e-18
-2.09441e-17
-6.76996e-18
-1.41498e-17
-8.50525e-18
-1.18051e-17
-2.96253e-18
-2.21666e-17
-9.87667e-18
-2.09634e-17
-6.53171e-18
-1.43873e-17
-8.49668e-18
-1.16189e-17
-2.77786e-18
-2.23515e-17
-9.75554e-18
-2.10681e-17
-6.77418e-18
-1.45013e-17
-8.52247e-18
-1.15788e-17
-3.09857e-18
-2.23262e-17
-9.59607e-18
-2.10098e-17
-6.57884e-18
-1.43555e-17
-8.44954e-18
-1.15356e-17
-3.16873e-18
-2.25966e-17
-9.79276e-18
-2.07805e-17
-6.57217e-18
-1.43584e-17
-8.36126e-18
-1.14378e-17
-3.18451e-18
-2.25329e-17
-9.89727e-18
-2.09996e-17
-6.4406e-18
-1.43655e-17
-8.47565e-18
-1.14388e-17
-3.17442e-18
-2.25593e-17
-9.79753e-18
-2.07899e-17
-6.65212e-18
-1.42958e-17
-8.26826e-18
-1.14295e-17
-2.99819e-18
-2.24723e-17
-9.63541e-18
-2.08552e-17
-6.40892e-18
-1.46372e-17
-8.39376e-18
-1.16213e-17
-3.09156e-18
-2.25334e-17
-9.88818e-18
-2.10019e-17
-6.36467e-18
-1.45386e-17
-8.40272e-18
-1.14317e-17
-3.2289e-18
-2.272e-17
-9.81858e-18
-2.10794e-17
-6.38991e-18
-1.43506e-17
-8.67883e-18
-1.1194e-17
-3.41209e-18
-2.22131e-17
-1.18266e-17
-1.62993e-17
-1.55074e-17
-1.68246e-18
-1.89265e-17
-6.7928e-18
-1.92095e-17
-5.68025e-18
-1.41947e-17
-8.51384e-18
-1.12011e-17
-3.26499e-18
-2.27602e-17
-3.63806e-17
-1.21904e-17
-3.26264e-17
-8.47089e-18
-2.43811e-17
-1.08036e-17
-1.97809e-17
-1.01451e-17
-3.58795e-17
-1.24055e-17
-3.23606e-17
-8.53214e-18
-2.44759e-17
-1.0787e-17
-1.95724e-17
-1.0643e-17
-3.53201e-17
-1.47585e-17
-2.66014e-17
-1.95728e-17
-7.84859e-18
-3.16886e-17
-8.54803e-18
-2.9967e-17
-7.19326e-18
-2.42613e-17
-1.06247e-17
-1.91459e-17
-9.6118e-18
-3.61363e-17
-1.23545e-17
-3.25038e-17
-8.37961e-18
-2.46339e-17
-1.04842e-17
-2.03283e-17
-1.06396e-17
-3.63031e-17
-1.22967e-17
-3.19222e-17
-8.16693e-18
-2.41302e-17
-1.061e-17
-1.9653e-17
-1.03996e-17
-3.60426e-17
-1.22961e-17
-3.24768e-17
-8.33677e-18
-2.43111e-17
-1.07403e-17
-1.87432e-17
-1.0536e-17
-3.63265e-17
-1.23102e-17
-3.23946e-17
-8.07257e-18
-2.48262e-17
-1.07723e-17
-1.96242e-17
-1.02597e-17
-3.62971e-17
-1.24266e-17
-3.22827e-17
-8.12567e-18
-2.43076e-17
-1.05932e-17
-1.95889e-17
-1.04029e-17
-3.63722e-17
-1.26346e-17
-3.22519e-17
-7.86772e-18
-2.45764e-17
-1.0729e-17
-1.91094e-17
-1.02491e-17
-3.62704e-17
-1.22434e-17
-3.27119e-17
-8.19711e-18
-2.47682e-17
-1.08266e-17
-1.89418e-17
-1.09124e-17
-3.62791e-17
-1.22505e-17
-3.24122e-17
-7.91927e-18
-2.45593e-17
-1.07409e-17
-1.92017e-17
-1.0704e-17
-3.68558e-17
-1.24698e-17
-3.18853e-17
-7.90511e-18
-2.4376e-17
-1.05915e-17
-1.88374e-17
-1.09363e-17
-3.69426e-17
-1.26389e-17
-3.25864e-17
-7.61005e-18
-2.46678e-17
-1.10235e-17
-1.88494e-17
-1.05783e-17
-3.67844e-17
-1.21321e-17
-3.18502e-17
-8.1051e-18
-2.41961e-17
-1.04271e-17
-1.88158e-17
-1.06419e-17
-3.63981e-17
-1.21774e-17
-3.21139e-17
-7.67028e-18
-2.4787e-17
-1.05905e-17
-1.90625e-17
-1.09653e-17
-3.6715e-17
-1.26175e-17
-3.21814e-17
-7.44843e-18
-2.47646e-17
-1.05062e-17
-1.91902e-17
-1.12011e-17
-3.66688e-17
-1.22982e-17
-3.23876e-17
-7.66944e-18
-2.46437e-17
-1.10471e-17
-1.85218e-17
-1.11655e-17
-3.63177e-17
-1.46891e-17
-2.69877e-17
-1.88696e-17
-6.95373e-18
-3.20578e-17
-8.65819e-18
-3.01521e-17
-6.88426e-18
-2.44144e-17
-1.08581e-17
-1.84928e-17
-1.10469e-17
-3.68234e-17
-1.23604e-17
-2.3091e-17
-1.04967e-17
-2.22939e-17
-8.06033e-18
-1.53517e-17
-9.50095e-18
-1.34214e-17
-3.34949e-18
-2.30848e-17
-1.06793e-17
-2.23605e-17
-8.1215e-18
-1.55348e-17
-9.46274e-18
-1.31946e-17
-3.77908e-18
-2.22449e-17
-1.32093e-17
-1.65617e-17
-1.78899e-17
-3.17148e-18
-1.96108e-17
-7.00146e-18
-1.99438e-17
-6.83395e-18
-1.51156e-17
-9.25462e-18
-1.30433e-17
-3.3581e-18
-2.32541e-17
-1.08189e-17
-2.26033e-17
-7.95482e-18
-1.55111e-17
-9.37882e-18
-1.31978e-17
-3.61144e-18
-2.34033e-17
-1.06103e-17
-2.23445e-17
-7.84122e-18
-1.54293e-17
-9.47176e-18
-1.30961e-17
-3.56184e-18
-2.34527e-17
-1.07544e-17
-2.23144e-17
-7.83137e-18
-1.54553e-17
-9.41336e-18
-1.29201e-17
-3.48729e-18
-2.35213e-17
-1.08326e-17
-2.24336e-17
-7.76462e-18
-1.57794e-17
-9.47012e-18
-1.30559e-17
-3.53748e-18
-2.34977e-17
-1.08514e-17
-2.25546e-17
-7.81203e-18
-1.54055e-17
-9.39504e-18
-1.30821e-17
-3.68433e-18
-2.35156e-17
-1.09588e-17
-2.24404e-17
-7.62227e-18
-1.56416e-17
-9.38575e-18
-1.28246e-17
-3.48319e-18
-2.36804e-17
-1.0821e-17
-2.26417e-17
-7.80983e-18
-1.55471e-17
-9.62682e-18
-1.27904e-17
-3.72191e-18
-2.3638e-17
-1.08868e-17
-2.23807e-17
-7.52523e-18
-1.55175e-17
-9.52362e-18
-1.26452e-17
-3.66086e-18
-2.38858e-17
-1.08059e-17
-2.2175e-17
-7.49907e-18
-1.54464e-17
-9.53793e-18
-1.26687e-17
-3.74169e-18
-2.38799e-17
-1.08887e-17
-2.23749e-17
-7.45278e-18
-1.55499e-17
-9.5008e-18
-1.25266e-17
-3.8493e-18
-2.39106e-17
-1.06302e-17
-2.21365e-17
-7.4757e-18
-1.54402e-17
-9.32827e-18
-1.2615e-17
-3.76231e-18
-2.39439e-17
-1.07347e-17
-2.23205e-17
-7.38682e-18
-1.58123e-17
-9.4402e-18
-1.26426e-17
-3.87122e-18
-2.37958e-17
-1.09177e-17
-2.23262e-17
-7.28459e-18
-1.56237e-17
-9.2917e-18
-1.24434e-17
-3.83604e-18
-2.40197e-17
-1.08615e-17
-2.23928e-17
-7.47551e-18
-1.5531e-17
-9.64844e-18
-1.22273e-17
-3.98048e-18
-2.34048e-17
-1.32111e-17
-1.70643e-17
-1.70322e-17
-2.80395e-18
-1.99303e-17
-7.06413e-18
-2.00634e-17
-6.41276e-18
-1.52992e-17
-9.48133e-18
-1.24024e-17
-3.72391e-18
-2.40636e-17
-1.10086e-17
-3.86024e-17
-1.47011e-17
-3.49035e-17
-1.11722e-17
-2.7103e-17
-1.33504e-17
-2.25179e-17
-1.29191e-17
-3.84548e-17
-1.4779e-17
-3.50997e-17
-1.11075e-17
-2.76029e-17
-1.32341e-17
-2.23624e-17
-1.33234e-17
-3.72566e-17
-1.84462e-17
-2.7301e-17
-2.37961e-17
-1.06845e-17
-3.27886e-17
-9.20929e-18
-3.10907e-17
-9.33219e-18
-2.66435e-17
-1.30271e-17
-2.20077e-17
-1.31929e-17
-3.86265e-17
-1.51019e-17
-3.55085e-17
-1.10303e-17
-2.71914e-17
-1.32573e-17
-2.21636e-17
-1.31798e-17
-3.89974e-17
-1.47746e-17
-3.5011e-17
-1.09174e-17
-2.70861e-17
-1.33195e-17
-2.24757e-17
-1.30278e-17
-3.89625e-17
-1.49756e-17
-3.51535e-17
-1.0769e-17
-2.7322e-17
-1.31531e-17
-2.26014e-17
-1.3268e-17
-3.90441e-17
-1.51077e-17
-3.49996e-17
-1.0755e-17
-2.74409e-17
-1.32526e-17
-2.20616e-17
-1.32062e-17
-3.89314e-17
-1.50944e-17
-3.50836e-17
-1.07944e-17
-2.73733e-17
-1.33297e-17
-2.20604e-17
-1.35354e-17
-3.89917e-17
-1.50827e-17
-3.51738e-17
-1.07113e-17
-2.73056e-17
-1.31582e-17
-2.18754e-17
-1.31199e-17
-3.9134e-17
-1.49945e-17
-3.56961e-17
-1.08813e-17
-2.73387e-17
-1.36319e-17
-2.21311e-17
-1.33907e-17
-3.88411e-17
-1.51429e-17
-3.47408e-17
-1.04103e-17
-2.73234e-17
-1.3443e-17
-2.18693e-17
-1.35485e-17
-3.94175e-17
-1.50331e-17
-3.49433e-17
-1.04608e-17
-2.69989e-17
-1.35614e-17
-2.16702e-17
-1.31477e-17
-3.96582e-17
-1.50273e-17
-3.51811e-17
-1.06006e-17
-2.72589e-17
-1.32877e-17
-2.16538e-17
-1.35216e-17
-3.94829e-17
-1.49273e-17
-3.46345e-17
-1.02795e-17
-2.71695e-17
-1.31882e-17
-2.17114e-17
-1.3365e-17
-3.97173e-17
-1.49142e-17
-3.53434e-17
-1.03762e-17
-2.79472e-17
-1.3542e-17
-2.17511e-17
-1.31911e-17
-3.93555e-17
-1.50115e-17
-3.49662e-17
-1.04144e-17
-2.70934e-17
-1.3183e-17
-2.17182e-17
-1.35527e-17
-3.95617e-17
-1.50338e-17
-3.5019e-17
-1.07532e-17
-2.71121e-17
-1.34635e-17
-2.09571e-17
-1.34738e-17
-3.83885e-17
-1.83036e-17
-2.7843e-17
-2.26951e-17
-1.09246e-17
-3.29965e-17
-9.05114e-18
-3.12607e-17
-8.75394e-18
-2.6884e-17
-1.32365e-17
-2.1741e-17
-1.30944e-17
-3.93684e-17
-1.53664e-17
-3.51726e-17
-3.1517e-17
-1.90969e-17
-3.0924e-17
-1.66857e-17
-2.39862e-17
-1.81436e-17
-2.18277e-17
-1.20497e-17
-3.15866e-17
-1.9249e-17
-3.09939e-17
-1.6546e-17
-2.41703e-17
-1.78318e-17
-2.14879e-17
-1.26744e-17
-2.94543e-17
-2.46011e-17
-2.0481e-17
-3.09399e-17
-1.12684e-17
-2.32685e-17
-9.68835e-18
-2.45232e-17
-1.3415e-17
-2.28159e-17
-1.75516e-17
-2.15391e-17
-1.20452e-17
-3.16844e-17
-1.93836e-17
-3.10193e-17
-1.64566e-17
-2.39179e-17
-1.76561e-17
-2.14301e-17
-1.20865e-17
-3.2022e-17
-1.91219e-17
-3.092e-17
-1.63786e-17
-2.40653e-17
-1.79141e-17
-2.15571e-17
-1.21992e-17
-3.19984e-17
-1.93203e-17
-3.08602e-17
-1.60335e-17
-2.39436e-17
-1.78548e-17
-2.14839e-17
-1.18392e-17
-3.19104e-17
-1.92184e-17
-3.08999e-17
-1.61598e-17
-2.42009e-17
-1.77807e-17
-2.13142e-17
-1.18835e-17
-3.18385e-17
-1.92358e-17
-3.11023e-17
-1.6306e-17
-2.40602e-17
-1.78891e-17
-2.16502e-17
-1.23129e-17
-3.20167e-17
-1.94062e-17
-3.10872e-17
-1.62382e-17
-2.41137e-17
-1.7826e-17
-2.1345e-17
-1.20924e-17
-3.22743e-17
-1.93134e-17
-3.11764e-17
-1.61812e-17
-2.38857e-17
-1.79531e-17
-2.1454e-17
-1.21934e-17
-3.21264e-17
-1.94341e-17
-3.06911e-17
-1.59586e-17
-2.40579e-17
-1.79583e-17
-2.13886e-17
-1.21943e-17
-3.24039e-17
-1.93613e-17
-3.09037e-17
-1.59719e-17
-2.39676e-17
-1.80314e-17
-2.10506e-17
-1.21939e-17
-3.22987e-17
-1.93383e-17
-3.09145e-17
-1.60661e-17
-2.40862e-17
-1.78443e-17
-2.11767e-17
-1.24265e-17
-3.23332e-17
-1.92316e-17
-3.06349e-17
-1.57344e-17
-2.38282e-17
-1.77395e-17
-2.11049e-17
-1.21509e-17
-3.25602e-17
-1.91578e-17
-3.08556e-17
-1.58973e-17
-2.41272e-17
-1.78267e-17
-2.11996e-17
-1.22351e-17
-3.22292e-17
-1.93608e-17
-3.06767e-17
-1.57652e-17
-2.39363e-17
-1.79001e-17
-2.11374e-17
-1.24188e-17
-3.25835e-17
-1.94839e-17
-3.06258e-17
-1.60443e-17
-2.41312e-17
-1.80831e-17
-2.07154e-17
-1.26958e-17
-3.07729e-17
-2.426e-17
-2.07963e-17
-3.04901e-17
-1.06093e-17
-2.27729e-17
-9.72088e-18
-2.47223e-17
-1.30871e-17
-2.31731e-17
-1.76342e-17
-2.07554e-17
-1.21997e-17
-3.26691e-17
-1.97321e-17
-3.09197e-17
-1.59331e-17
-6.03175e-17
-3.67686e-17
-5.72556e-17
-3.34243e-17
-4.93708e-17
-3.57521e-17
-4.39535e-17
-3.51205e-17
-6.04232e-17
-3.70375e-17
-5.71435e-17
-3.28223e-17
-4.91552e-17
-3.52216e-17
-4.36096e-17
-3.60328e-17
-5.73251e-17
-4.50654e-17
-4.1114e-17
-5.78802e-17
-1.70714e-17
-4.10766e-17
-2.05618e-17
-4.69862e-17
-2.81931e-17
-4.76059e-17
-3.48428e-17
-4.42241e-17
-3.49689e-17
-6.05485e-17
-3.69949e-17
-5.73266e-17
-3.29326e-17
-4.90756e-17
-3.48584e-17
-4.3636e-17
-3.50879e-17
-6.08521e-17
-3.6708e-17
-5.7143e-17
-3.2867e-17
-4.93015e-17
-3.52438e-17
-4.37243e-17
-3.51346e-17
-6.04452e-17
-3.66096e-17
-5.70981e-17
-3.20586e-17
-4.91598e-17
-3.48572e-17
-4.36875e-17
-3.45155e-17
-6.04481e-17
-3.65373e-17
-5.65562e-17
-3.23061e-17
-4.90273e-17
-3.52103e-17
-4.35792e-17
-3.45217e-17
-6.04802e-17
-3.6665e-17
-5.73613e-17
-3.25845e-17
-4.94698e-17
-3.5242e-17
-4.44501e-17
-3.53368e-17
-6.07812e-17
-3.70411e-17
-5.71288e-17
-3.27299e-17
-4.93368e-17
-3.51722e-17
-4.35565e-17
-3.50425e-17
-6.10776e-17
-3.70811e-17
-5.71427e-17
-3.21811e-17
-4.88257e-17
-3.48149e-17
-4.39965e-17
-3.50267e-17
-6.08289e-17
-3.70491e-17
-5.65772e-17
-3.22131e-17
-4.91191e-17
-3.51264e-17
-4.40194e-17
-3.51784e-17
-6.10592e-17
-3.67058e-17
-5.66175e-17
-3.25076e-17
-4.91768e-17
-3.54437e-17
-4.2937e-17
-3.52635e-17
-6.08901e-17
-3.67707e-17
-5.67528e-17
-3.26883e-17
-4.91117e-17
-3.47736e-17
-4.33481e-17
-3.53777e-17
-6.11668e-17
-3.66481e-17
-5.64134e-17
-3.225e-17
-4.8638e-17
-3.4867e-17
-4.35813e-17
-3.4838e-17
-6.14777e-17
-3.64837e-17
-5.69162e-17
-3.20677e-17
-4.90799e-17
-3.47848e-17
-4.37132e-17
-3.50937e-17
-6.10245e-17
-3.67175e-17
-5.61971e-17
-3.17205e-17
-4.90875e-17
-3.54257e-17
-4.37411e-17
-3.59078e-17
-6.14991e-17
-3.73077e-17
-5.67132e-17
-3.23866e-17
-4.90456e-17
-3.53885e-17
-4.3315e-17
-3.58733e-17
-5.89881e-17
-4.4002e-17
-4.1218e-17
-5.74755e-17
-1.59254e-17
-4.02324e-17
-2.09081e-17
-4.7584e-17
-2.82898e-17
-4.77291e-17
-3.4475e-17
-4.26256e-17
-3.53923e-17
-6.11532e-17
-3.75106e-17
-5.64895e-17
-3.266e-17
-3.13075e-17
-1.91931e-17
-3.06001e-17
-1.65968e-17
-2.3916e-17
-1.79773e-17
-2.14718e-17
-1.21556e-17
-3.12251e-17
-1.90096e-17
-3.05235e-17
-1.63969e-17
-2.39236e-17
-1.77283e-17
-2.11343e-17
-1.28165e-17
-2.90683e-17
-2.44772e-17
-2.02158e-17
-3.04896e-17
-1.13869e-17
-2.29623e-17
-9.55773e-18
-2.3966e-17
-1.31095e-17
-2.25186e-17
-1.74712e-17
-2.12649e-17
-1.21838e-17
-3.1251e-17
-1.9189e-17
-3.03641e-17
-1.63054e-17
-2.37178e-17
-1.74469e-17
-2.10909e-17
-1.20786e-17
-3.14853e-17
-1.91395e-17
-3.04439e-17
-1.62411e-17
-2.38822e-17
-1.76387e-17
-2.12703e-17
-1.22714e-17
-3.15225e-17
-1.92638e-17
-3.0406e-17
-1.58998e-17
-2.36095e-17
-1.76855e-17
-2.1119e-17
-1.20622e-17
-3.1357e-17
-1.88337e-17
-3.04718e-17
-1.58955e-17
-2.37168e-17
-1.75864e-17
-2.11095e-17
-1.20201e-17
-3.15085e-17
-1.90758e-17
-3.05436e-17
-1.61694e-17
-2.38688e-17
-1.78078e-17
-2.14734e-17
-1.24327e-17
-3.15678e-17
-1.91626e-17
-3.05508e-17
-1.62106e-17
-2.38487e-17
-1.772e-17
-2.1079e-17
-1.2151e-17
-3.16874e-17
-1.91131e-17
-3.05953e-17
-1.60025e-17
-2.37202e-17
-1.75779e-17
-2.12071e-17
-1.23303e-17
-3.17476e-17
-1.93461e-17
-3.04007e-17
-1.59582e-17
-2.37359e-17
-1.77012e-17
-2.12622e-17
-1.23877e-17
-3.19609e-17
-1.92493e-17
-3.03812e-17
-1.59243e-17
-2.37719e-17
-1.75503e-17
-2.07341e-17
-1.24077e-17
-3.17312e-17
-1.90757e-17
-3.04194e-17
-1.60156e-17
-2.37911e-17
-1.77841e-17
-2.08528e-17
-1.23715e-17
-3.2006e-17
-1.92366e-17
-3.02026e-17
-1.57811e-17
-2.35861e-17
-1.75361e-17
-2.0801e-17
-1.23286e-17
-3.21227e-17
-1.88934e-17
-3.03615e-17
-1.58083e-17
-2.37913e-17
-1.76561e-17
-2.08689e-17
-1.23746e-17
-3.20307e-17
-1.92841e-17
-3.02551e-17
-1.56454e-17
-2.38092e-17
-1.7742e-17
-2.10056e-17
-1.26794e-17
-3.2125e-17
-1.92944e-17
-3.0123e-17
-1.57206e-17
-2.38656e-17
-1.7849e-17
-2.05185e-17
-1.30013e-17
-3.043e-17
-2.40214e-17
-2.05679e-17
-2.99824e-17
-1.06226e-17
-2.25719e-17
-9.78421e-18
-2.43036e-17
-1.29785e-17