/*--------------------------------*- C++ -*----------------------------------*\
| =========                 |                                                 |
| \\      /  F ield         | OpenFOAM: The Open Source CFD Toolbox           |
|  \\    /   O peration     | Version:  2512                                  |
|   \\  /    A nd           | Website:  www.openfoam.com                      |
|    \\/     M anipulation  |                                                 |
\*---------------------------------------------------------------------------*/
FoamFile
{
    version     2.0;
    format      ascii;
    arch        "LSB;label=32;scalar=64";
    class       volScalarField;
    location    "0.002";
    object      alphat;
}
// * * * * * * * * * * * * * * * * * * * * * * * * * * * * * * * * * * * * * //

dimensions      [1 -1 -1 0 0 0 0];

internalField   nonuniform List<scalar> 
100000
(
1.33666e-07
2.61576e-08
1.08031e-08
6.02161e-09
4.0547e-09
3.1042e-09
2.59206e-09
2.29387e-09
2.10809e-09
1.98493e-09
1.89878e-09
1.83583e-09
1.78829e-09
1.75151e-09
1.72258e-09
1.69959e-09
1.68123e-09
1.66654e-09
1.65484e-09
1.6456e-09
1.63842e-09
1.63297e-09
1.62901e-09
1.62633e-09
1.62476e-09
1.62416e-09
1.62441e-09
1.62542e-09
1.6271e-09
1.62938e-09
1.6322e-09
1.63551e-09
1.63925e-09
1.6434e-09
1.64791e-09
1.65275e-09
1.65792e-09
1.66338e-09
1.66911e-09
1.67511e-09
1.68134e-09
1.68779e-09
1.69444e-09
1.70128e-09
1.70829e-09
1.71547e-09
1.72279e-09
1.73026e-09
1.73785e-09
1.74558e-09
1.75342e-09
1.76139e-09
1.76947e-09
1.77766e-09
1.78595e-09
1.79433e-09
1.80281e-09
1.81138e-09
1.82004e-09
1.82878e-09
1.8376e-09
1.8465e-09
1.85547e-09
1.86452e-09
1.87363e-09
1.8828e-09
1.89204e-09
1.90134e-09
1.91069e-09
1.92008e-09
1.92952e-09
1.93898e-09
1.94846e-09
1.95794e-09
1.96742e-09
1.97688e-09
1.98633e-09
1.99575e-09
2.00516e-09
2.01456e-09
2.02394e-09
2.03333e-09
2.04271e-09
2.0521e-09
2.06149e-09
2.0709e-09
2.08031e-09
2.08974e-09
2.09918e-09
2.10863e-09
2.1181e-09
2.12759e-09
2.13708e-09
2.1466e-09
2.15613e-09
2.16569e-09
2.17526e-09
2.18485e-09
2.19446e-09
2.20409e-09
2.21374e-09
2.22341e-09
2.23311e-09
2.24283e-09
2.25257e-09
2.26234e-09
2.27213e-09
2.28194e-09
2.29178e-09
2.30165e-09
2.31153e-09
2.32143e-09
2.33135e-09
2.34129e-09
2.35122e-09
2.36117e-09
2.37111e-09
2.38105e-09
2.391e-09
2.40094e-09
2.41089e-09
2.42084e-09
2.43079e-09
2.44075e-09
2.45072e-09
2.4607e-09
2.47069e-09
2.48068e-09
2.49069e-09
2.5007e-09
2.51073e-09
2.52077e-09
2.53082e-09
2.54089e-09
2.55096e-09
2.56105e-09
2.57116e-09
2.58128e-09
2.59141e-09
2.60156e-09
2.61172e-09
2.6219e-09
2.63209e-09
2.64229e-09
2.65251e-09
2.66275e-09
2.673e-09
2.68325e-09
2.69352e-09
2.7038e-09
2.71409e-09
2.72438e-09
2.73468e-09
2.74499e-09
2.7553e-09
2.76562e-09
2.77594e-09
2.78628e-09
2.79662e-09
2.80697e-09
2.81732e-09
2.82769e-09
2.83806e-09
2.84844e-09
2.85883e-09
2.86922e-09
2.87962e-09
2.89003e-09
2.90045e-09
2.91087e-09
2.92131e-09
2.93175e-09
2.9422e-09
2.95266e-09
2.96312e-09
2.9736e-09
2.98408e-09
2.99456e-09
3.00506e-09
3.01556e-09
3.02606e-09
3.03657e-09
3.04708e-09
3.05759e-09
3.06811e-09
3.07863e-09
3.08915e-09
3.09967e-09
3.1102e-09
3.12072e-09
3.13126e-09
3.14179e-09
3.15233e-09
3.16288e-09
3.17343e-09
3.18398e-09
3.19454e-09
3.2051e-09
3.21567e-09
3.22624e-09
3.23682e-09
3.2474e-09
3.25799e-09
3.26858e-09
3.27917e-09
3.28976e-09
3.30036e-09
3.31095e-09
3.32155e-09
3.33215e-09
3.34275e-09
3.35335e-09
3.36394e-09
3.37454e-09
3.38514e-09
3.39573e-09
3.40632e-09
3.41691e-09
3.4275e-09
3.43809e-09
3.44867e-09
3.45926e-09
3.46984e-09
3.48042e-09
3.491e-09
3.50157e-09
3.51215e-09
3.52272e-09
3.53329e-09
3.54386e-09
3.55442e-09
3.56499e-09
3.57555e-09
3.58611e-09
3.59666e-09
3.60721e-09
3.61776e-09
3.62831e-09
3.63885e-09
3.64939e-09
3.65992e-09
3.67045e-09
3.68098e-09
3.6915e-09
3.70201e-09
3.71252e-09
3.72303e-09
3.73353e-09
3.74402e-09
3.75451e-09
3.76499e-09
3.77547e-09
3.78594e-09
3.79641e-09
3.80687e-09
3.81732e-09
3.82777e-09
3.83821e-09
3.84864e-09
3.85906e-09
3.86948e-09
3.87989e-09
3.89029e-09
3.90069e-09
3.91107e-09
3.92145e-09
3.93182e-09
3.94218e-09
3.95253e-09
3.96287e-09
3.9732e-09
3.98352e-09
3.99384e-09
4.00414e-09
4.01443e-09
4.02472e-09
4.03499e-09
4.04525e-09
4.0555e-09
4.06574e-09
4.07597e-09
4.08619e-09
4.0964e-09
4.10659e-09
4.11678e-09
4.12695e-09
4.13711e-09
4.14726e-09
4.1574e-09
4.16752e-09
4.17763e-09
4.18773e-09
4.19781e-09
4.20789e-09
4.21794e-09
4.22799e-09
4.23802e-09
4.24804e-09
4.25804e-09
4.26803e-09
4.278e-09
4.28796e-09
4.29791e-09
4.30784e-09
4.31775e-09
4.32765e-09
4.33754e-09
4.34741e-09
4.35726e-09
4.3671e-09
4.37692e-09
4.38673e-09
4.39651e-09
4.40629e-09
4.41604e-09
4.42578e-09
4.4355e-09
4.44521e-09
4.4549e-09
4.46457e-09
4.47422e-09
4.48385e-09
4.49347e-09
4.50307e-09
4.51265e-09
4.52221e-09
4.53175e-09
4.54128e-09
4.55078e-09
4.56027e-09
4.56974e-09
4.57919e-09
4.58862e-09
4.59802e-09
4.60741e-09
4.61678e-09
4.62613e-09
4.63546e-09
4.64477e-09
4.65406e-09
4.66332e-09
4.67257e-09
4.68179e-09
4.691e-09
4.70018e-09
4.70934e-09
4.71848e-09
4.7276e-09
4.73669e-09
4.74577e-09
4.75482e-09
4.76385e-09
4.77285e-09
4.78184e-09
4.7908e-09
4.79973e-09
4.80865e-09
4.81754e-09
4.82641e-09
4.83525e-09
4.84407e-09
4.85287e-09
4.86164e-09
4.87039e-09
4.87912e-09
4.88781e-09
4.89649e-09
4.90514e-09
4.91377e-09
4.92237e-09
4.93094e-09
4.93949e-09
4.94802e-09
4.95652e-09
4.96499e-09
4.97344e-09
4.98186e-09
4.99025e-09
4.99862e-09
5.00697e-09
5.01528e-09
5.02357e-09
5.03184e-09
5.04007e-09
5.04828e-09
5.05646e-09
5.06462e-09
5.07274e-09
5.08084e-09
5.08891e-09
5.09696e-09
5.10497e-09
5.11296e-09
5.12092e-09
5.12885e-09
5.13676e-09
5.14463e-09
5.15247e-09
5.16029e-09
5.16808e-09
5.17584e-09
5.18357e-09
5.19127e-09
5.19894e-09
5.20658e-09
5.21419e-09
5.22177e-09
5.22932e-09
5.23684e-09
5.24433e-09
5.25179e-09
5.25922e-09
5.26662e-09
5.27399e-09
5.28133e-09
5.28864e-09
5.29591e-09
5.30316e-09
5.31037e-09
5.31755e-09
5.3247e-09
5.33182e-09
5.33891e-09
5.34597e-09
5.35299e-09
5.35998e-09
5.36694e-09
5.37387e-09
5.38077e-09
5.38763e-09
5.39446e-09
5.40126e-09
5.40802e-09
5.41475e-09
5.42145e-09
5.42812e-09
5.43475e-09
5.44135e-09
5.44792e-09
5.45445e-09
5.46095e-09
5.46741e-09
5.47384e-09
5.48024e-09
5.48661e-09
5.49294e-09
5.49923e-09
5.50549e-09
5.51172e-09
5.51791e-09
5.52407e-09
5.53019e-09
5.53628e-09
5.54234e-09
5.54836e-09
5.55434e-09
5.56029e-09
5.5662e-09
5.57208e-09
5.57793e-09
5.58373e-09
5.58951e-09
5.59524e-09
5.60095e-09
5.60661e-09
5.61224e-09
5.61783e-09
5.62339e-09
5.62892e-09
5.6344e-09
5.63985e-09
5.64526e-09
5.65064e-09
5.65598e-09
5.66129e-09
5.66655e-09
5.67179e-09
5.67698e-09
5.68214e-09
5.68726e-09
5.69234e-09
5.69739e-09
5.7024e-09
5.70737e-09
5.71231e-09
5.71721e-09
5.72207e-09
5.72689e-09
5.73168e-09
5.73643e-09
5.74114e-09
5.74581e-09
5.75045e-09
5.75505e-09
5.75961e-09
5.76413e-09
5.76862e-09
5.77306e-09
5.77747e-09
5.78184e-09
5.78618e-09
5.79047e-09
5.79473e-09
5.79895e-09
5.80313e-09
5.80727e-09
5.81137e-09
5.81544e-09
5.81946e-09
5.82345e-09
5.8274e-09
5.83131e-09
5.83518e-09
5.83902e-09
5.84281e-09
5.84657e-09
5.85028e-09
5.85396e-09
5.8576e-09
5.8612e-09
5.86476e-09
5.86828e-09
5.87177e-09
5.87521e-09
5.87862e-09
5.88198e-09
5.88531e-09
5.8886e-09
5.89185e-09
5.89505e-09
5.89822e-09
5.90136e-09
5.90445e-09
5.9075e-09
5.91051e-09
5.91348e-09
5.91642e-09
5.91931e-09
5.92217e-09
5.92498e-09
5.92776e-09
5.93049e-09
5.93319e-09
5.93585e-09
5.93847e-09
5.94104e-09
5.94358e-09
5.94608e-09
5.94854e-09
5.95096e-09
5.95334e-09
5.95568e-09
5.95798e-09
5.96024e-09
5.96246e-09
5.96465e-09
5.96679e-09
5.96889e-09
5.97095e-09
5.97298e-09
5.97496e-09
5.9769e-09
5.97881e-09
5.98067e-09
5.9825e-09
5.98428e-09
5.98603e-09
5.98773e-09
5.9894e-09
5.99102e-09
5.99261e-09
5.99416e-09
5.99566e-09
5.99713e-09
5.99856e-09
5.99995e-09
6.0013e-09
6.0026e-09
6.00387e-09
6.0051e-09
6.00629e-09
6.00744e-09
6.00856e-09
6.00963e-09
6.01066e-09
6.01165e-09
6.01261e-09
6.01352e-09
6.01439e-09
6.01523e-09
6.01603e-09
6.01678e-09
6.0175e-09
6.01818e-09
6.01882e-09
6.01942e-09
6.01998e-09
6.0205e-09
6.02098e-09
6.02142e-09
6.02182e-09
6.02219e-09
6.02251e-09
6.0228e-09
6.02305e-09
6.02326e-09
6.02343e-09
6.02356e-09
6.02365e-09
6.0237e-09
6.02372e-09
6.0237e-09
6.02363e-09
6.02353e-09
6.02339e-09
6.02321e-09
6.023e-09
6.02274e-09
6.02245e-09
6.02212e-09
6.02175e-09
6.02134e-09
6.02089e-09
6.02041e-09
6.01988e-09
6.01932e-09
6.01872e-09
6.01809e-09
6.01741e-09
6.0167e-09
6.01595e-09
6.01516e-09
6.01434e-09
6.01347e-09
6.01257e-09
6.01163e-09
6.01066e-09
6.00965e-09
6.0086e-09
6.00751e-09
6.00638e-09
6.00522e-09
6.00402e-09
6.00279e-09
6.00151e-09
6.0002e-09
5.99886e-09
5.99747e-09
5.99605e-09
5.9946e-09
5.9931e-09
5.99157e-09
5.99001e-09
5.98841e-09
5.98677e-09
5.98509e-09
5.98338e-09
5.98164e-09
5.97985e-09
5.97803e-09
5.97618e-09
5.97429e-09
5.97236e-09
5.9704e-09
5.96841e-09
5.96638e-09
5.96431e-09
5.96221e-09
5.96007e-09
5.9579e-09
5.95569e-09
5.95345e-09
5.95117e-09
5.94886e-09
5.94651e-09
5.94413e-09
5.94171e-09
5.93926e-09
5.93678e-09
5.93426e-09
5.93171e-09
5.92912e-09
5.9265e-09
5.92384e-09
5.92116e-09
5.91843e-09
5.91568e-09
5.91289e-09
5.91007e-09
5.90721e-09
5.90432e-09
5.9014e-09
5.89844e-09
5.89546e-09
5.89243e-09
5.88938e-09
5.8863e-09
5.88318e-09
5.88003e-09
5.87684e-09
5.87363e-09
5.87038e-09
5.8671e-09
5.86379e-09
5.86044e-09
5.85707e-09
5.85366e-09
5.85022e-09
5.84675e-09
5.84325e-09
5.83972e-09
5.83616e-09
5.83257e-09
5.82894e-09
5.82529e-09
5.8216e-09
5.81788e-09
5.81414e-09
5.81036e-09
5.80655e-09
5.80271e-09
5.79884e-09
5.79495e-09
5.79102e-09
5.78706e-09
5.78308e-09
5.77906e-09
5.77502e-09
5.77094e-09
5.76684e-09
5.76271e-09
5.75855e-09
5.75436e-09
5.75014e-09
5.74589e-09
5.74162e-09
5.73731e-09
5.73298e-09
5.72862e-09
5.72424e-09
5.71982e-09
5.71538e-09
5.71091e-09
5.70641e-09
5.70189e-09
5.69733e-09
5.69276e-09
5.68815e-09
5.68352e-09
5.67886e-09
5.67417e-09
5.66946e-09
5.66472e-09
5.65996e-09
5.65517e-09
5.65035e-09
5.64551e-09
5.64064e-09
5.63575e-09
5.63083e-09
5.62589e-09
5.62092e-09
5.61593e-09
5.61091e-09
5.60586e-09
5.6008e-09
5.5957e-09
5.59059e-09
5.58545e-09
5.58028e-09
5.57509e-09
5.56988e-09
5.56464e-09
5.55938e-09
5.5541e-09
5.54879e-09
5.54346e-09
5.53811e-09
5.53274e-09
5.52734e-09
5.52192e-09
5.51647e-09
5.51101e-09
5.50552e-09
5.50001e-09
5.49448e-09
5.48893e-09
5.48335e-09
5.47775e-09
5.47214e-09
5.4665e-09
5.46084e-09
5.45515e-09
5.44945e-09
5.44373e-09
5.43799e-09
5.43222e-09
5.42644e-09
5.42063e-09
5.41481e-09
5.40896e-09
5.4031e-09
5.39722e-09
5.39131e-09
5.38539e-09
5.37945e-09
5.37349e-09
5.36751e-09
5.36151e-09
5.3555e-09
5.34946e-09
5.34341e-09
5.33734e-09
5.33125e-09
5.32514e-09
5.31901e-09
5.31287e-09
5.30671e-09
5.30053e-09
5.29434e-09
5.28813e-09
5.2819e-09
5.27565e-09
5.26939e-09
5.26311e-09
5.25682e-09
5.2505e-09
5.24418e-09
5.23783e-09
5.23148e-09
5.2251e-09
5.21871e-09
5.21231e-09
5.20589e-09
5.19945e-09
5.193e-09
5.18653e-09
5.18005e-09
5.17356e-09
5.16705e-09
5.16053e-09
5.15399e-09
5.14744e-09
5.14088e-09
5.1343e-09
5.12771e-09
5.1211e-09
5.11448e-09
5.10785e-09
5.10121e-09
5.09455e-09
5.08788e-09
5.0812e-09
5.07451e-09
5.0678e-09
5.06108e-09
5.05435e-09
5.04761e-09
5.04086e-09
5.03409e-09
5.02732e-09
5.02053e-09
5.01373e-09
5.00692e-09
5.0001e-09
4.99327e-09
4.98643e-09
4.97958e-09
4.97272e-09
4.96584e-09
4.95896e-09
4.95207e-09
4.94517e-09
4.93826e-09
4.93134e-09
4.92441e-09
4.91748e-09
4.91053e-09
4.90357e-09
4.89661e-09
4.88964e-09
4.88266e-09
4.87567e-09
4.86867e-09
4.86167e-09
4.85466e-09
4.84764e-09
4.84061e-09
4.83358e-09
4.82654e-09
4.81949e-09
4.81243e-09
4.80537e-09
4.79831e-09
4.79123e-09
4.78415e-09
4.77706e-09
4.76997e-09
4.76287e-09
4.75577e-09
4.74866e-09
4.74155e-09
4.73443e-09
4.7273e-09
4.72017e-09
4.71304e-09
4.7059e-09
4.69876e-09
4.69161e-09
4.68446e-09
4.67731e-09
4.67015e-09
4.66299e-09
4.65582e-09
4.64865e-09
4.64148e-09
4.63431e-09
4.62713e-09
4.61995e-09
4.61277e-09
4.60559e-09
4.5984e-09
4.59121e-09
4.58402e-09
4.57683e-09
4.56964e-09
4.56245e-09
4.55526e-09
4.54806e-09
4.54087e-09
4.53367e-09
4.52648e-09
4.51929e-09
4.51209e-09
4.5049e-09
4.49771e-09
4.49052e-09
4.48333e-09
4.47615e-09
4.46896e-09
4.46178e-09
4.45461e-09
4.44743e-09
4.44026e-09
4.43309e-09
4.42593e-09
4.41877e-09
4.41161e-09
4.40447e-09
4.39732e-09
4.39019e-09
4.38306e-09
4.37593e-09
4.36882e-09
4.36171e-09
4.35461e-09
4.34753e-09
4.34045e-09
4.33338e-09
4.32632e-09
4.31928e-09
4.31225e-09
4.30523e-09
4.29823e-09
4.29124e-09
4.28427e-09
4.27732e-09
4.27039e-09
4.26347e-09
4.25658e-09
4.24971e-09
4.24286e-09
4.23604e-09
4.22924e-09
4.22248e-09
4.21574e-09
4.20904e-09
4.20237e-09
4.19573e-09
4.18914e-09
4.18258e-09
4.17607e-09
4.16961e-09
4.1632e-09
4.15684e-09
4.15053e-09
4.14428e-09
4.13809e-09
4.13196e-09
4.1259e-09
4.11989e-09
4.11393e-09
4.10801e-09
4.1021e-09
4.09618e-09
4.09017e-09
4.08404e-09
4.07774e-09
4.07109e-09
4.06322e-09
2.46801e-06
4.09175e-07
1.19079e-07
5.7553e-08
4.06929e-08
3.51429e-08
3.30935e-08
3.2278e-08
3.19305e-08
3.17682e-08
3.16822e-08
3.16298e-08
3.15936e-08
3.15664e-08
3.1545e-08
3.15277e-08
3.15136e-08
3.1502e-08
3.14924e-08
3.14845e-08
3.1478e-08
3.14728e-08
3.14687e-08
3.14654e-08
3.1463e-08
3.14612e-08
3.14601e-08
3.14595e-08
3.14595e-08
3.14598e-08
3.14606e-08
3.14617e-08
3.14632e-08
3.14649e-08
3.1467e-08
3.14693e-08
3.14718e-08
3.14746e-08
3.14775e-08
3.14807e-08
3.1484e-08
3.14875e-08
3.14912e-08
3.1495e-08
3.14989e-08
3.15029e-08
3.1507e-08
3.15113e-08
3.15156e-08
3.15201e-08
3.15246e-08
3.15292e-08
3.15339e-08
3.15387e-08
3.15436e-08
3.15485e-08
3.15535e-08
3.15586e-08
3.15637e-08
3.15689e-08
3.15741e-08
3.15794e-08
3.15848e-08
3.15902e-08
3.15956e-08
3.16011e-08
3.16067e-08
3.16122e-08
3.16178e-08
3.16234e-08
3.1629e-08
3.16347e-08
3.16403e-08
3.16459e-08
3.16515e-08
3.1657e-08
3.16625e-08
3.1668e-08
3.16735e-08
3.1679e-08
3.16844e-08
3.16899e-08
3.16954e-08
3.17008e-08
3.17063e-08
3.17118e-08
3.17173e-08
3.17228e-08
3.17283e-08
3.17338e-08
3.17393e-08
3.17448e-08
3.17503e-08
3.17559e-08
3.17614e-08
3.1767e-08
3.17726e-08
3.17782e-08
3.17838e-08
3.17894e-08
3.1795e-08
3.18007e-08
3.18064e-08
3.1812e-08
3.18177e-08
3.18234e-08
3.18292e-08
3.18349e-08
3.18407e-08
3.18464e-08
3.18522e-08
3.1858e-08
3.18638e-08
3.18696e-08
3.18754e-08
3.18811e-08
3.18869e-08
3.18927e-08
3.18985e-08
3.19042e-08
3.191e-08
3.19158e-08
3.19215e-08
3.19273e-08
3.19331e-08
3.19389e-08
3.19446e-08
3.19504e-08
3.19562e-08
3.1962e-08
3.19678e-08
3.19736e-08
3.19795e-08
3.19853e-08
3.19911e-08
3.1997e-08
3.20028e-08
3.20087e-08
3.20146e-08
3.20204e-08
3.20263e-08
3.20322e-08
3.20381e-08
3.2044e-08
3.205e-08
3.20559e-08
3.20618e-08
3.20678e-08
3.20737e-08
3.20797e-08
3.20856e-08
3.20916e-08
3.20975e-08
3.21035e-08
3.21094e-08
3.21154e-08
3.21214e-08
3.21273e-08
3.21333e-08
3.21393e-08
3.21453e-08
3.21512e-08
3.21572e-08
3.21632e-08
3.21692e-08
3.21752e-08
3.21812e-08
3.21872e-08
3.21932e-08
3.21992e-08
3.22053e-08
3.22113e-08
3.22173e-08
3.22233e-08
3.22294e-08
3.22354e-08
3.22415e-08
3.22475e-08
3.22536e-08
3.22596e-08
3.22657e-08
3.22717e-08
3.22778e-08
3.22838e-08
3.22899e-08
3.22959e-08
3.2302e-08
3.2308e-08
3.23141e-08
3.23201e-08
3.23262e-08
3.23323e-08
3.23383e-08
3.23444e-08
3.23505e-08
3.23565e-08
3.23626e-08
3.23687e-08
3.23747e-08
3.23808e-08
3.23869e-08
3.2393e-08
3.23991e-08
3.24052e-08
3.24112e-08
3.24173e-08
3.24234e-08
3.24295e-08
3.24356e-08
3.24417e-08
3.24478e-08
3.24538e-08
3.24599e-08
3.2466e-08
3.24721e-08
3.24782e-08
3.24842e-08
3.24903e-08
3.24964e-08
3.25024e-08
3.25085e-08
3.25146e-08
3.25206e-08
3.25267e-08
3.25328e-08
3.25388e-08
3.25449e-08
3.25509e-08
3.2557e-08
3.2563e-08
3.25691e-08
3.25751e-08
3.25812e-08
3.25872e-08
3.25933e-08
3.25993e-08
3.26053e-08
3.26114e-08
3.26174e-08
3.26234e-08
3.26295e-08
3.26355e-08
3.26415e-08
3.26475e-08
3.26535e-08
3.26595e-08
3.26655e-08
3.26715e-08
3.26775e-08
3.26835e-08
3.26895e-08
3.26955e-08
3.27015e-08
3.27075e-08
3.27134e-08
3.27194e-08
3.27254e-08
3.27313e-08
3.27373e-08
3.27432e-08
3.27492e-08
3.27551e-08
3.27611e-08
3.2767e-08
3.27729e-08
3.27788e-08
3.27847e-08
3.27906e-08
3.27966e-08
3.28024e-08
3.28083e-08
3.28142e-08
3.28201e-08
3.2826e-08
3.28318e-08
3.28377e-08
3.28435e-08
3.28494e-08
3.28552e-08
3.28611e-08
3.28669e-08
3.28727e-08
3.28785e-08
3.28843e-08
3.28901e-08
3.28959e-08
3.29017e-08
3.29075e-08
3.29133e-08
3.2919e-08
3.29248e-08
3.29305e-08
3.29362e-08
3.2942e-08
3.29477e-08
3.29534e-08
3.29591e-08
3.29648e-08
3.29705e-08
3.29762e-08
3.29819e-08
3.29875e-08
3.29932e-08
3.29988e-08
3.30045e-08
3.30101e-08
3.30157e-08
3.30213e-08
3.30269e-08
3.30325e-08
3.30381e-08
3.30436e-08
3.30492e-08
3.30548e-08
3.30603e-08
3.30658e-08
3.30713e-08
3.30769e-08
3.30824e-08
3.30878e-08
3.30933e-08
3.30988e-08
3.31043e-08
3.31097e-08
3.31151e-08
3.31206e-08
3.3126e-08
3.31314e-08
3.31368e-08
3.31422e-08
3.31476e-08
3.31529e-08
3.31583e-08
3.31636e-08
3.31689e-08
3.31743e-08
3.31796e-08
3.31848e-08
3.31901e-08
3.31954e-08
3.32007e-08
3.32059e-08
3.32111e-08
3.32164e-08
3.32216e-08
3.32268e-08
3.3232e-08
3.32371e-08
3.32423e-08
3.32474e-08
3.32526e-08
3.32577e-08
3.32628e-08
3.32679e-08
3.3273e-08
3.32781e-08
3.32831e-08
3.32882e-08
3.32932e-08
3.32982e-08
3.33032e-08
3.33082e-08
3.33132e-08
3.33182e-08
3.33231e-08
3.3328e-08
3.3333e-08
3.33379e-08
3.33428e-08
3.33477e-08
3.33525e-08
3.33574e-08
3.33622e-08
3.3367e-08
3.33719e-08
3.33767e-08
3.33814e-08
3.33862e-08
3.3391e-08
3.33957e-08
3.34004e-08
3.34051e-08
3.34098e-08
3.34145e-08
3.34192e-08
3.34238e-08
3.34285e-08
3.34331e-08
3.34377e-08
3.34423e-08
3.34469e-08
3.34514e-08
3.3456e-08
3.34605e-08
3.3465e-08
3.34695e-08
3.3474e-08
3.34785e-08
3.34829e-08
3.34874e-08
3.34918e-08
3.34962e-08
3.35006e-08
3.35049e-08
3.35093e-08
3.35136e-08
3.3518e-08
3.35223e-08
3.35266e-08
3.35308e-08
3.35351e-08
3.35394e-08
3.35436e-08
3.35478e-08
3.3552e-08
3.35562e-08
3.35603e-08
3.35645e-08
3.35686e-08
3.35727e-08
3.35768e-08
3.35809e-08
3.35849e-08
3.3589e-08
3.3593e-08
3.3597e-08
3.3601e-08
3.3605e-08
3.36089e-08
3.36129e-08
3.36168e-08
3.36207e-08
3.36246e-08
3.36285e-08
3.36323e-08
3.36362e-08
3.364e-08
3.36438e-08
3.36476e-08
3.36513e-08
3.36551e-08
3.36588e-08
3.36625e-08
3.36662e-08
3.36699e-08
3.36736e-08
3.36772e-08
3.36808e-08
3.36844e-08
3.3688e-08
3.36916e-08
3.36952e-08
3.36987e-08
3.37022e-08
3.37057e-08
3.37092e-08
3.37127e-08
3.37161e-08
3.37195e-08
3.37229e-08
3.37263e-08
3.37297e-08
3.3733e-08
3.37364e-08
3.37397e-08
3.3743e-08
3.37463e-08
3.37495e-08
3.37528e-08
3.3756e-08
3.37592e-08
3.37624e-08
3.37656e-08
3.37687e-08
3.37718e-08
3.3775e-08
3.3778e-08
3.37811e-08
3.37842e-08
3.37872e-08
3.37902e-08
3.37932e-08
3.37962e-08
3.37992e-08
3.38021e-08
3.3805e-08
3.38079e-08
3.38108e-08
3.38137e-08
3.38165e-08
3.38194e-08
3.38222e-08
3.3825e-08
3.38277e-08
3.38305e-08
3.38332e-08
3.3836e-08
3.38386e-08
3.38413e-08
3.3844e-08
3.38466e-08
3.38492e-08
3.38518e-08
3.38544e-08
3.3857e-08
3.38595e-08
3.38621e-08
3.38646e-08
3.3867e-08
3.38695e-08
3.3872e-08
3.38744e-08
3.38768e-08
3.38792e-08
3.38816e-08
3.38839e-08
3.38862e-08
3.38885e-08
3.38908e-08
3.38931e-08
3.38954e-08
3.38976e-08
3.38998e-08
3.3902e-08
3.39042e-08
3.39064e-08
3.39085e-08
3.39106e-08
3.39127e-08
3.39148e-08
3.39169e-08
3.39189e-08
3.39209e-08
3.39229e-08
3.39249e-08
3.39269e-08
3.39288e-08
3.39308e-08
3.39327e-08
3.39346e-08
3.39364e-08
3.39383e-08
3.39401e-08
3.39419e-08
3.39437e-08
3.39455e-08
3.39473e-08
3.3949e-08
3.39507e-08
3.39524e-08
3.39541e-08
3.39557e-08
3.39574e-08
3.3959e-08
3.39606e-08
3.39622e-08
3.39638e-08
3.39653e-08
3.39668e-08
3.39683e-08
3.39698e-08
3.39713e-08
3.39727e-08
3.39742e-08
3.39756e-08
3.3977e-08
3.39784e-08
3.39797e-08
3.39811e-08
3.39824e-08
3.39837e-08
3.3985e-08
3.39862e-08
3.39875e-08
3.39887e-08
3.39899e-08
3.39911e-08
3.39922e-08
3.39934e-08
3.39945e-08
3.39956e-08
3.39967e-08
3.39978e-08
3.39989e-08
3.39999e-08
3.40009e-08
3.40019e-08
3.40029e-08
3.40039e-08
3.40048e-08
3.40058e-08
3.40067e-08
3.40076e-08
3.40084e-08
3.40093e-08
3.40101e-08
3.40109e-08
3.40117e-08
3.40125e-08
3.40133e-08
3.4014e-08
3.40148e-08
3.40155e-08
3.40162e-08
3.40168e-08
3.40175e-08
3.40181e-08
3.40188e-08
3.40194e-08
3.40199e-08
3.40205e-08
3.40211e-08
3.40216e-08
3.40221e-08
3.40226e-08
3.40231e-08
3.40236e-08
3.4024e-08
3.40244e-08
3.40248e-08
3.40252e-08
3.40256e-08
3.4026e-08
3.40263e-08
3.40266e-08
3.40269e-08
3.40272e-08
3.40275e-08
3.40277e-08
3.4028e-08
3.40282e-08
3.40284e-08
3.40286e-08
3.40288e-08
3.40289e-08
3.40291e-08
3.40292e-08
3.40293e-08
3.40294e-08
3.40294e-08
3.40295e-08
3.40295e-08
3.40295e-08
3.40295e-08
3.40295e-08
3.40295e-08
3.40295e-08
3.40294e-08
3.40293e-08
3.40292e-08
3.40291e-08
3.4029e-08
3.40288e-08
3.40287e-08
3.40285e-08
3.40283e-08
3.40281e-08
3.40279e-08
3.40277e-08
3.40274e-08
3.40271e-08
3.40268e-08
3.40265e-08
3.40262e-08
3.40259e-08
3.40256e-08
3.40252e-08
3.40248e-08
3.40244e-08
3.4024e-08
3.40236e-08
3.40232e-08
3.40227e-08
3.40222e-08
3.40218e-08
3.40213e-08
3.40208e-08
3.40202e-08
3.40197e-08
3.40191e-08
3.40186e-08
3.4018e-08
3.40174e-08
3.40168e-08
3.40161e-08
3.40155e-08
3.40148e-08
3.40142e-08
3.40135e-08
3.40128e-08
3.40121e-08
3.40113e-08
3.40106e-08
3.40098e-08
3.40091e-08
3.40083e-08
3.40075e-08
3.40067e-08
3.40058e-08
3.4005e-08
3.40042e-08
3.40033e-08
3.40024e-08
3.40015e-08
3.40006e-08
3.39997e-08
3.39988e-08
3.39978e-08
3.39969e-08
3.39959e-08
3.39949e-08
3.39939e-08
3.39929e-08
3.39919e-08
3.39909e-08
3.39898e-08
3.39888e-08
3.39877e-08
3.39866e-08
3.39855e-08
3.39844e-08
3.39833e-08
3.39822e-08
3.3981e-08
3.39798e-08
3.39787e-08
3.39775e-08
3.39763e-08
3.39751e-08
3.39739e-08
3.39727e-08
3.39714e-08
3.39702e-08
3.39689e-08
3.39676e-08
3.39664e-08
3.39651e-08
3.39638e-08
3.39624e-08
3.39611e-08
3.39598e-08
3.39584e-08
3.39571e-08
3.39557e-08
3.39543e-08
3.39529e-08
3.39515e-08
3.39501e-08
3.39487e-08
3.39472e-08
3.39458e-08
3.39443e-08
3.39428e-08
3.39414e-08
3.39399e-08
3.39384e-08
3.39369e-08
3.39354e-08
3.39338e-08
3.39323e-08
3.39307e-08
3.39292e-08
3.39276e-08
3.39261e-08
3.39245e-08
3.39229e-08
3.39213e-08
3.39197e-08
3.3918e-08
3.39164e-08
3.39148e-08
3.39131e-08
3.39114e-08
3.39098e-08
3.39081e-08
3.39064e-08
3.39047e-08
3.3903e-08
3.39013e-08
3.38996e-08
3.38979e-08
3.38961e-08
3.38944e-08
3.38926e-08
3.38909e-08
3.38891e-08
3.38873e-08
3.38855e-08
3.38837e-08
3.38819e-08
3.38801e-08
3.38783e-08
3.38765e-08
3.38747e-08
3.38728e-08
3.3871e-08
3.38691e-08
3.38673e-08
3.38654e-08
3.38635e-08
3.38616e-08
3.38598e-08
3.38579e-08
3.3856e-08
3.38541e-08
3.38521e-08
3.38502e-08
3.38483e-08
3.38463e-08
3.38444e-08
3.38425e-08
3.38405e-08
3.38385e-08
3.38366e-08
3.38346e-08
3.38326e-08
3.38306e-08
3.38286e-08
3.38266e-08
3.38246e-08
3.38226e-08
3.38206e-08
3.38186e-08
3.38166e-08
3.38145e-08
3.38125e-08
3.38105e-08
3.38084e-08
3.38064e-08
3.38043e-08
3.38022e-08
3.38002e-08
3.37981e-08
3.3796e-08
3.37939e-08
3.37919e-08
3.37898e-08
3.37877e-08
3.37856e-08
3.37835e-08
3.37814e-08
3.37792e-08
3.37771e-08
3.3775e-08
3.37729e-08
3.37708e-08
3.37686e-08
3.37665e-08
3.37643e-08
3.37622e-08
3.376e-08
3.37579e-08
3.37557e-08
3.37536e-08
3.37514e-08
3.37492e-08
3.37471e-08
3.37449e-08
3.37427e-08
3.37406e-08
3.37384e-08
3.37362e-08
3.3734e-08
3.37318e-08
3.37296e-08
3.37274e-08
3.37252e-08
3.3723e-08
3.37208e-08
3.37186e-08
3.37164e-08
3.37142e-08
3.3712e-08
3.37098e-08
3.37075e-08
3.37053e-08
3.37031e-08
3.37009e-08
3.36986e-08
3.36964e-08
3.36942e-08
3.3692e-08
3.36897e-08
3.36875e-08
3.36852e-08
3.3683e-08
3.36808e-08
3.36785e-08
3.36763e-08
3.36741e-08
3.36718e-08
3.36696e-08
3.36673e-08
3.36651e-08
3.36628e-08
3.36606e-08
3.36583e-08
3.36561e-08
3.36538e-08
3.36516e-08
3.36493e-08
3.36471e-08
3.36448e-08
3.36426e-08
3.36403e-08
3.36381e-08
3.36358e-08
3.36336e-08
3.36313e-08
3.36291e-08
3.36268e-08
3.36246e-08
3.36223e-08
3.36201e-08
3.36178e-08
3.36156e-08
3.36133e-08
3.36111e-08
3.36089e-08
3.36066e-08
3.36044e-08
3.36021e-08
3.35999e-08
3.35977e-08
3.35954e-08
3.35932e-08
3.3591e-08
3.35887e-08
3.35865e-08
3.35843e-08
3.3582e-08
3.35798e-08
3.35776e-08
3.35754e-08
3.35732e-08
3.3571e-08
3.35688e-08
3.35666e-08
3.35644e-08
3.35622e-08
3.356e-08
3.35578e-08
3.35556e-08
3.35534e-08
3.35512e-08
3.35491e-08
3.35469e-08
3.35447e-08
3.35426e-08
3.35404e-08
3.35383e-08
3.35361e-08
3.3534e-08
3.35319e-08
3.35297e-08
3.35276e-08
3.35255e-08
3.35234e-08
3.35213e-08
3.35193e-08
3.35172e-08
3.35151e-08
3.35131e-08
3.35111e-08
3.3509e-08
3.3507e-08
3.3505e-08
3.3503e-08
3.35011e-08
3.34991e-08
3.34972e-08
3.34952e-08
3.34933e-08
3.34914e-08
3.34896e-08
3.34877e-08
3.34859e-08
3.34841e-08
3.34823e-08
3.34806e-08
3.34788e-08
3.34771e-08
3.34755e-08
3.34738e-08
3.34722e-08
3.34706e-08
3.34691e-08
3.34676e-08
3.34661e-08
3.34646e-08
3.34632e-08
3.34616e-08
3.346e-08
3.34583e-08
3.34561e-08
3.34534e-08
3.345e-08
3.34458e-08
3.3441e-08
3.34363e-08
1.76084e-05
3.98208e-06
1.59537e-06
9.24445e-07
7.06194e-07
6.29822e-07
6.02267e-07
5.92395e-07
5.89034e-07
5.8803e-07
5.87837e-07
5.87893e-07
5.88006e-07
5.88116e-07
5.88209e-07
5.88285e-07
5.88346e-07
5.88396e-07
5.88437e-07
5.88471e-07
5.885e-07
5.88524e-07
5.88545e-07
5.88563e-07
5.88579e-07
5.88593e-07
5.88605e-07
5.88616e-07
5.88625e-07
5.88634e-07
5.88642e-07
5.88649e-07
5.88656e-07
5.88662e-07
5.88667e-07
5.88673e-07
5.88678e-07
5.88682e-07
5.88687e-07
5.88691e-07
5.88695e-07
5.88699e-07
5.88702e-07
5.88706e-07
5.88709e-07
5.88712e-07
5.88715e-07
5.88718e-07
5.88721e-07
5.88724e-07
5.88727e-07
5.88729e-07
5.88732e-07
5.88735e-07
5.88737e-07
5.8874e-07
5.88742e-07
5.88745e-07
5.88748e-07
5.8875e-07
5.88752e-07
5.88755e-07
5.88757e-07
5.8876e-07
5.88762e-07
5.88764e-07
5.88766e-07
5.88768e-07
5.8877e-07
5.88772e-07
5.88773e-07
5.88774e-07
5.88775e-07
5.88775e-07
5.88776e-07
5.88776e-07
5.88776e-07
5.88776e-07
5.88776e-07
5.88776e-07
5.88776e-07
5.88777e-07
5.88777e-07
5.88778e-07
5.88778e-07
5.88779e-07
5.8878e-07
5.88781e-07
5.88782e-07
5.88783e-07
5.88784e-07
5.88785e-07
5.88786e-07
5.88787e-07
5.88789e-07
5.8879e-07
5.88791e-07
5.88793e-07
5.88794e-07
5.88795e-07
5.88797e-07
5.88798e-07
5.888e-07
5.88802e-07
5.88803e-07
5.88805e-07
5.88806e-07
5.88808e-07
5.8881e-07
5.88811e-07
5.88813e-07
5.88814e-07
5.88816e-07
5.88817e-07
5.88818e-07
5.8882e-07
5.88821e-07
5.88822e-07
5.88823e-07
5.88824e-07
5.88825e-07
5.88827e-07
5.88828e-07
5.88829e-07
5.88831e-07
5.88832e-07
5.88833e-07
5.88835e-07
5.88836e-07
5.88838e-07
5.88839e-07
5.88841e-07
5.88842e-07
5.88844e-07
5.88846e-07
5.88847e-07
5.88849e-07
5.88851e-07
5.88852e-07
5.88854e-07
5.88856e-07
5.88857e-07
5.88859e-07
5.88861e-07
5.88863e-07
5.88864e-07
5.88866e-07
5.88868e-07
5.8887e-07
5.88871e-07
5.88873e-07
5.88875e-07
5.88876e-07
5.88878e-07
5.8888e-07
5.88881e-07
5.88883e-07
5.88885e-07
5.88887e-07
5.88888e-07
5.8889e-07
5.88892e-07
5.88894e-07
5.88895e-07
5.88897e-07
5.88899e-07
5.88901e-07
5.88903e-07
5.88904e-07
5.88906e-07
5.88908e-07
5.8891e-07
5.88912e-07
5.88914e-07
5.88916e-07
5.88918e-07
5.8892e-07
5.88921e-07
5.88923e-07
5.88925e-07
5.88927e-07
5.88929e-07
5.88931e-07
5.88933e-07
5.88934e-07
5.88936e-07
5.88938e-07
5.8894e-07
5.88942e-07
5.88944e-07
5.88946e-07
5.88948e-07
5.8895e-07
5.88952e-07
5.88954e-07
5.88956e-07
5.88958e-07
5.8896e-07
5.88962e-07
5.88964e-07
5.88966e-07
5.88968e-07
5.8897e-07
5.88972e-07
5.88974e-07
5.88976e-07
5.88978e-07
5.8898e-07
5.88982e-07
5.88984e-07
5.88986e-07
5.88988e-07
5.8899e-07
5.88992e-07
5.88994e-07
5.88996e-07
5.88998e-07
5.89e-07
5.89002e-07
5.89004e-07
5.89006e-07
5.89008e-07
5.8901e-07
5.89012e-07
5.89014e-07
5.89016e-07
5.89018e-07
5.8902e-07
5.89022e-07
5.89024e-07
5.89026e-07
5.89028e-07
5.8903e-07
5.89032e-07
5.89034e-07
5.89037e-07
5.89039e-07
5.89041e-07
5.89043e-07
5.89045e-07
5.89047e-07
5.89049e-07
5.89051e-07
5.89053e-07
5.89055e-07
5.89057e-07
5.8906e-07
5.89062e-07
5.89064e-07
5.89066e-07
5.89068e-07
5.8907e-07
5.89072e-07
5.89074e-07
5.89076e-07
5.89079e-07
5.89081e-07
5.89083e-07
5.89085e-07
5.89087e-07
5.89089e-07
5.89091e-07
5.89093e-07
5.89095e-07
5.89098e-07
5.891e-07
5.89102e-07
5.89104e-07
5.89106e-07
5.89108e-07
5.8911e-07
5.89112e-07
5.89115e-07
5.89117e-07
5.89119e-07
5.89121e-07
5.89123e-07
5.89125e-07
5.89127e-07
5.89129e-07
5.89131e-07
5.89134e-07
5.89136e-07
5.89138e-07
5.8914e-07
5.89142e-07
5.89144e-07
5.89146e-07
5.89148e-07
5.8915e-07
5.89153e-07
5.89155e-07
5.89157e-07
5.89159e-07
5.89161e-07
5.89163e-07
5.89165e-07
5.89167e-07
5.89169e-07
5.89172e-07
5.89174e-07
5.89176e-07
5.89178e-07
5.8918e-07
5.89182e-07
5.89184e-07
5.89186e-07
5.89188e-07
5.8919e-07
5.89192e-07
5.89195e-07
5.89197e-07
5.89199e-07
5.89201e-07
5.89203e-07
5.89205e-07
5.89207e-07
5.89209e-07
5.89211e-07
5.89213e-07
5.89215e-07
5.89217e-07
5.89219e-07
5.89221e-07
5.89223e-07
5.89226e-07
5.89228e-07
5.8923e-07
5.89232e-07
5.89234e-07
5.89236e-07
5.89238e-07
5.8924e-07
5.89242e-07
5.89244e-07
5.89246e-07
5.89248e-07
5.8925e-07
5.89252e-07
5.89254e-07
5.89256e-07
5.89258e-07
5.8926e-07
5.89262e-07
5.89264e-07
5.89266e-07
5.89268e-07
5.8927e-07
5.89272e-07
5.89274e-07
5.89276e-07
5.89278e-07
5.8928e-07
5.89282e-07
5.89284e-07
5.89286e-07
5.89288e-07
5.8929e-07
5.89292e-07
5.89294e-07
5.89296e-07
5.89297e-07
5.89299e-07
5.89301e-07
5.89303e-07
5.89305e-07
5.89307e-07
5.89309e-07
5.89311e-07
5.89313e-07
5.89315e-07
5.89317e-07
5.89319e-07
5.89321e-07
5.89322e-07
5.89324e-07
5.89326e-07
5.89328e-07
5.8933e-07
5.89332e-07
5.89334e-07
5.89336e-07
5.89337e-07
5.89339e-07
5.89341e-07
5.89343e-07
5.89345e-07
5.89347e-07
5.89349e-07
5.8935e-07
5.89352e-07
5.89354e-07
5.89356e-07
5.89358e-07
5.89359e-07
5.89361e-07
5.89363e-07
5.89365e-07
5.89367e-07
5.89368e-07
5.8937e-07
5.89372e-07
5.89374e-07
5.89376e-07
5.89377e-07
5.89379e-07
5.89381e-07
5.89383e-07
5.89384e-07
5.89386e-07
5.89388e-07
5.8939e-07
5.89391e-07
5.89393e-07
5.89395e-07
5.89397e-07
5.89398e-07
5.894e-07
5.89402e-07
5.89403e-07
5.89405e-07
5.89407e-07
5.89408e-07
5.8941e-07
5.89412e-07
5.89413e-07
5.89415e-07
5.89417e-07
5.89418e-07
5.8942e-07
5.89422e-07
5.89423e-07
5.89425e-07
5.89427e-07
5.89428e-07
5.8943e-07
5.89432e-07
5.89433e-07
5.89435e-07
5.89436e-07
5.89438e-07
5.8944e-07
5.89441e-07
5.89443e-07
5.89444e-07
5.89446e-07