/*--------------------------------*- C++ -*----------------------------------*\
| =========                 |                                                 |
| \\      /  F ield         | OpenFOAM: The Open Source CFD Toolbox           |
|  \\    /   O peration     | Version:  2512                                  |
|   \\  /    A nd           | Website:  www.openfoam.com                      |
|    \\/     M anipulation  |                                                 |
\*---------------------------------------------------------------------------*/
FoamFile
{
    version     2.0;
    format      ascii;
    arch        "LSB;label=32;scalar=64";
    class       volVectorField;
    location    "0.002";
    object      B;
}
// * * * * * * * * * * * * * * * * * * * * * * * * * * * * * * * * * * * * * //

dimensions      [1 0 -2 0 0 -1 0];

internalField   nonuniform List<vector> 
100000
(
(0.173461 20.0531 0)
(0.16893 20.0286 0)
(0.158081 20.0311 0)
(0.147792 20.0262 0)
(0.139684 20.0201 0)
(0.133447 20.0152 0)
(0.128617 20.0116 0)
(0.124838 20.0089 0)
(0.121845 20.0069 0)
(0.119441 20.0055 0)
(0.117482 20.0044 0)
(0.115866 20.0036 0)
(0.114516 20.0031 0)
(0.113374 20.0026 0)
(0.112401 20.0023 0)
(0.111562 20.002 0)
(0.110835 20.0018 0)
(0.110199 20.0016 0)
(0.109641 20.0014 0)
(0.109148 20.0013 0)
(0.108711 20.0012 0)
(0.108322 20.0011 0)
(0.107974 20.001 0)
(0.107662 20.0009 0)
(0.107381 20.0009 0)
(0.107129 20.0008 0)
(0.1069 20.0008 0)
(0.106694 20.0007 0)
(0.106508 20.0007 0)
(0.106338 20.0006 0)
(0.106185 20.0006 0)
(0.106046 20.0006 0)
(0.105919 20.0006 0)
(0.105804 20.0005 0)
(0.1057 20.0005 0)
(0.105606 20.0005 0)
(0.10552 20.0005 0)
(0.105443 20.0005 0)
(0.105373 20.0004 0)
(0.10531 20.0004 0)
(0.105254 20.0004 0)
(0.105204 20.0004 0)
(0.105159 20.0004 0)
(0.105119 20.0004 0)
(0.105084 20.0004 0)
(0.105054 20.0003 0)
(0.105027 20.0003 0)
(0.105004 20.0003 0)
(0.104985 20.0003 0)
(0.104968 20.0003 0)
(0.104956 20.0003 0)
(0.104946 20.0003 0)
(0.104938 20.0003 0)
(0.104934 20.0003 0)
(0.104931 20.0003 0)
(0.104931 20.0003 0)
(0.104933 20.0003 0)
(0.104938 20.0003 0)
(0.104944 20.0003 0)
(0.104951 20.0003 0)
(0.104961 20.0003 0)
(0.104972 20.0003 0)
(0.104984 20.0002 0)
(0.104998 20.0002 0)
(0.105013 20.0002 0)
(0.105029 20.0002 0)
(0.105047 20.0002 0)
(0.105065 20.0002 0)
(0.105084 20.0002 0)
(0.105103 20.0002 0)
(0.105124 20.0002 0)
(0.105144 20.0002 0)
(0.105164 20.0002 0)
(0.105184 20.0002 0)
(0.105204 20.0002 0)
(0.105223 20.0002 0)
(0.105242 20.0002 0)
(0.105259 20.0003 0)
(0.105276 20.0003 0)
(0.105292 20.0003 0)
(0.105308 20.0003 0)
(0.105323 20.0003 0)
(0.105337 20.0003 0)
(0.105351 20.0003 0)
(0.105364 20.0003 0)
(0.105377 20.0003 0)
(0.10539 20.0003 0)
(0.105403 20.0003 0)
(0.105415 20.0003 0)
(0.105428 20.0003 0)
(0.10544 20.0003 0)
(0.105452 20.0003 0)
(0.105464 20.0003 0)
(0.105476 20.0003 0)
(0.105488 20.0003 0)
(0.105499 20.0003 0)
(0.105511 20.0003 0)
(0.105523 20.0003 0)
(0.105535 20.0003 0)
(0.105547 20.0003 0)
(0.105559 20.0003 0)
(0.105571 20.0003 0)
(0.105583 20.0003 0)
(0.105596 20.0003 0)
(0.105608 20.0003 0)
(0.105621 20.0003 0)
(0.105634 20.0003 0)
(0.105647 20.0003 0)
(0.10566 20.0003 0)
(0.105673 20.0003 0)
(0.105686 20.0003 0)
(0.1057 20.0003 0)
(0.105713 20.0003 0)
(0.105727 20.0003 0)
(0.10574 20.0003 0)
(0.105753 20.0003 0)
(0.105766 20.0003 0)
(0.105778 20.0003 0)
(0.10579 20.0003 0)
(0.105802 20.0003 0)
(0.105814 20.0003 0)
(0.105825 20.0003 0)
(0.105836 20.0003 0)
(0.105847 20.0003 0)
(0.105857 20.0003 0)
(0.105868 20.0003 0)
(0.105878 20.0003 0)
(0.105888 20.0003 0)
(0.105898 20.0003 0)
(0.105908 20.0003 0)
(0.105918 20.0003 0)
(0.105927 20.0003 0)
(0.105937 20.0003 0)
(0.105947 20.0003 0)
(0.105957 20.0003 0)
(0.105966 20.0003 0)
(0.105976 20.0003 0)
(0.105986 20.0003 0)
(0.105995 20.0003 0)
(0.106005 20.0003 0)
(0.106015 20.0003 0)
(0.106025 20.0003 0)
(0.106035 20.0003 0)
(0.106045 20.0003 0)
(0.106055 20.0003 0)
(0.106065 20.0003 0)
(0.106076 20.0003 0)
(0.106086 20.0003 0)
(0.106096 20.0003 0)
(0.106106 20.0003 0)
(0.106116 20.0003 0)
(0.106126 20.0003 0)
(0.106136 20.0003 0)
(0.106146 20.0003 0)
(0.106156 20.0003 0)
(0.106166 20.0003 0)
(0.106176 20.0003 0)
(0.106186 20.0003 0)
(0.106195 20.0003 0)
(0.106205 20.0003 0)
(0.106214 20.0003 0)
(0.106224 20.0003 0)
(0.106233 20.0003 0)
(0.106243 20.0003 0)
(0.106252 20.0003 0)
(0.106261 20.0003 0)
(0.106271 20.0003 0)
(0.10628 20.0003 0)
(0.106289 20.0003 0)
(0.106298 20.0003 0)
(0.106308 20.0003 0)
(0.106317 20.0003 0)
(0.106326 20.0003 0)
(0.106335 20.0003 0)
(0.106345 20.0003 0)
(0.106354 20.0003 0)
(0.106363 20.0003 0)
(0.106372 20.0003 0)
(0.106381 20.0003 0)
(0.106391 20.0003 0)
(0.1064 20.0003 0)
(0.106409 20.0003 0)
(0.106418 20.0003 0)
(0.106427 20.0003 0)
(0.106435 20.0003 0)
(0.106444 20.0003 0)
(0.106453 20.0003 0)
(0.106462 20.0003 0)
(0.10647 20.0003 0)
(0.106479 20.0003 0)
(0.106487 20.0003 0)
(0.106496 20.0003 0)
(0.106504 20.0003 0)
(0.106513 20.0003 0)
(0.106521 20.0003 0)
(0.10653 20.0003 0)
(0.106538 20.0003 0)
(0.106547 20.0003 0)
(0.106555 20.0003 0)
(0.106564 20.0003 0)
(0.106572 20.0003 0)
(0.106581 20.0003 0)
(0.106589 20.0003 0)
(0.106598 20.0003 0)
(0.106607 20.0003 0)
(0.106615 20.0003 0)
(0.106624 20.0003 0)
(0.106632 20.0003 0)
(0.106641 20.0003 0)
(0.106649 20.0003 0)
(0.106657 20.0003 0)
(0.106666 20.0003 0)
(0.106674 20.0003 0)
(0.106682 20.0003 0)
(0.106691 20.0003 0)
(0.106699 20.0003 0)
(0.106707 20.0003 0)
(0.106715 20.0003 0)
(0.106723 20.0003 0)
(0.106731 20.0003 0)
(0.106738 20.0003 0)
(0.106746 20.0003 0)
(0.106754 20.0003 0)
(0.106762 20.0003 0)
(0.106769 20.0003 0)
(0.106777 20.0003 0)
(0.106784 20.0003 0)
(0.106792 20.0003 0)
(0.106799 20.0003 0)
(0.106807 20.0003 0)
(0.106814 20.0003 0)
(0.106822 20.0003 0)
(0.106829 20.0003 0)
(0.106837 20.0003 0)
(0.106844 20.0003 0)
(0.106851 20.0003 0)
(0.106859 20.0003 0)
(0.106866 20.0003 0)
(0.106873 20.0003 0)
(0.10688 20.0003 0)
(0.106888 20.0003 0)
(0.106895 20.0003 0)
(0.106902 20.0003 0)
(0.106909 20.0003 0)
(0.106916 20.0003 0)
(0.106923 20.0003 0)
(0.10693 20.0003 0)
(0.106937 20.0003 0)
(0.106944 20.0003 0)
(0.106951 20.0003 0)
(0.106957 20.0003 0)
(0.106964 20.0003 0)
(0.106971 20.0003 0)
(0.106978 20.0003 0)
(0.106985 20.0003 0)
(0.106991 20.0003 0)
(0.106998 20.0003 0)
(0.107005 20.0003 0)
(0.107011 20.0003 0)
(0.107018 20.0003 0)
(0.107024 20.0003 0)
(0.107031 20.0003 0)
(0.107037 20.0003 0)
(0.107044 20.0003 0)
(0.10705 20.0003 0)
(0.107056 20.0003 0)
(0.107063 20.0003 0)
(0.107069 20.0003 0)
(0.107075 20.0003 0)
(0.107081 20.0003 0)
(0.107087 20.0003 0)
(0.107093 20.0003 0)
(0.107099 20.0003 0)
(0.107105 20.0003 0)
(0.107111 20.0003 0)
(0.107117 20.0003 0)
(0.107123 20.0003 0)
(0.107129 20.0003 0)
(0.107135 20.0003 0)
(0.107141 20.0003 0)
(0.107146 20.0003 0)
(0.107152 20.0003 0)
(0.107158 20.0003 0)
(0.107163 20.0003 0)
(0.107169 20.0003 0)
(0.107174 20.0003 0)
(0.10718 20.0003 0)
(0.107185 20.0003 0)
(0.107191 20.0003 0)
(0.107196 20.0003 0)
(0.107201 20.0003 0)
(0.107206 20.0003 0)
(0.107212 20.0003 0)
(0.107217 20.0003 0)
(0.107222 20.0003 0)
(0.107227 20.0003 0)
(0.107232 20.0003 0)
(0.107237 20.0003 0)
(0.107242 20.0003 0)
(0.107247 20.0003 0)
(0.107252 20.0003 0)
(0.107257 20.0003 0)
(0.107261 20.0003 0)
(0.107266 20.0003 0)
(0.107271 20.0003 0)
(0.107275 20.0003 0)
(0.10728 20.0003 0)
(0.107284 20.0003 0)
(0.107289 20.0003 0)
(0.107293 20.0003 0)
(0.107298 20.0003 0)
(0.107302 20.0003 0)
(0.107306 20.0003 0)
(0.10731 20.0003 0)
(0.107315 20.0003 0)
(0.107319 20.0003 0)
(0.107323 20.0003 0)
(0.107327 20.0003 0)
(0.107331 20.0003 0)
(0.107335 20.0003 0)
(0.107339 20.0003 0)
(0.107343 20.0003 0)
(0.107346 20.0003 0)
(0.10735 20.0003 0)
(0.107354 20.0003 0)
(0.107357 20.0003 0)
(0.107361 20.0003 0)
(0.107365 20.0003 0)
(0.107368 20.0003 0)
(0.107372 20.0003 0)
(0.107375 20.0003 0)
(0.107378 20.0003 0)
(0.107382 20.0003 0)
(0.107385 20.0003 0)
(0.107388 20.0003 0)
(0.107391 20.0003 0)
(0.107395 20.0003 0)
(0.107398 20.0003 0)
(0.107401 20.0003 0)
(0.107404 20.0003 0)
(0.107407 20.0003 0)
(0.107409 20.0003 0)
(0.107412 20.0003 0)
(0.107415 20.0003 0)
(0.107418 20.0003 0)
(0.10742 20.0003 0)
(0.107423 20.0003 0)
(0.107426 20.0003 0)
(0.107428 20.0003 0)
(0.107431 20.0003 0)
(0.107433 20.0003 0)
(0.107435 20.0003 0)
(0.107438 20.0003 0)
(0.10744 20.0003 0)
(0.107442 20.0003 0)
(0.107444 20.0003 0)
(0.107447 20.0003 0)
(0.107449 20.0003 0)
(0.107451 20.0003 0)
(0.107453 20.0003 0)
(0.107455 20.0003 0)
(0.107457 20.0003 0)
(0.107458 20.0003 0)
(0.10746 20.0003 0)
(0.107462 20.0003 0)
(0.107464 20.0003 0)
(0.107465 20.0003 0)
(0.107467 20.0003 0)
(0.107468 20.0003 0)
(0.10747 20.0003 0)
(0.107471 20.0003 0)
(0.107473 20.0003 0)
(0.107474 20.0003 0)
(0.107475 20.0003 0)
(0.107476 20.0003 0)
(0.107478 20.0003 0)
(0.107479 20.0003 0)
(0.10748 20.0003 0)
(0.107481 20.0003 0)
(0.107482 20.0003 0)
(0.107483 20.0003 0)
(0.107484 20.0003 0)
(0.107484 20.0003 0)
(0.107485 20.0003 0)
(0.107486 20.0003 0)
(0.107487 20.0003 0)
(0.107487 20.0003 0)
(0.107488 20.0003 0)
(0.107488 20.0003 0)
(0.107489 20.0003 0)
(0.107489 20.0003 0)
(0.10749 20.0003 0)
(0.10749 20.0003 0)
(0.10749 20.0003 0)
(0.10749 20.0003 0)
(0.10749 20.0003 0)
(0.107491 20.0003 0)
(0.107491 20.0003 0)
(0.107491 20.0003 0)
(0.107491 20.0003 0)
(0.10749 20.0003 0)
(0.10749 20.0003 0)
(0.10749 20.0003 0)
(0.10749 20.0003 0)
(0.107489 20.0003 0)
(0.107489 20.0003 0)
(0.107489 20.0003 0)
(0.107488 20.0003 0)
(0.107488 20.0003 0)
(0.107487 20.0003 0)
(0.107487 20.0003 0)
(0.107486 20.0003 0)
(0.107485 20.0003 0)
(0.107484 20.0003 0)
(0.107484 20.0003 0)
(0.107483 20.0003 0)
(0.107482 20.0003 0)
(0.107481 20.0003 0)
(0.10748 20.0003 0)
(0.107479 20.0003 0)
(0.107477 20.0003 0)
(0.107476 20.0003 0)
(0.107475 20.0003 0)
(0.107474 20.0003 0)
(0.107472 20.0003 0)
(0.107471 20.0003 0)
(0.10747 20.0003 0)
(0.107468 20.0003 0)
(0.107466 20.0003 0)
(0.107465 20.0003 0)
(0.107463 20.0003 0)
(0.107461 20.0003 0)
(0.10746 20.0003 0)
(0.107458 20.0003 0)
(0.107456 20.0003 0)
(0.107454 20.0003 0)
(0.107452 20.0003 0)
(0.10745 20.0003 0)
(0.107448 20.0003 0)
(0.107446 20.0003 0)
(0.107444 20.0003 0)
(0.107441 20.0003 0)
(0.107439 20.0003 0)
(0.107437 20.0003 0)
(0.107434 20.0003 0)
(0.107432 20.0003 0)
(0.10743 20.0003 0)
(0.107427 20.0003 0)
(0.107424 20.0003 0)
(0.107422 20.0003 0)
(0.107419 20.0003 0)
(0.107416 20.0003 0)
(0.107413 20.0003 0)
(0.107411 20.0003 0)
(0.107408 20.0003 0)
(0.107405 20.0003 0)
(0.107402 20.0003 0)
(0.107399 20.0003 0)
(0.107396 20.0003 0)
(0.107392 20.0003 0)
(0.107389 20.0003 0)
(0.107386 20.0003 0)
(0.107383 20.0003 0)
(0.107379 20.0003 0)
(0.107376 20.0003 0)
(0.107372 20.0003 0)
(0.107369 20.0003 0)
(0.107365 20.0003 0)
(0.107361 20.0003 0)
(0.107358 20.0003 0)
(0.107354 20.0003 0)
(0.10735 20.0003 0)
(0.107346 20.0003 0)
(0.107342 20.0003 0)
(0.107338 20.0003 0)
(0.107334 20.0003 0)
(0.10733 20.0003 0)
(0.107326 20.0003 0)
(0.107322 20.0003 0)
(0.107318 20.0003 0)
(0.107314 20.0003 0)
(0.107309 20.0003 0)
(0.107305 20.0003 0)
(0.107301 20.0003 0)
(0.107296 20.0003 0)
(0.107292 20.0003 0)
(0.107287 20.0003 0)
(0.107282 20.0003 0)
(0.107278 20.0003 0)
(0.107273 20.0003 0)
(0.107268 20.0003 0)
(0.107263 20.0003 0)
(0.107258 20.0003 0)
(0.107253 20.0003 0)
(0.107248 20.0003 0)
(0.107243 20.0003 0)
(0.107238 20.0003 0)
(0.107233 20.0003 0)
(0.107228 20.0003 0)
(0.107223 20.0003 0)
(0.107217 20.0003 0)
(0.107212 20.0003 0)
(0.107207 20.0003 0)
(0.107201 20.0003 0)
(0.107196 20.0003 0)
(0.10719 20.0003 0)
(0.107184 20.0003 0)
(0.107179 20.0003 0)
(0.107173 20.0003 0)
(0.107167 20.0003 0)
(0.107162 20.0003 0)
(0.107156 20.0003 0)
(0.10715 20.0003 0)
(0.107144 20.0003 0)
(0.107138 20.0003 0)
(0.107132 20.0003 0)
(0.107126 20.0003 0)
(0.107119 20.0003 0)
(0.107113 20.0003 0)
(0.107107 20.0003 0)
(0.107101 20.0003 0)
(0.107094 20.0003 0)
(0.107088 20.0003 0)
(0.107081 20.0003 0)
(0.107075 20.0003 0)
(0.107068 20.0003 0)
(0.107062 20.0003 0)
(0.107055 20.0003 0)
(0.107048 20.0003 0)
(0.107041 20.0003 0)
(0.107035 20.0003 0)
(0.107028 20.0003 0)
(0.107021 20.0003 0)
(0.107014 20.0003 0)
(0.107007 20.0003 0)
(0.107 20.0003 0)
(0.106992 20.0003 0)
(0.106985 20.0003 0)
(0.106978 20.0003 0)
(0.106971 20.0003 0)
(0.106963 20.0003 0)
(0.106956 20.0003 0)
(0.106949 20.0003 0)
(0.106941 20.0003 0)
(0.106934 20.0003 0)
(0.106926 20.0003 0)
(0.106918 20.0003 0)
(0.106911 20.0003 0)
(0.106903 20.0003 0)
(0.106895 20.0003 0)
(0.106887 20.0003 0)
(0.106879 20.0003 0)
(0.106872 20.0003 0)
(0.106864 20.0003 0)
(0.106856 20.0003 0)
(0.106847 20.0003 0)
(0.106839 20.0003 0)
(0.106831 20.0003 0)
(0.106823 20.0003 0)
(0.106815 20.0003 0)
(0.106806 20.0003 0)
(0.106798 20.0003 0)
(0.106789 20.0003 0)
(0.106781 20.0003 0)
(0.106773 20.0003 0)
(0.106764 20.0003 0)
(0.106755 20.0003 0)
(0.106747 20.0003 0)
(0.106738 20.0003 0)
(0.106729 20.0003 0)
(0.10672 20.0003 0)
(0.106712 20.0003 0)
(0.106703 20.0003 0)
(0.106694 20.0003 0)
(0.106685 20.0003 0)
(0.106676 20.0003 0)
(0.106666 20.0003 0)
(0.106657 20.0003 0)
(0.106648 20.0003 0)
(0.106639 20.0003 0)
(0.10663 20.0003 0)
(0.10662 20.0003 0)
(0.106611 20.0003 0)
(0.106601 20.0003 0)
(0.106592 20.0003 0)
(0.106582 20.0003 0)
(0.106573 20.0003 0)
(0.106563 20.0003 0)
(0.106554 20.0003 0)
(0.106544 20.0003 0)
(0.106534 20.0003 0)
(0.106524 20.0003 0)
(0.106514 20.0003 0)
(0.106505 20.0003 0)
(0.106495 20.0003 0)
(0.106485 20.0003 0)
(0.106475 20.0003 0)
(0.106464 20.0003 0)
(0.106454 20.0003 0)
(0.106444 20.0003 0)
(0.106434 20.0003 0)
(0.106424 20.0003 0)
(0.106413 20.0003 0)
(0.106403 20.0003 0)
(0.106392 20.0003 0)
(0.106382 20.0003 0)
(0.106372 20.0003 0)
(0.106361 20.0003 0)
(0.10635 20.0003 0)
(0.10634 20.0003 0)
(0.106329 20.0003 0)
(0.106318 20.0003 0)
(0.106308 20.0003 0)
(0.106297 20.0003 0)
(0.106286 20.0003 0)
(0.106275 20.0003 0)
(0.106264 20.0003 0)
(0.106253 20.0003 0)
(0.106242 20.0003 0)
(0.106231 20.0003 0)
(0.10622 20.0003 0)
(0.106208 20.0003 0)
(0.106197 20.0003 0)
(0.106186 20.0003 0)
(0.106175 20.0003 0)
(0.106163 20.0003 0)
(0.106152 20.0003 0)
(0.10614 20.0003 0)
(0.106129 20.0003 0)
(0.106117 20.0003 0)
(0.106106 20.0003 0)
(0.106094 20.0003 0)
(0.106082 20.0003 0)
(0.106071 20.0003 0)
(0.106059 20.0003 0)
(0.106047 20.0003 0)
(0.106035 20.0003 0)
(0.106023 20.0003 0)
(0.106012 20.0003 0)
(0.106 20.0003 0)
(0.105988 20.0003 0)
(0.105975 20.0003 0)
(0.105963 20.0003 0)
(0.105951 20.0003 0)
(0.105939 20.0003 0)
(0.105927 20.0003 0)
(0.105915 20.0003 0)
(0.105902 20.0003 0)
(0.10589 20.0003 0)
(0.105877 20.0003 0)
(0.105865 20.0003 0)
(0.105853 20.0003 0)
(0.10584 20.0003 0)
(0.105827 20.0003 0)
(0.105815 20.0003 0)
(0.105802 20.0003 0)
(0.105789 20.0003 0)
(0.105777 20.0003 0)
(0.105764 20.0003 0)
(0.105751 20.0003 0)
(0.105738 20.0003 0)
(0.105725 20.0003 0)
(0.105712 20.0003 0)
(0.105699 20.0003 0)
(0.105686 20.0003 0)
(0.105673 20.0003 0)
(0.10566 20.0003 0)
(0.105647 20.0003 0)
(0.105634 20.0003 0)
(0.105621 20.0003 0)
(0.105607 20.0003 0)
(0.105594 20.0003 0)
(0.105581 20.0003 0)
(0.105567 20.0003 0)
(0.105554 20.0003 0)
(0.105541 20.0003 0)
(0.105527 20.0003 0)
(0.105514 20.0003 0)
(0.1055 20.0003 0)
(0.105486 20.0003 0)
(0.105473 20.0003 0)
(0.105459 20.0003 0)
(0.105445 20.0003 0)
(0.105431 20.0003 0)
(0.105418 20.0003 0)
(0.105404 20.0003 0)
(0.10539 20.0003 0)
(0.105376 20.0003 0)
(0.105362 20.0003 0)
(0.105348 20.0003 0)
(0.105334 20.0003 0)
(0.10532 20.0003 0)
(0.105306 20.0003 0)
(0.105292 20.0003 0)
(0.105277 20.0003 0)
(0.105263 20.0003 0)
(0.105249 20.0003 0)
(0.105235 20.0003 0)
(0.10522 20.0003 0)
(0.105206 20.0003 0)
(0.105191 20.0003 0)
(0.105177 20.0003 0)
(0.105162 20.0003 0)
(0.105148 20.0003 0)
(0.105133 20.0003 0)
(0.105119 20.0003 0)
(0.105104 20.0003 0)
(0.105089 20.0003 0)
(0.105075 20.0003 0)
(0.10506 20.0003 0)
(0.105045 20.0003 0)
(0.10503 20.0003 0)
(0.105016 20.0003 0)
(0.105001 20.0003 0)
(0.104986 20.0003 0)
(0.104971 20.0003 0)
(0.104956 20.0003 0)
(0.104941 20.0003 0)
(0.104926 20.0003 0)
(0.104911 20.0003 0)
(0.104895 20.0003 0)
(0.10488 20.0003 0)
(0.104865 20.0003 0)
(0.10485 20.0003 0)
(0.104835 20.0003 0)
(0.104819 20.0003 0)
(0.104804 20.0003 0)
(0.104789 20.0003 0)
(0.104773 20.0003 0)
(0.104758 20.0003 0)
(0.104742 20.0003 0)
(0.104727 20.0003 0)
(0.104711 20.0003 0)
(0.104696 20.0003 0)
(0.10468 20.0003 0)
(0.104664 20.0003 0)
(0.104649 20.0003 0)
(0.104633 20.0003 0)
(0.104617 20.0003 0)
(0.104601 20.0003 0)
(0.104586 20.0003 0)
(0.10457 20.0003 0)
(0.104554 20.0003 0)
(0.104538 20.0003 0)
(0.104522 20.0003 0)
(0.104506 20.0003 0)
(0.10449 20.0003 0)
(0.104474 20.0003 0)
(0.104458 20.0003 0)
(0.104442 20.0003 0)
(0.104426 20.0003 0)
(0.10441 20.0003 0)
(0.104393 20.0003 0)
(0.104377 20.0003 0)
(0.104361 20.0003 0)
(0.104345 20.0003 0)
(0.104328 20.0003 0)
(0.104312 20.0003 0)
(0.104296 20.0003 0)
(0.104279 20.0003 0)
(0.104263 20.0003 0)
(0.104246 20.0003 0)
(0.10423 20.0003 0)
(0.104213 20.0003 0)
(0.104197 20.0003 0)
(0.10418 20.0003 0)
(0.104164 20.0003 0)
(0.104147 20.0003 0)
(0.10413 20.0003 0)
(0.104114 20.0003 0)
(0.104097 20.0003 0)
(0.10408 20.0003 0)
(0.104064 20.0003 0)
(0.104047 20.0003 0)
(0.10403 20.0003 0)
(0.104013 20.0003 0)
(0.103996 20.0003 0)
(0.103979 20.0003 0)
(0.103962 20.0003 0)
(0.103945 20.0003 0)
(0.103928 20.0003 0)
(0.103911 20.0003 0)
(0.103894 20.0003 0)
(0.103877 20.0003 0)
(0.10386 20.0003 0)
(0.103843 20.0003 0)
(0.103826 20.0003 0)
(0.103809 20.0003 0)
(0.103791 20.0003 0)
(0.103774 20.0003 0)
(0.103757 20.0003 0)
(0.10374 20.0003 0)
(0.103722 20.0003 0)
(0.103705 20.0003 0)
(0.103688 20.0003 0)
(0.10367 20.0003 0)
(0.103653 20.0003 0)
(0.103635 20.0003 0)
(0.103618 20.0003 0)
(0.1036 20.0003 0)
(0.103583 20.0003 0)
(0.103565 20.0003 0)
(0.103548 20.0003 0)
(0.10353 20.0003 0)
(0.103512 20.0003 0)
(0.103495 20.0003 0)
(0.103477 20.0003 0)
(0.103459 20.0003 0)
(0.103442 20.0003 0)
(0.103424 20.0003 0)
(0.103406 20.0003 0)
(0.103388 20.0003 0)
(0.103371 20.0003 0)
(0.103353 20.0003 0)
(0.103335 20.0003 0)
(0.103317 20.0003 0)
(0.103299 20.0003 0)
(0.103281 20.0003 0)
(0.103263 20.0003 0)
(0.103245 20.0003 0)
(0.103227 20.0003 0)
(0.103209 20.0003 0)
(0.103191 20.0003 0)
(0.103173 20.0003 0)
(0.103155 20.0003 0)
(0.103137 20.0003 0)
(0.103119 20.0003 0)
(0.103101 20.0003 0)
(0.103083 20.0003 0)
(0.103065 20.0003 0)
(0.103046 20.0003 0)
(0.103028 20.0003 0)
(0.10301 20.0003 0)
(0.102992 20.0003 0)
(0.102973 20.0003 0)
(0.102955 20.0003 0)
(0.102937 20.0003 0)
(0.102918 20.0003 0)
(0.1029 20.0003 0)
(0.102882 20.0003 0)
(0.102863 20.0003 0)
(0.102845 20.0003 0)
(0.102826 20.0003 0)
(0.102808 20.0003 0)
(0.102789 20.0003 0)
(0.102771 20.0003 0)
(0.102752 20.0003 0)
(0.102734 20.0003 0)
(0.102715 20.0003 0)
(0.102697 20.0003 0)
(0.102678 20.0003 0)
(0.10266 20.0003 0)
(0.102641 20.0003 0)
(0.102622 20.0003 0)
(0.102604 20.0003 0)
(0.102585 20.0003 0)
(0.102566 20.0003 0)
(0.102548 20.0003 0)
(0.102529 20.0003 0)
(0.10251 20.0003 0)
(0.102491 20.0003 0)
(0.102473 20.0003 0)
(0.102454 20.0003 0)
(0.102435 20.0003 0)
(0.102416 20.0003 0)
(0.102397 20.0003 0)
(0.102379 20.0003 0)
(0.10236 20.0003 0)
(0.102341 20.0003 0)
(0.102322 20.0003 0)
(0.102303 20.0003 0)
(0.102284 20.0003 0)
(0.102265 20.0003 0)
(0.102246 20.0003 0)
(0.102227 20.0003 0)
(0.102208 20.0003 0)
(0.102189 20.0003 0)
(0.10217 20.0003 0)
(0.102151 20.0003 0)
(0.102132 20.0003 0)
(0.102113 20.0003 0)
(0.102094 20.0003 0)
(0.102075 20.0003 0)
(0.102056 20.0003 0)
(0.102037 20.0003 0)
(0.102017 20.0003 0)
(0.101998 20.0003 0)
(0.101979 20.0003 0)
(0.10196 20.0003 0)
(0.101941 20.0003 0)
(0.101922 20.0003 0)
(0.101902 20.0003 0)
(0.101883 20.0003 0)
(0.101864 20.0003 0)
(0.101845 20.0003 0)
(0.101825 20.0003 0)
(0.101806 20.0003 0)
(0.101787 20.0003 0)
(0.101768 20.0003 0)
(0.101748 20.0003 0)
(0.101729 20.0003 0)
(0.10171 20.0003 0)
(0.10169 20.0003 0)
(0.101671 20.0003 0)
(0.101652 20.0003 0)
(0.101632 20.0003 0)
(0.101613 20.0003 0)
(0.101594 20.0003 0)
(0.101574 20.0003 0)
(0.101555 20.0003 0)
(0.101535 20.0003 0)
(0.101516 20.0003 0)
(0.101496 20.0003 0)
(0.101477 20.0003 0)
(0.101458 20.0003 0)
(0.101438 20.0003 0)
(0.101419 20.0003 0)
(0.101399 20.0003 0)
(0.10138 20.0003 0)
(0.10136 20.0003 0)
(0.101341 20.0003 0)
(0.101321 20.0003 0)
(0.101302 20.0003 0)
(0.101282 20.0003 0)
(0.101262 20.0003 0)
(0.101243 20.0003 0)
(0.101223 20.0003 0)
(0.101204 20.0003 0)
(0.101184 20.0003 0)
(0.101165 20.0003 0)
(0.101145 20.0003 0)
(0.101125 20.0003 0)
(0.101106 20.0003 0)
(0.101086 20.0003 0)
(0.101066 20.0003 0)
(0.101047 20.0003 0)
(0.101027 20.0003 0)
(0.101007 20.0003 0)
(0.100988 20.0003 0)
(0.100968 20.0003 0)
(0.100948 20.0003 0)
(0.100928 20.0003 0)
(0.100909 20.0003 0)
(0.100889 20.0003 0)
(0.100869 20.0003 0)
(0.100849 20.0003 0)
(0.10083 20.0003 0)
(0.10081 20.0003 0)
(0.10079 20.0003 0)
(0.10077 20.0003 0)
(0.10075 20.0003 0)
(0.10073 20.0003 0)
(0.10071 20.0003 0)
(0.10069 20.0003 0)
(0.10067 20.0003 0)
(0.10065 20.0003 0)
(0.10063 20.0003 0)
(0.10061 20.0003 0)
(0.10059 20.0003 0)
(0.10057 20.0003 0)
(0.10055 20.0003 0)
(0.100529 20.0003 0)
(0.100509 20.0003 0)
(0.100489 20.0003 0)
(0.100468 20.0003 0)
(0.100448 20.0003 0)
(0.100427 20.0003 0)
(0.100406 20.0003 0)
(0.100386 20.0003 0)
(0.100365 20.0003 0)
(0.100344 20.0003 0)
(0.100323 20.0003 0)
(0.100302 20.0003 0)
(0.10028 20.0003 0)
(0.100259 20.0003 0)
(0.100237 20.0003 0)
(0.100215 20.0003 0)
(0.100193 20.0003 0)
(0.10017 20.0003 0)
(0.100148 20.0003 0)
(0.100125 20.0003 0)
(0.100101 20.0003 0)
(0.100077 20.0003 0)
(0.100053 20.0003 0)
(0.100028 20.0003 0)
(0.100003 20.0003 0)
(0.0999763 20.0003 0)
(0.0999492 20.0003 0)
(0.099921 20.0004 0)
(0.0998916 20.0004 0)
(0.0998607 20.0004 0)
(0.0998281 20.0004 0)
(0.0997935 20.0004 0)
(0.0997564 20.0004 0)
(0.0997168 20.0004 0)
(0.0996745 20.0004 0)
(0.0996303 20.0004 0)
(0.099586 20.0004 0)
(0.0995456 20.0004 0)
(0.0995134 20.0004 0)
(0.179577 20.0261 0)
(0.193082 20.0283 0)
(0.209189 20.0418 0)
(0.220079 20.0445 0)
(0.225422 20.0403 0)
(0.226955 20.0339 0)
(0.226268 20.0276 0)
(0.224457 20.0222 0)
(0.222198 20.0178 0)
(0.219866 20.0145 0)
(0.217646 20.0119 0)
(0.215615 20.01 0)
(0.213792 20.0084 0)
(0.212169 20.0073 0)
(0.210727 20.0063 0)
(0.209445 20.0056 0)
(0.208301 20.005 0)
(0.207277 20.0045 0)
(0.206357 20.004 0)
(0.205526 20.0037 0)
(0.204774 20.0034 0)
(0.204089 20.0031 0)
(0.203464 20.0029 0)
(0.202891 20.0027 0)
(0.202364 20.0025 0)
(0.201878 20.0024 0)
(0.201429 20.0022 0)
(0.201012 20.0021 0)
(0.200625 20.002 0)
(0.200263 20.0019 0)
(0.199925 20.0018 0)
(0.199609 20.0017 0)
(0.199312 20.0017 0)
(0.199033 20.0016 0)
(0.198769 20.0015 0)
(0.19852 20.0015 0)
(0.198285 20.0014 0)
(0.198063 20.0014 0)
(0.197851 20.0013 0)
(0.197651 20.0013 0)
(0.19746 20.0012 0)
(0.197277 20.0012 0)
(0.197104 20.0012 0)
(0.196937 20.0011 0)
(0.196778 20.0011 0)
(0.196626 20.0011 0)
(0.196479 20.0011 0)
(0.196339 20.001 0)
(0.196203 20.001 0)
(0.196073 20.001 0)
(0.195948 20.001 0)
(0.195827 20.001 0)
(0.19571 20.0009 0)
(0.195597 20.0009 0)
(0.195488 20.0009 0)
(0.195382 20.0009 0)
(0.19528 20.0009 0)
(0.19518 20.0009 0)
(0.195083 20.0009 0)
(0.194989 20.0008 0)
(0.194897 20.0008 0)
(0.194808 20.0008 0)
(0.19472 20.0008 0)
(0.194635 20.0008 0)
(0.194551 20.0008 0)
(0.194469 20.0008 0)
(0.194388 20.0008 0)
(0.194308 20.0008 0)
(0.19423 20.0008 0)
(0.194153 20.0008 0)
(0.194077 20.0008 0)
(0.194001 20.0008 0)
(0.193927 20.0008 0)
(0.193852 20.0008 0)
(0.193778 20.0008 0)
(0.193703 20.0008 0)
(0.193629 20.0008 0)
(0.193554 20.0008 0)
(0.193479 20.0008 0)
(0.193403 20.0008 0)
(0.193327 20.0009 0)
(0.19325 20.0009 0)
(0.193172 20.0009 0)
(0.193095 20.0009 0)
(0.193016 20.0009 0)
(0.192938 20.0009 0)
(0.192859 20.0009 0)
(0.192779 20.0009 0)
(0.1927 20.0009 0)
(0.19262 20.0009 0)
(0.192541 20.0009 0)
(0.192461 20.0009 0)
(0.192381 20.0009 0)
(0.192301 20.0009 0)
(0.192221 20.0009 0)
(0.192141 20.0009 0)
(0.192061 20.0009 0)
(0.191981 20.0009 0)
(0.191901 20.0009 0)
(0.191822 20.0009 0)
(0.191742 20.0009 0)
(0.191663 20.0009 0)
(0.191583 20.0009 0)
(0.191504 20.0009 0)
(0.191425 20.0009 0)
(0.191346 20.0009 0)
(0.191267 20.0009 0)
(0.191189 20.0009 0)
(0.191111 20.0009 0)
(0.191033 20.0009 0)
(0.190955 20.0009 0)
(0.190877 20.0009 0)
(0.1908 20.0009 0)
(0.190722 20.0009 0)
(0.190645 20.0009 0)
(0.190567 20.0009 0)
(0.19049 20.0009 0)
(0.190412 20.0009 0)
(0.190333 20.0009 0)
(0.190255 20.0009 0)
(0.190176 20.0009 0)
(0.190097 20.0009 0)
(0.190017 20.0009 0)
(0.189937 20.0009 0)
(0.189857 20.0009 0)
(0.189777 20.0009 0)
(0.189696 20.0009 0)
(0.189616 20.0009 0)
(0.189535 20.0009 0)
(0.189454 20.0009 0)
(0.189373 20.0009 0)
(0.189292 20.0009 0)
(0.189211 20.0009 0)
(0.18913 20.0009 0)
(0.189049 20.0009 0)
(0.188968 20.0009 0)
(0.188887 20.0009 0)
(0.188806 20.0009 0)
(0.188725 20.0009 0)
(0.188644 20.0009 0)
(0.188563 20.0009 0)
(0.188483 20.0009 0)
(0.188402 20.0009 0)
(0.188322 20.0009 0)
(0.188242 20.0009 0)
(0.188162 20.0009 0)
(0.188082 20.0009 0)
(0.188002 20.0009 0)
(0.187923 20.0009 0)
(0.187843 20.0009 0)
(0.187763 20.0009 0)
(0.187684 20.0009 0)
(0.187604 20.0009 0)
(0.187525 20.0009 0)
(0.187445 20.0009 0)
(0.187365 20.0009 0)
(0.187286 20.0009 0)
(0.187206 20.0009 0)
(0.187126 20.0009 0)
(0.187046 20.0009 0)
(0.186967 20.0009 0)
(0.186887 20.0009 0)
(0.186807 20.0009 0)
(0.186727 20.0009 0)
(0.186647 20.0009 0)
(0.186568 20.0009 0)
(0.186488 20.0009 0)
(0.186408 20.0009 0)
(0.186328 20.0009 0)
(0.186249 20.0009 0)
(0.186169 20.0009 0)
(0.186089 20.0009 0)
(0.18601 20.0009 0)
(0.18593 20.0009 0)
(0.185851 20.0009 0)
(0.185771 20.0009 0)
(0.185692 20.0009 0)
(0.185612 20.0009 0)
(0.185533 20.0009 0)
(0.185453 20.0009 0)
(0.185374 20.0009 0)
(0.185295 20.0009 0)
(0.185215 20.0009 0)
(0.185136 20.0009 0)
(0.185057 20.0009 0)
(0.184977 20.0009 0)
(0.184898 20.0009 0)
(0.184818 20.0009 0)
(0.184739 20.0009 0)
(0.184659 20.0009 0)
(0.18458 20.0009 0)
(0.1845 20.0009 0)
(0.184421 20.0009 0)
(0.184342 20.0009 0)
(0.184262 20.0009 0)
(0.184183 20.0009 0)
(0.184104 20.0009 0)
(0.184025 20.0009 0)
(0.183946 20.0009 0)
(0.183867 20.0009 0)
(0.183789 20.0009 0)
(0.18371 20.0009 0)
(0.183631 20.0009 0)
(0.183553 20.0009 0)
(0.183474 20.0009 0)
(0.183396 20.0009 0)
(0.183318 20.0009 0)
(0.183239 20.0009 0)
(0.183161 20.0009 0)
(0.183083 20.0009 0)
(0.183004 20.0009 0)
(0.182926 20.0009 0)
(0.182848 20.0009 0)
(0.18277 20.0009 0)
(0.182691 20.0009 0)
(0.182613 20.0009 0)
(0.182535 20.0009 0)
(0.182456 20.0009 0)
(0.182378 20.0009 0)
(0.1823 20.0009 0)
(0.182221 20.0009 0)
(0.182143 20.0009 0)
(0.182065 20.0009 0)
(0.181987 20.0009 0)
(0.181908 20.0009 0)
(0.18183 20.0009 0)
(0.181752 20.0009 0)
(0.181673 20.0009 0)
(0.181595 20.0009 0)
(0.181517 20.0009 0)
(0.181439 20.0009 0)
(0.181361 20.0009 0)
(0.181283 20.0009 0)
(0.181205 20.0009 0)
(0.181127 20.0009 0)
(0.181049 20.0009 0)
(0.180971 20.0009 0)
(0.180893 20.0009 0)
(0.180815 20.0009 0)
(0.180738 20.0009 0)
(0.18066 20.0009 0)
(0.180582 20.0009 0)
(0.180505 20.0009 0)
(0.180427 20.0009 0)
(0.180349 20.0009 0)
(0.180272 20.0009 0)
(0.180194 20.0009 0)
(0.180117 20.0009 0)
(0.180039 20.0009 0)
(0.179962 20.0009 0)
(0.179885 20.0009 0)
(0.179807 20.0009 0)
(0.17973 20.0009 0)
(0.179653 20.0009 0)
(0.179576 20.0009 0)
(0.179498 20.0009 0)
(0.179421 20.0009 0)
(0.179344 20.0009 0)
(0.179267 20.0009 0)
(0.17919 20.0009 0)
(0.179113 20.0009 0)
(0.179036 20.0009 0)
(0.178959 20.0009 0)
(0.178883 20.0009 0)
(0.178806 20.0009 0)
(0.178729 20.0009 0)
(0.178652 20.0009 0)
(0.178575 20.0009 0)
(0.178499 20.0009 0)
(0.178422 20.0009 0)
(0.178345 20.0009 0)
(0.178269 20.0009 0)
(0.178192 20.0009 0)
(0.178115 20.0009 0)
(0.178039 20.0009 0)
(0.177962 20.0009 0)
(0.177886 20.0009 0)
(0.177809 20.0009 0)
(0.177733 20.0009 0)
(0.177656 20.0009 0)
(0.17758 20.0009 0)
(0.177504 20.0009 0)
(0.177427 20.0009 0)
(0.177351 20.0009 0)
(0.177275 20.0009 0)
(0.177199 20.0009 0)
(0.177123 20.0009 0)
(0.177046 20.0009 0)
(0.17697 20.0009 0)
(0.176894 20.0009 0)
(0.176818 20.0009 0)
(0.176742 20.0009 0)
(0.176666 20.0009 0)
(0.17659 20.0009 0)
(0.176514 20.0009 0)
(0.176438 20.0009 0)
(0.176362 20.0009 0)
(0.176287 20.0009 0)
(0.176211 20.0009 0)
(0.176135 20.0009 0)
(0.176059 20.0009 0)
(0.175983 20.0009 0)
(0.175908 20.0009 0)
(0.175832 20.0009 0)
(0.175756 20.0009 0)
(0.175681 20.0009 0)
(0.175605 20.0009 0)
(0.175529 20.0009 0)
(0.175454 20.0009 0)
(0.175378 20.0009 0)
(0.175303 20.0009 0)
(0.175227 20.0009 0)
(0.175152 20.0009 0)
(0.175076 20.0009 0)
(0.175001 20.0009 0)
(0.174926 20.0009 0)
(0.17485 20.0009 0)
(0.174775 20.0009 0)
(0.1747 20.0009 0)
(0.174625 20.0009 0)
(0.174549 20.0009 0)
(0.174474 20.0009 0)
(0.174399 20.0009 0)
(0.174324 20.0009 0)
(0.174249 20.0009 0)
(0.174174 20.0009 0)
(0.174099 20.0009 0)
(0.174024 20.0009 0)
(0.173949 20.0009 0)
(0.173874 20.0009 0)
(0.173799 20.0009 0)
(0.173724 20.0009 0)
(0.173649 20.0009 0)
(0.173574 20.0009 0)
(0.173499 20.0009 0)
(0.173425 20.0009 0)
(0.17335 20.0009 0)
(0.173275 20.0009 0)
(0.1732 20.0009 0)
(0.173126 20.0009 0)
(0.173051 20.0009 0)
(0.172977 20.0009 0)
(0.172902 20.0009 0)
(0.172827 20.0009 0)
(0.172753 20.0009 0)
(0.172678 20.0009 0)
(0.172604 20.0009 0)
(0.17253 20.0009 0)
(0.172455 20.0009 0)
(0.172381 20.0009 0)
(0.172307 20.0009 0)
(0.172232 20.0009 0)
(0.172158 20.0009 0)
(0.172084 20.0009 0)
(0.17201 20.0009 0)
(0.171936 20.0009 0)
(0.171861 20.0009 0)
(0.171787 20.0009 0)
(0.171713 20.0009 0)
(0.171639 20.0009 0)
(0.171565 20.0009 0)
(0.171491 20.0009 0)
(0.171417 20.0009 0)
(0.171343 20.0009 0)
(0.17127 20.0009 0)
(0.171196 20.0009 0)
(0.171122 20.0009 0)
(0.171048 20.0009 0)
(0.170975 20.0009 0)
(0.170901 20.0009 0)
(0.170827 20.0009 0)
(0.170754 20.0009 0)
(0.17068 20.0009 0)
(0.170606 20.0009 0)
(0.170533 20.0009 0)
(0.170459 20.0009 0)
(0.170386 20.0009 0)
(0.170312 20.0009 0)
(0.170239 20.0009 0)
(0.170166 20.0009 0)
(0.170092 20.0009 0)
(0.170019 20.0009 0)
(0.169946 20.0009 0)
(0.169873 20.0009 0)
(0.169799 20.0009 0)
(0.169726 20.0009 0)
(0.169653 20.0009 0)
(0.16958 20.0009 0)
(0.169507 20.0009 0)
(0.169434 20.0009 0)
(0.169361 20.0009 0)
(0.169288 20.0009 0)
(0.169215 20.0009 0)