/*--------------------------------*- C++ -*----------------------------------*\
| =========                 |                                                 |
| \\      /  F ield         | OpenFOAM: The Open Source CFD Toolbox           |
|  \\    /   O peration     | Version:  2512                                  |
|   \\  /    A nd           | Website:  www.openfoam.com                      |
|    \\/     M anipulation  |                                                 |
\*---------------------------------------------------------------------------*/
FoamFile
{
    version     2.0;
    format      ascii;
    arch        "LSB;label=32;scalar=64";
    class       volScalarField;
    location    "0.002";
    object      k;
}
// * * * * * * * * * * * * * * * * * * * * * * * * * * * * * * * * * * * * * //

dimensions      [0 2 -2 0 0 0 0];

internalField   nonuniform List<scalar> 
100000
(
0.113626
0.0222361
0.0091835
0.00511887
0.00344684
0.00263883
0.00220346
0.00194998
0.00179205
0.00168736
0.00161412
0.00156061
0.0015202
0.00148893
0.00146434
0.00144479
0.00142918
0.00141669
0.00140675
0.00139889
0.00139279
0.00138816
0.00138479
0.00138251
0.00138118
0.00138067
0.00138088
0.00138174
0.00138316
0.00138511
0.0013875
0.00139032
0.0013935
0.00139702
0.00140085
0.00140498
0.00140937
0.00141401
0.00141888
0.00142398
0.00142928
0.00143476
0.00144041
0.00144622
0.00145219
0.00145829
0.00146451
0.00147086
0.00147732
0.00148388
0.00149055
0.00149733
0.00150419
0.00151115
0.0015182
0.00152533
0.00153254
0.00153982
0.00154718
0.00155461
0.00156211
0.00156968
0.0015773
0.00158499
0.00159274
0.00160054
0.00160839
0.00161629
0.00162424
0.00163223
0.00164025
0.00164829
0.00165635
0.00166441
0.00167246
0.00168051
0.00168854
0.00169655
0.00170455
0.00171254
0.00172052
0.00172849
0.00173647
0.00174445
0.00175244
0.00176043
0.00176843
0.00177645
0.00178447
0.00179251
0.00180056
0.00180862
0.00181669
0.00182478
0.00183289
0.00184101
0.00184914
0.0018573
0.00186547
0.00187365
0.00188186
0.00189008
0.00189832
0.00190658
0.00191487
0.00192317
0.00193149
0.00193984
0.0019482
0.00195658
0.00196499
0.00197341
0.00198184
0.00199028
0.00199873
0.00200718
0.00201563
0.00202409
0.00203254
0.00204099
0.00204945
0.00205791
0.00206637
0.00207484
0.00208331
0.00209179
0.00210028
0.00210878
0.00211728
0.0021258
0.00213432
0.00214286
0.0021514
0.00215996
0.00216852
0.0021771
0.00218569
0.00219429
0.00220291
0.00221153
0.00222017
0.00222882
0.00223749
0.00224616
0.00225485
0.00226355
0.00227226
0.00228098
0.00228971
0.00229845
0.00230719
0.00231594
0.0023247
0.00233346
0.00234222
0.002351
0.00235978
0.00236856
0.00237735
0.00238615
0.00239495
0.00240376
0.00241258
0.0024214
0.00243023
0.00243907
0.00244791
0.00245676
0.00246561
0.00247448
0.00248335
0.00249222
0.0025011
0.00250999
0.00251889
0.00252779
0.0025367
0.00254562
0.00255454
0.00256346
0.00257239
0.00258133
0.00259026
0.0025992
0.00260814
0.00261708
0.00262602
0.00263497
0.00264391
0.00265286
0.00266182
0.00267077
0.00267973
0.0026887
0.00269767
0.00270664
0.00271561
0.00272459
0.00273358
0.00274257
0.00275156
0.00276055
0.00276955
0.00277855
0.00278755
0.00279656
0.00280557
0.00281457
0.00282358
0.00283259
0.0028416
0.00285061
0.00285962
0.00286863
0.00287764
0.00288664
0.00289565
0.00290465
0.00291365
0.00292265
0.00293165
0.00294064
0.00294964
0.00295863
0.00296763
0.00297662
0.00298561
0.00299459
0.00300358
0.00301256
0.00302154
0.00303052
0.0030395
0.00304847
0.00305745
0.00306642
0.00307539
0.00308435
0.00309331
0.00310227
0.00311123
0.00312018
0.00312912
0.00313807
0.00314701
0.00315594
0.00316487
0.0031738
0.00318272
0.00319163
0.00320054
0.00320945
0.00321835
0.00322725
0.00323614
0.00324503
0.00325391
0.00326278
0.00327165
0.00328051
0.00328937
0.00329822
0.00330706
0.00331589
0.00332472
0.00333354
0.00334236
0.00335116
0.00335996
0.00336875
0.00337754
0.00338631
0.00339508
0.00340384
0.00341259
0.00342133
0.00343006
0.00343878
0.0034475
0.0034562
0.0034649
0.00347359
0.00348226
0.00349093
0.00349959
0.00350824
0.00351687
0.0035255
0.00353412
0.00354272
0.00355132
0.0035599
0.00356847
0.00357704
0.00358559
0.00359413
0.00360265
0.00361117
0.00361967
0.00362816
0.00363664
0.00364511
0.00365356
0.003662
0.00367043
0.00367885
0.00368725
0.00369564
0.00370402
0.00371238
0.00372073
0.00372906
0.00373739
0.00374569
0.00375399
0.00376226
0.00377053
0.00377878
0.00378701
0.00379523
0.00380344
0.00381163
0.0038198
0.00382796
0.00383611
0.00384424
0.00385235
0.00386045
0.00386853
0.00387659
0.00388464
0.00389267
0.00390069
0.00390868
0.00391667
0.00392463
0.00393258
0.00394051
0.00394842
0.00395632
0.00396419
0.00397205
0.00397989
0.00398772
0.00399552
0.00400331
0.00401108
0.00401883
0.00402656
0.00403428
0.00404197
0.00404965
0.0040573
0.00406494
0.00407256
0.00408015
0.00408773
0.00409529
0.00410283
0.00411035
0.00411784
0.00412532
0.00413278
0.00414022
0.00414763
0.00415503
0.0041624
0.00416976
0.00417709
0.0041844
0.00419169
0.00419896
0.0042062
0.00421343
0.00422063
0.00422781
0.00423497
0.00424211
0.00424922
0.00425632
0.00426338
0.00427043
0.00427746
0.00428446
0.00429144
0.00429839
0.00430532
0.00431223
0.00431912
0.00432598
0.00433282
0.00433963
0.00434642
0.00435319
0.00435993
0.00436665
0.00437334
0.00438001
0.00438665
0.00439327
0.00439987
0.00440644
0.00441298
0.0044195
0.004426
0.00443247
0.00443891
0.00444533
0.00445173
0.00445809
0.00446444
0.00447075
0.00447704
0.00448331
0.00448954
0.00449576
0.00450194
0.0045081
0.00451423
0.00452034
0.00452642
0.00453247
0.00453849
0.00454449
0.00455046
0.00455641
0.00456232
0.00456821
0.00457407
0.00457991
0.00458571
0.00459149
0.00459724
0.00460296
0.00460866
0.00461433
0.00461996
0.00462557
0.00463116
0.00463671
0.00464223
0.00464773
0.0046532
0.00465864
0.00466405
0.00466943
0.00467478
0.0046801
0.00468539
0.00469066
0.00469589
0.0047011
0.00470627
0.00471142
0.00471654
0.00472162
0.00472668
0.00473171
0.00473671
0.00474167
0.00474661
0.00475152
0.00475639
0.00476124
0.00476606
0.00477084
0.0047756
0.00478032
0.00478502
0.00478968
0.00479431
0.00479892
0.00480349
0.00480803
0.00481254
0.00481701
0.00482146
0.00482588
0.00483026
0.00483461
0.00483894
0.00484323
0.00484749
0.00485171
0.00485591
0.00486007
0.00486421
0.00486831
0.00487237
0.00487641
0.00488042
0.00488439
0.00488833
0.00489224
0.00489612
0.00489996
0.00490377
0.00490755
0.0049113
0.00491502
0.0049187
0.00492235
0.00492597
0.00492956
0.00493311
0.00493663
0.00494012
0.00494357
0.004947
0.00495039
0.00495374
0.00495707
0.00496036
0.00496362
0.00496684
0.00497004
0.0049732
0.00497632
0.00497942
0.00498248
0.0049855
0.0049885
0.00499146
0.00499439
0.00499728
0.00500014
0.00500297
0.00500577
0.00500853
0.00501126
0.00501395
0.00501661
0.00501924
0.00502183
0.00502439
0.00502692
0.00502942
0.00503188
0.0050343
0.0050367
0.00503906
0.00504138
0.00504367
0.00504593
0.00504816
0.00505035
0.00505251
0.00505463
0.00505672
0.00505878
0.0050608
0.00506279
0.00506475
0.00506667
0.00506856
0.00507041
0.00507223
0.00507402
0.00507577
0.00507749
0.00507918
0.00508083
0.00508245
0.00508404
0.00508559
0.0050871
0.00508859
0.00509004
0.00509145
0.00509283
0.00509418
0.0050955
0.00509678
0.00509803
0.00509924
0.00510042
0.00510157
0.00510268
0.00510376
0.0051048
0.00510582
0.00510679
0.00510774
0.00510865
0.00510953
0.00511037
0.00511118
0.00511196
0.0051127
0.00511341
0.00511409
0.00511473
0.00511534
0.00511592
0.00511646
0.00511697
0.00511745
0.00511789
0.0051183
0.00511867
0.00511902
0.00511933
0.0051196
0.00511985
0.00512006
0.00512024
0.00512038
0.00512049
0.00512057
0.00512062
0.00512063
0.00512061
0.00512055
0.00512047
0.00512035
0.0051202
0.00512001
0.0051198
0.00511955
0.00511927
0.00511895
0.0051186
0.00511822
0.00511781
0.00511737
0.00511689
0.00511638
0.00511584
0.00511527
0.00511466
0.00511402
0.00511335
0.00511265
0.00511192
0.00511115
0.00511035
0.00510952
0.00510866
0.00510777
0.00510685
0.00510589
0.0051049
0.00510388
0.00510283
0.00510175
0.00510064
0.00509949
0.00509832
0.00509711
0.00509587
0.0050946
0.0050933
0.00509197
0.00509061
0.00508922
0.00508779
0.00508634
0.00508485
0.00508334
0.00508179
0.00508021
0.00507861
0.00507697
0.0050753
0.00507361
0.00507188
0.00507012
0.00506834
0.00506652
0.00506467
0.00506279
0.00506089
0.00505895
0.00505699
0.00505499
0.00505297
0.00505091
0.00504883
0.00504672
0.00504458
0.00504241
0.00504021
0.00503798
0.00503572
0.00503344
0.00503113
0.00502878
0.00502641
0.00502401
0.00502158
0.00501913
0.00501664
0.00501413
0.00501159
0.00500902
0.00500643
0.0050038
0.00500115
0.00499848
0.00499577
0.00499304
0.00499027
0.00498749
0.00498467
0.00498183
0.00497896
0.00497606
0.00497314
0.00497019
0.00496722
0.00496421
0.00496118
0.00495813
0.00495505
0.00495194
0.00494881
0.00494565
0.00494246
0.00493925
0.00493601
0.00493275
0.00492946
0.00492615
0.00492281
0.00491945
0.00491606
0.00491265
0.00490921
0.00490575
0.00490226
0.00489874
0.00489521
0.00489165
0.00488806
0.00488445
0.00488082
0.00487716
0.00487348
0.00486977
0.00486604
0.00486229
0.00485851
0.00485471
0.00485089
0.00484704
0.00484317
0.00483928
0.00483537
0.00483143
0.00482747
0.00482348
0.00481948
0.00481545
0.0048114
0.00480733
0.00480323
0.00479912
0.00479498
0.00479082
0.00478664
0.00478244
0.00477821
0.00477397
0.0047697
0.00476542
0.00476111
0.00475678
0.00475243
0.00474806
0.00474367
0.00473926
0.00473483
0.00473037
0.0047259
0.00472141
0.0047169
0.00471237
0.00470782
0.00470325
0.00469866
0.00469405
0.00468943
0.00468478
0.00468012
0.00467543
0.00467073
0.00466601
0.00466127
0.00465651
0.00465174
0.00464694
0.00464213
0.0046373
0.00463245
0.00462759
0.00462271
0.00461781
0.00461289
0.00460795
0.004603
0.00459803
0.00459305
0.00458805
0.00458303
0.004578
0.00457295
0.00456788
0.0045628
0.0045577
0.00455258
0.00454745
0.00454231
0.00453714
0.00453197
0.00452678
0.00452157
0.00451635
0.00451111
0.00450586
0.00450059
0.00449531
0.00449002
0.00448471
0.00447938
0.00447405
0.0044687
0.00446333
0.00445795
0.00445256
0.00444715
0.00444174
0.0044363
0.00443086
0.0044254
0.00441993
0.00441445
0.00440895
0.00440344
0.00439792
0.00439239
0.00438684
0.00438129
0.00437572
0.00437014
0.00436455
0.00435894
0.00435333
0.0043477
0.00434207
0.00433642
0.00433076
0.00432509
0.00431941
0.00431372
0.00430802
0.00430231
0.00429659
0.00429085
0.00428511
0.00427936
0.0042736
0.00426783
0.00426205
0.00425626
0.00425047
0.00424466
0.00423885
0.00423302
0.00422719
0.00422135
0.0042155
0.00420964
0.00420377
0.0041979
0.00419202
0.00418613
0.00418023
0.00417433
0.00416841
0.00416249
0.00415657
0.00415063
0.00414469
0.00413874
0.00413279
0.00412683
0.00412086
0.00411489
0.00410891
0.00410293
0.00409693
0.00409094
0.00408493
0.00407893
0.00407291
0.00406689
0.00406087
0.00405484
0.00404881
0.00404277
0.00403672
0.00403068
0.00402462
0.00401857
0.00401251
0.00400644
0.00400038
0.0039943
0.00398823
0.00398215
0.00397607
0.00396998
0.00396389
0.0039578
0.00395171
0.00394561
0.00393951
0.00393341
0.00392731
0.00392121
0.0039151
0.00390899
0.00390288
0.00389677
0.00389066
0.00388454
0.00387843
0.00387232
0.0038662
0.00386008
0.00385397
0.00384785
0.00384174
0.00383562
0.00382951
0.0038234
0.00381729
0.00381118
0.00380507
0.00379896
0.00379286
0.00378675
0.00378065
0.00377456
0.00376847
0.00376238
0.00375629
0.00375021
0.00374413
0.00373806
0.00373199
0.00372593
0.00371988
0.00371383
0.00370779
0.00370175
0.00369573
0.00368971
0.0036837
0.00367771
0.00367172
0.00366574
0.00365978
0.00365382
0.00364788
0.00364196
0.00363605
0.00363015
0.00362427
0.00361842
0.00361257
0.00360675
0.00360095
0.00359518
0.00358943
0.0035837
0.003578
0.00357233
0.00356669
0.00356109
0.00355551
0.00354998
0.00354449
0.00353904
0.00353363
0.00352827
0.00352295
0.00351769
0.00351248
0.00350733
0.00350222
0.00349715
0.00349212
0.0034871
0.00348206
0.00347696
0.00347174
0.00346639
0.00346073
0.00345405
0.299549
0.0590509
0.0174388
0.00843973
0.00596748
0.00515316
0.00485232
0.00473254
0.00468145
0.00465756
0.0046449
0.00463717
0.00463183
0.00462783
0.00462468
0.00462213
0.00462005
0.00461834
0.00461692
0.00461576
0.00461481
0.00461404
0.00461343
0.00461295
0.00461259
0.00461233
0.00461216
0.00461208
0.00461206
0.00461212
0.00461223
0.00461239
0.0046126
0.00461286
0.00461316
0.00461349
0.00461387
0.00461427
0.0046147
0.00461517
0.00461565
0.00461617
0.0046167
0.00461725
0.00461783
0.00461842
0.00461902
0.00461965
0.00462028
0.00462093
0.0046216
0.00462228
0.00462297
0.00462367
0.00462438
0.0046251
0.00462584
0.00462658
0.00462733
0.00462809
0.00462886
0.00462964
0.00463042
0.00463121
0.00463201
0.00463282
0.00463363
0.00463444
0.00463526
0.00463608
0.00463691
0.00463773
0.00463856
0.00463938
0.00464019
0.00464101
0.00464182
0.00464262
0.00464343
0.00464423
0.00464503
0.00464583
0.00464663
0.00464743
0.00464823
0.00464904
0.00464984
0.00465065
0.00465145
0.00465226
0.00465307
0.00465388
0.00465469
0.0046555
0.00465632
0.00465713
0.00465795
0.00465877
0.00465959
0.00466042
0.00466124
0.00466207
0.0046629
0.00466374
0.00466457
0.00466541
0.00466625
0.00466709
0.00466793
0.00466878
0.00466962
0.00467047
0.00467132
0.00467217
0.00467302
0.00467387
0.00467471
0.00467556
0.0046764
0.00467725
0.0046781
0.00467894
0.00467979
0.00468063
0.00468148
0.00468233
0.00468317
0.00468402
0.00468487
0.00468572
0.00468657
0.00468743
0.00468828
0.00468913
0.00468999
0.00469085
0.0046917
0.00469256
0.00469342
0.00469429
0.00469515
0.00469601
0.00469688
0.00469775
0.00469862
0.00469948
0.00470035
0.00470123
0.0047021
0.00470297
0.00470384
0.00470471
0.00470559
0.00470646
0.00470733
0.00470821
0.00470908
0.00470996
0.00471083
0.00471171
0.00471258
0.00471346
0.00471434
0.00471522
0.0047161
0.00471698
0.00471786
0.00471874
0.00471962
0.0047205
0.00472138
0.00472226
0.00472315
0.00472403
0.00472492
0.0047258
0.00472669
0.00472758
0.00472846
0.00472935
0.00473024
0.00473112
0.00473201
0.0047329
0.00473379
0.00473467
0.00473556
0.00473645
0.00473734
0.00473822
0.00473911
0.00474
0.00474089
0.00474178
0.00474267
0.00474356
0.00474445
0.00474534
0.00474623
0.00474712
0.00474801
0.0047489
0.00474979
0.00475069
0.00475158
0.00475247
0.00475336
0.00475426
0.00475515
0.00475604
0.00475693
0.00475782
0.00475871
0.00475961
0.0047605
0.00476139
0.00476228
0.00476317
0.00476406
0.00476495
0.00476584
0.00476673
0.00476762
0.0047685
0.00476939
0.00477028
0.00477117
0.00477206
0.00477294
0.00477383
0.00477472
0.0047756
0.00477649
0.00477738
0.00477826
0.00477915
0.00478003
0.00478092
0.0047818
0.00478268
0.00478357
0.00478445
0.00478533
0.00478621
0.0047871
0.00478798
0.00478886
0.00478974
0.00479062
0.00479149
0.00479237
0.00479325
0.00479413
0.004795
0.00479588
0.00479675
0.00479763
0.0047985
0.00479938
0.00480025
0.00480112
0.00480199
0.00480286
0.00480373
0.0048046
0.00480547
0.00480633
0.0048072
0.00480806
0.00480893
0.00480979
0.00481066
0.00481152
0.00481238
0.00481324
0.0048141
0.00481496
0.00481581
0.00481667
0.00481752
0.00481838
0.00481923
0.00482008
0.00482093
0.00482178
0.00482263
0.00482348
0.00482433
0.00482517
0.00482602
0.00482686
0.0048277
0.00482855
0.00482939
0.00483022
0.00483106
0.0048319
0.00483273
0.00483357
0.0048344
0.00483523
0.00483606
0.00483689
0.00483772
0.00483854
0.00483937
0.00484019
0.00484101
0.00484183
0.00484265
0.00484347
0.00484429
0.0048451
0.00484592
0.00484673
0.00484754
0.00484835
0.00484916
0.00484997
0.00485077
0.00485157
0.00485238
0.00485318
0.00485397
0.00485477
0.00485557
0.00485636
0.00485715
0.00485795
0.00485874
0.00485952
0.00486031
0.00486109
0.00486188
0.00486266
0.00486344
0.00486421
0.00486499
0.00486576
0.00486654
0.00486731
0.00486808
0.00486884
0.00486961
0.00487037
0.00487114
0.0048719
0.00487265
0.00487341
0.00487417
0.00487492
0.00487567
0.00487642
0.00487717
0.00487791
0.00487865
0.0048794
0.00488014
0.00488087
0.00488161
0.00488234
0.00488308
0.00488381
0.00488453
0.00488526
0.00488598
0.0048867
0.00488742
0.00488814
0.00488886
0.00488957
0.00489028
0.00489099
0.0048917
0.00489241
0.00489311
0.00489381
0.00489451
0.00489521
0.0048959
0.0048966
0.00489729
0.00489797
0.00489866
0.00489934
0.00490003
0.00490071
0.00490138
0.00490206
0.00490273
0.0049034
0.00490407
0.00490474
0.0049054
0.00490606
0.00490672
0.00490738
0.00490804
0.00490869
0.00490934
0.00490999
0.00491063
0.00491128
0.00491192
0.00491256
0.00491319
0.00491383
0.00491446
0.00491509
0.00491571
0.00491634
0.00491696
0.00491758
0.0049182
0.00491881
0.00491943
0.00492004
0.00492064
0.00492125
0.00492185
0.00492245
0.00492305
0.00492365
0.00492424
0.00492483
0.00492542
0.004926
0.00492658
0.00492716
0.00492774
0.00492832
0.00492889
0.00492946
0.00493003
0.00493059
0.00493116
0.00493172
0.00493227
0.00493283
0.00493338
0.00493393
0.00493448
0.00493502
0.00493556
0.0049361
0.00493664
0.00493717
0.0049377
0.00493823
0.00493876
0.00493928
0.0049398
0.00494032
0.00494084
0.00494135
0.00494186
0.00494237
0.00494287
0.00494338
0.00494388
0.00494437
0.00494487
0.00494536
0.00494585
0.00494633
0.00494682
0.0049473
0.00494778
0.00494825
0.00494872
0.00494919
0.00494966
0.00495013
0.00495059
0.00495105
0.0049515
0.00495196
0.00495241
0.00495285
0.0049533
0.00495374
0.00495418
0.00495462
0.00495505
0.00495548
0.00495591
0.00495634
0.00495676
0.00495718
0.0049576
0.00495801
0.00495843
0.00495884
0.00495924
0.00495965
0.00496005
0.00496044
0.00496084
0.00496123
0.00496162
0.00496201
0.00496239
0.00496277
0.00496315
0.00496353
0.0049639
0.00496427
0.00496464
0.004965
0.00496536
0.00496572
0.00496608
0.00496643
0.00496678
0.00496713
0.00496747
0.00496782
0.00496816
0.00496849
0.00496883
0.00496916
0.00496948
0.00496981
0.00497013
0.00497045
0.00497077
0.00497108
0.00497139
0.0049717
0.004972
0.00497231
0.00497261
0.0049729
0.0049732
0.00497349
0.00497378
0.00497406
0.00497434
0.00497462
0.0049749
0.00497518
0.00497545
0.00497572
0.00497598
0.00497624
0.0049765
0.00497676
0.00497702
0.00497727
0.00497752
0.00497776
0.00497801
0.00497825
0.00497849
0.00497872
0.00497895
0.00497918
0.00497941
0.00497963
0.00497985
0.00498007
0.00498029
0.0049805
0.00498071
0.00498092
0.00498112
0.00498132
0.00498152
0.00498172
0.00498191
0.0049821
0.00498229
0.00498247
0.00498266
0.00498284
0.00498301
0.00498319
0.00498336
0.00498353
0.00498369
0.00498386
0.00498402
0.00498418
0.00498433
0.00498448
0.00498463
0.00498478
0.00498492
0.00498506
0.0049852
0.00498534
0.00498547
0.0049856
0.00498573
0.00498586
0.00498598
0.0049861
0.00498622
0.00498633
0.00498644
0.00498655
0.00498666
0.00498676
0.00498687
0.00498697
0.00498706
0.00498716
0.00498725
0.00498733
0.00498742
0.0049875
0.00498758
0.00498766
0.00498774
0.00498781
0.00498788
0.00498795
0.00498801
0.00498808
0.00498814
0.00498819
0.00498825
0.0049883
0.00498835
0.0049884
0.00498844
0.00498849
0.00498853
0.00498856
0.0049886
0.00498863
0.00498866
0.00498869
0.00498871
0.00498874
0.00498876
0.00498877
0.00498879
0.0049888
0.00498881
0.00498882
0.00498882
0.00498883
0.00498883
0.00498883
0.00498882
0.00498881
0.00498881
0.00498879
0.00498878
0.00498876
0.00498875
0.00498872
0.0049887
0.00498868
0.00498865
0.00498862
0.00498859
0.00498855
0.00498851
0.00498847
0.00498843
0.00498839
0.00498834
0.00498829
0.00498824
0.00498819
0.00498814
0.00498808
0.00498802
0.00498796
0.00498789
0.00498783
0.00498776
0.00498769
0.00498761
0.00498754
0.00498746
0.00498738
0.0049873
0.00498722
0.00498713
0.00498704
0.00498695
0.00498686
0.00498677
0.00498667
0.00498657
0.00498647
0.00498637
0.00498626
0.00498616
0.00498605
0.00498594
0.00498583
0.00498571
0.00498559
0.00498548
0.00498535
0.00498523
0.00498511
0.00498498
0.00498485
0.00498472
0.00498459
0.00498445
0.00498432
0.00498418
0.00498404
0.0049839
0.00498375
0.00498361
0.00498346
0.00498331
0.00498316
0.004983
0.00498285
0.00498269
0.00498253
0.00498237
0.00498221
0.00498205
0.00498188
0.00498171
0.00498154
0.00498137
0.0049812
0.00498102
0.00498085
0.00498067
0.00498049
0.00498031
0.00498012
0.00497994
0.00497975
0.00497956
0.00497937
0.00497918
0.00497899
0.00497879
0.0049786
0.0049784
0.0049782
0.004978
0.0049778
0.00497759
0.00497739
0.00497718
0.00497697
0.00497676
0.00497655
0.00497633
0.00497612
0.0049759
0.00497568
0.00497546
0.00497524
0.00497502
0.0049748
0.00497457
0.00497434
0.00497412
0.00497389
0.00497366
0.00497342
0.00497319
0.00497295
0.00497272
0.00497248
0.00497224
0.004972
0.00497176
0.00497152
0.00497127
0.00497103
0.00497078
0.00497053
0.00497028
0.00497003
0.00496978
0.00496952
0.00496927
0.00496901
0.00496876
0.0049685
0.00496824
0.00496798
0.00496772
0.00496745
0.00496719
0.00496693
0.00496666
0.00496639
0.00496612
0.00496585
0.00496558
0.00496531
0.00496504
0.00496477
0.00496449
0.00496421
0.00496394
0.00496366
0.00496338
0.0049631
0.00496282
0.00496254
0.00496226
0.00496197
0.00496169
0.0049614
0.00496111
0.00496083
0.00496054
0.00496025
0.00495996
0.00495967
0.00495938
0.00495908
0.00495879
0.00495849
0.0049582
0.0049579
0.00495761
0.00495731
0.00495701
0.00495671
0.00495641
0.00495611
0.00495581
0.00495551
0.0049552
0.0049549
0.00495459
0.00495429
0.00495398
0.00495368
0.00495337
0.00495306
0.00495275
0.00495244
0.00495213
0.00495182
0.00495151
0.0049512
0.00495089
0.00495058
0.00495026
0.00494995
0.00494963
0.00494932
0.004949
0.00494869
0.00494837
0.00494805
0.00494774
0.00494742
0.0049471
0.00494678
0.00494646
0.00494614
0.00494582
0.0049455
0.00494518
0.00494486
0.00494454
0.00494421
0.00494389
0.00494357
0.00494324
0.00494292
0.0049426
0.00494227
0.00494195
0.00494162
0.0049413
0.00494097
0.00494064
0.00494032
0.00493999
0.00493966
0.00493934
0.00493901
0.00493868
0.00493835
0.00493803
0.0049377
0.00493737
0.00493704
0.00493671
0.00493638
0.00493605
0.00493573
0.0049354
0.00493507
0.00493474
0.00493441
0.00493408
0.00493375
0.00493342
0.00493309
0.00493276
0.00493243
0.0049321
0.00493177
0.00493144
0.00493111
0.00493078
0.00493045
0.00493012
0.00492979
0.00492946
0.00492913
0.0049288
0.00492847
0.00492814
0.00492781
0.00492748
0.00492715
0.00492683
0.0049265
0.00492617
0.00492584
0.00492551
0.00492518
0.00492486
0.00492453
0.0049242
0.00492388
0.00492355
0.00492322
0.0049229
0.00492257
0.00492225
0.00492192
0.0049216
0.00492128
0.00492095
0.00492063
0.00492031
0.00491999
0.00491966
0.00491934
0.00491902
0.00491871
0.00491839
0.00491807
0.00491775
0.00491744
0.00491712
0.00491681
0.00491649
0.00491618
0.00491587
0.00491556
0.00491525
0.00491494
0.00491463
0.00491432
0.00491402
0.00491372
0.00491341
0.00491311
0.00491282
0.00491252
0.00491222
0.00491193
0.00491164
0.00491135
0.00491106
0.00491078
0.0049105
0.00491022
0.00490994
0.00490967
0.00490939
0.00490913
0.00490886
0.0049086
0.00490834
0.00490809
0.00490784
0.0049076
0.00490736
0.00490712
0.00490689
0.00490666
0.00490644
0.00490622
0.00490601
0.00490579
0.00490557
0.00490534
0.00490507
0.00490476
0.00490437
0.00490387
0.00490325
0.00490255
0.00490186
0.530863
0.182742
0.0783879
0.046028
0.0352544
0.0314558
0.0300791
0.0295835
0.0294131
0.0293611
0.0293501
0.0293519
0.0293569
0.0293618
0.0293661
0.0293695
0.0293723
0.0293746
0.0293765
0.029378
0.0293793
0.0293805
0.0293814
0.0293822
0.0293829
0.0293836
0.0293841
0.0293846
0.0293851
0.0293855
0.0293858
0.0293861
0.0293864
0.0293867
0.029387
0.0293872
0.0293874
0.0293877
0.0293879
0.0293881
0.0293882
0.0293884
0.0293886
0.0293887
0.0293889
0.0293891
0.0293892
0.0293893
0.0293895
0.0293896
0.0293897
0.0293899
0.02939
0.0293901
0.0293902
0.0293904
0.0293905
0.0293906
0.0293907
0.0293909
0.029391
0.0293911
0.0293912
0.0293913
0.0293914
0.0293915
0.0293916
0.0293917
0.0293918
0.0293919
0.029392
0.029392
0.0293921
0.0293921
0.0293921
0.0293921
0.0293921
0.0293921
0.0293921
0.0293921
0.0293922
0.0293922
0.0293922
0.0293922
0.0293923
0.0293923
0.0293924
0.0293924
0.0293924
0.0293925
0.0293925
0.0293926
0.0293927
0.0293927
0.0293928
0.0293928
0.0293929
0.029393
0.0293931
0.0293931
0.0293932
0.0293933
0.0293933
0.0293934
0.0293935
0.0293936
0.0293937
0.0293937
0.0293938
0.0293939
0.029394
0.0293941
0.0293941
0.0293942
0.0293943
0.0293943
0.0293944
0.0293944
0.0293945
0.0293946
0.0293946
0.0293947
0.0293947
0.0293948
0.0293949
0.0293949
0.029395
0.0293951
0.0293952
0.0293952
0.0293953
0.0293954
0.0293955
0.0293955
0.0293956
0.0293957
0.0293958
0.0293959
0.029396
0.029396
0.0293961
0.0293962
0.0293963
0.0293964
0.0293965
0.0293966
0.0293967
0.0293967
0.0293968
0.0293969
0.029397
0.0293971
0.0293972
0.0293972
0.0293973
0.0293974
0.0293975
0.0293976
0.0293977
0.0293978
0.0293978
0.0293979
0.029398
0.0293981
0.0293982
0.0293983
0.0293984
0.0293985
0.0293986
0.0293987
0.0293987
0.0293988
0.0293989
0.029399
0.0293991
0.0293992
0.0293993
0.0293994
0.0293995
0.0293996
0.0293997
0.0293998
0.0293999
0.0294
0.0294001
0.0294002
0.0294002
0.0294003
0.0294004
0.0294005
0.0294006
0.0294007
0.0294008
0.0294009
0.029401
0.0294011
0.0294012
0.0294013
0.0294014
0.0294015
0.0294016
0.0294017
0.0294018
0.0294019
0.029402
0.0294021
0.0294022
0.0294023
0.0294024
0.0294025
0.0294026
0.0294027
0.0294028
0.0294029
0.029403
0.0294031
0.0294032
0.0294033
0.0294034
0.0294035
0.0294036
0.0294037
0.0294038
0.0294039
0.029404
0.0294041
0.0294042
0.0294043
0.0294044
0.0294045
0.0294046
0.0294047
0.0294048
0.0294049
0.029405
0.0294052
0.0294053
0.0294054
0.0294055
0.0294056
0.0294057
0.0294058
0.0294059
0.029406
0.0294061
0.0294062
0.0294063
0.0294064
0.0294065
0.0294066
0.0294067
0.0294068
0.0294069
0.029407
0.0294071
0.0294073
0.0294074
0.0294075
0.0294076
0.0294077
0.0294078
0.0294079
0.029408
0.0294081
0.0294082
0.0294083
0.0294084
0.0294085
0.0294086
0.0294087
0.0294088
0.0294089
0.029409
0.0294092
0.0294093
0.0294094
0.0294095
0.0294096
0.0294097
0.0294098
0.0294099
0.02941
0.0294101
0.0294102
0.0294103
0.0294104
0.0294105
0.0294106
0.0294107
0.0294108
0.0294109
0.0294111
0.0294112
0.0294113
0.0294114
0.0294115
0.0294116
0.0294117
0.0294118
0.0294119
0.029412
0.0294121
0.0294122
0.0294123
0.0294124
0.0294125
0.0294126
0.0294127
0.0294128
0.0294129
0.029413
0.0294131
0.0294132
0.0294134
0.0294135
0.0294136
0.0294137
0.0294138
0.0294139
0.029414
0.0294141
0.0294142
0.0294143
0.0294144
0.0294145
0.0294146
0.0294147
0.0294148
0.0294149
0.029415
0.0294151
0.0294152
0.0294153
0.0294154
0.0294155
0.0294156
0.0294157
0.0294158
0.0294159
0.029416
0.0294161
0.0294162
0.0294163
0.0294164
0.0294165
0.0294166
0.0294167
0.0294168
0.0294169
0.029417
0.0294171
0.0294172
0.0294173
0.0294174
0.0294175
0.0294176
0.0294177
0.0294178
0.0294179
0.029418
0.0294181
0.0294182
0.0294183
0.0294184
0.0294185
0.0294186
0.0294187
0.0294188
0.0294189
0.029419
0.0294191
0.0294191
0.0294192
0.0294193
0.0294194
0.0294195
0.0294196
0.0294197
0.0294198
0.0294199
0.02942
0.0294201
0.0294202
0.0294203
0.0294204
0.0294205
0.0294206
0.0294206
0.0294207
0.0294208
0.0294209
0.029421
0.0294211
0.0294212
0.0294213
0.0294214
0.0294215
0.0294216
0.0294216
0.0294217
0.0294218
0.0294219
0.029422
0.0294221
0.0294222
0.0294223
0.0294224
0.0294224
0.0294225
0.0294226
0.0294227
0.0294228
0.0294229
0.029423
0.029423
0.0294231
0.0294232
0.0294233
0.0294234
0.0294235
0.0294236
0.0294236
0.0294237
0.0294238
0.0294239
0.029424
0.0294241
0.0294241
0.0294242
0.0294243
0.0294244
0.0294245
0.0294246
0.0294246
0.0294247
0.0294248
0.0294249
0.029425
0.029425
0.0294251
0.0294252
0.0294253
0.0294254
0.0294254
0.0294255
0.0294256
0.0294257
0.0294258
0.0294258
0.0294259
0.029426
0.0294261
0.0294261
0.0294262
0.0294263
0.0294264
0.0294264
0.0294265
0.0294266
0.0294267
0.0294267
0.0294268
0.0294269
0.029427
0.029427
0.0294271
0.0294272
0.0294273
0.0294273
0.0294274
0.0294275
0.0294276
0.0294276
0.0294277
0.0294278
0.0294278
0.0294279
0.029428
0.0294281
0.0294281
0.0294282
0.0294283
0.0294283
0.0294284
0.0294285
0.0294285
0.0294286
0.0294287
0.0294287
0.0294288
0.0294289
0.0294289
0.029429
0.0294291
0.0294291
0.0294292
0.0294293
0.0294293
0.0294294
0.0294295
0.0294295
0.0294296
0.0294297
0.0294297
0.0294298
0.0294299
0.0294299
0.02943
0.02943
0.0294301
0.0294302
0.0294302
0.0294303
0.0294304
0.0294304
0.0294305
0.0294305
0.0294306
0.0294307
0.0294307
0.0294308
0.0294308
0.0294309
0.029431
0.029431
0.0294311
0.0294311
0.0294312
0.0294312
0.0294313
0.0294314
0.0294314
0.0294315
0.0294315
0.0294316
0.0294316
0.0294317
0.0294318
0.0294318
0.0294319
0.0294319
0.029432
0.029432
0.0294321
0.0294321
0.0294322
0.0294323
0.0294323
0.0294324
0.0294324
0.0294325
0.0294325
0.0294326
0.0294326
0.0294327
0.0294327
0.0294328
0.0294328
0.0294329
0.0294329
0.029433
0.029433
0.0294331
0.0294331
0.0294332
0.0294332
0.0294333
0.0294333
0.0294334
0.0294334
0.0294335
0.0294335
0.0294336
0.0294336
0.0294337
0.0294337
0.0294338
0.0294338
0.0294339
0.0294339
0.029434
0.029434
0.0294341
0.0294341
0.0294342
0.0294342
0.0294343
0.0294343
0.0294343
0.0294344
0.0294344
0.0294345
0.0294345
0.0294346
0.0294346
0.0294347
0.0294347
0.0294348
0.0294348
0.0294348
0.0294349
0.0294349
0.029435
0.029435
0.0294351
0.0294351
0.0294352
0.0294352
0.0294352
0.0294353
0.0294353
0.0294354
0.0294354
0.0294355
0.0294355
0.0294355
0.0294356
0.0294356
0.0294357
0.0294357
0.0294358
0.0294358
0.0294358
0.0294359
0.0294359
0.029436
0.029436
0.029436
0.0294361
0.0294361
0.0294362
0.0294362
0.0294363
0.0294363
0.0294363
0.0294364
0.0294364
0.0294365
0.0294365
0.0294365
0.0294366
0.0294366
0.0294367
0.0294367
0.0294367
0.0294368
0.0294368
0.0294369
0.0294369
0.0294369
0.029437
0.029437
0.0294371
0.0294371
0.0294371
0.0294372
0.0294372
0.0294373
0.0294373
0.0294373
0.0294374
0.0294374
0.0294375
0.0294375
0.0294375
0.0294376
0.0294376
0.0294377
0.0294377
0.0294377
0.0294378
0.0294378
0.0294379
0.0294379
0.0294379
0.029438
0.029438
0.029438
0.0294381
0.0294381
0.0294382
0.0294382
0.0294382
0.0294383
0.0294383
0.0294384
0.0294384
0.0294384
0.0294385
0.0294385
0.0294386
0.0294386
0.0294386
0.0294387
0.0294387
0.0294388
0.0294388
0.0294388
0.0294389
0.0294389
0.029439
0.029439
0.029439
0.0294391
0.0294391
0.0294392
0.0294392
0.0294392
0.0294393
0.0294393
0.0294394
0.0294394
0.0294395
0.0294395
0.0294395
0.0294396
0.0294396
0.0294397
0.0294397
0.0294397
0.0294398
0.0294398
0.0294399
0.0294399
0.02944
0.02944
0.02944
0.0294401
0.0294401
0.0294402
0.0294402
0.0294403
0.0294403
0.0294404
0.0294404
0.0294404
0.0294405
0.0294405
0.0294406