/*--------------------------------*- C++ -*----------------------------------*\
| =========                 |                                                 |
| \\      /  F ield         | OpenFOAM: The Open Source CFD Toolbox           |
|  \\    /   O peration     | Version:  2512                                  |
|   \\  /    A nd           | Website:  www.openfoam.com                      |
|    \\/     M anipulation  |                                                 |
\*---------------------------------------------------------------------------*/
FoamFile
{
    version     2.0;
    format      ascii;
    arch        "LSB;label=32;scalar=64";
    class       volScalarField;
    location    "0.002";
    object      nut;
}
// * * * * * * * * * * * * * * * * * * * * * * * * * * * * * * * * * * * * * //

dimensions      [0 2 -1 0 0 0 0];

internalField   nonuniform List<scalar> 
100000
(
1.37786e-07
2.69639e-08
1.11361e-08
6.20723e-09
4.1797e-09
3.19989e-09
2.67196e-09
2.36458e-09
2.17308e-09
2.04612e-09
1.95731e-09
1.89243e-09
1.84342e-09
1.80551e-09
1.77569e-09
1.75199e-09
1.73305e-09
1.71791e-09
1.70585e-09
1.69632e-09
1.68892e-09
1.68331e-09
1.67923e-09
1.67646e-09
1.67484e-09
1.67422e-09
1.67448e-09
1.67552e-09
1.67725e-09
1.67961e-09
1.68252e-09
1.68593e-09
1.68979e-09
1.69406e-09
1.6987e-09
1.7037e-09
1.70903e-09
1.71465e-09
1.72056e-09
1.72675e-09
1.73317e-09
1.73982e-09
1.74667e-09
1.75372e-09
1.76095e-09
1.76835e-09
1.7759e-09
1.78359e-09
1.79142e-09
1.79938e-09
1.80748e-09
1.81569e-09
1.82402e-09
1.83245e-09
1.841e-09
1.84964e-09
1.85839e-09
1.86722e-09
1.87615e-09
1.88516e-09
1.89425e-09
1.90342e-09
1.91267e-09
1.92199e-09
1.93138e-09
1.94084e-09
1.95037e-09
1.95995e-09
1.96959e-09
1.97927e-09
1.989e-09
1.99875e-09
2.00852e-09
2.01829e-09
2.02806e-09
2.03782e-09
2.04756e-09
2.05727e-09
2.06697e-09
2.07666e-09
2.08633e-09
2.096e-09
2.10568e-09
2.11536e-09
2.12504e-09
2.13474e-09
2.14444e-09
2.15416e-09
2.16389e-09
2.17363e-09
2.18339e-09
2.19317e-09
2.20296e-09
2.21277e-09
2.2226e-09
2.23244e-09
2.24231e-09
2.2522e-09
2.2621e-09
2.27203e-09
2.28198e-09
2.29195e-09
2.30195e-09
2.31196e-09
2.32201e-09
2.33207e-09
2.34217e-09
2.35228e-09
2.36243e-09
2.37259e-09
2.38278e-09
2.39299e-09
2.40322e-09
2.41346e-09
2.4237e-09
2.43395e-09
2.4442e-09
2.45445e-09
2.4647e-09
2.47495e-09
2.4852e-09
2.49546e-09
2.50572e-09
2.51599e-09
2.52627e-09
2.53655e-09
2.54684e-09
2.55715e-09
2.56746e-09
2.57779e-09
2.58813e-09
2.59847e-09
2.60884e-09
2.61921e-09
2.6296e-09
2.64e-09
2.65042e-09
2.66085e-09
2.67129e-09
2.68175e-09
2.69223e-09
2.70272e-09
2.71322e-09
2.72374e-09
2.73428e-09
2.74483e-09
2.75539e-09
2.76597e-09
2.77655e-09
2.78715e-09
2.79775e-09
2.80836e-09
2.81898e-09
2.8296e-09
2.84023e-09
2.85087e-09
2.86151e-09
2.87217e-09
2.88283e-09
2.89349e-09
2.90417e-09
2.91485e-09
2.92554e-09
2.93624e-09
2.94695e-09
2.95766e-09
2.96839e-09
2.97912e-09
2.98986e-09
3.0006e-09
3.01136e-09
3.02212e-09
3.03289e-09
3.04367e-09
3.05446e-09
3.06526e-09
3.07606e-09
3.08687e-09
3.09769e-09
3.10851e-09
3.11934e-09
3.13017e-09
3.141e-09
3.15184e-09
3.16268e-09
3.17352e-09
3.18437e-09
3.19522e-09
3.20607e-09
3.21692e-09
3.22778e-09
3.23864e-09
3.2495e-09
3.26037e-09
3.27125e-09
3.28213e-09
3.29301e-09
3.3039e-09
3.31479e-09
3.32569e-09
3.3366e-09
3.3475e-09
3.35841e-09
3.36933e-09
3.38025e-09
3.39117e-09
3.40209e-09
3.41301e-09
3.42394e-09
3.43486e-09
3.44579e-09
3.45671e-09
3.46764e-09
3.47856e-09
3.48948e-09
3.5004e-09
3.51132e-09
3.52224e-09
3.53315e-09
3.54407e-09
3.55498e-09
3.56589e-09
3.5768e-09
3.5877e-09
3.59861e-09
3.60951e-09
3.62041e-09
3.63131e-09
3.6422e-09
3.6531e-09
3.66399e-09
3.67488e-09
3.68576e-09
3.69665e-09
3.70753e-09
3.7184e-09
3.72928e-09
3.74015e-09
3.75102e-09
3.76188e-09
3.77274e-09
3.78359e-09
3.79444e-09
3.80529e-09
3.81613e-09
3.82696e-09
3.83779e-09
3.84861e-09
3.85943e-09
3.87024e-09
3.88105e-09
3.89185e-09
3.90264e-09
3.91343e-09
3.92421e-09
3.93499e-09
3.94576e-09
3.95652e-09
3.96727e-09
3.97802e-09
3.98876e-09
3.99949e-09
4.01021e-09
4.02092e-09
4.03163e-09
4.04233e-09
4.05301e-09
4.06369e-09
4.07436e-09
4.08502e-09
4.09567e-09
4.10631e-09
4.11695e-09
4.12757e-09
4.13818e-09
4.14878e-09
4.15936e-09
4.16994e-09
4.18051e-09
4.19107e-09
4.20161e-09
4.21215e-09
4.22267e-09
4.23318e-09
4.24368e-09
4.25416e-09
4.26464e-09
4.2751e-09
4.28555e-09
4.29598e-09
4.3064e-09
4.31681e-09
4.32721e-09
4.33759e-09
4.34796e-09
4.35831e-09
4.36865e-09
4.37898e-09
4.38929e-09
4.39959e-09
4.40987e-09
4.42014e-09
4.43039e-09
4.44063e-09
4.45085e-09
4.46105e-09
4.47124e-09
4.48141e-09
4.49157e-09
4.50171e-09
4.51184e-09
4.52194e-09
4.53203e-09
4.54211e-09
4.55216e-09
4.5622e-09
4.57223e-09
4.58223e-09
4.59222e-09
4.60218e-09
4.61213e-09
4.62207e-09
4.63198e-09
4.64187e-09
4.65175e-09
4.66161e-09
4.67144e-09
4.68126e-09
4.69106e-09
4.70084e-09
4.7106e-09
4.72034e-09
4.73006e-09
4.73976e-09
4.74943e-09
4.75909e-09
4.76873e-09
4.77835e-09
4.78794e-09
4.79751e-09
4.80707e-09
4.8166e-09
4.82611e-09
4.83559e-09
4.84506e-09
4.8545e-09
4.86392e-09
4.87332e-09
4.8827e-09
4.89205e-09
4.90138e-09
4.91069e-09
4.91997e-09
4.92923e-09
4.93847e-09
4.94768e-09
4.95687e-09
4.96604e-09
4.97518e-09
4.9843e-09
4.99339e-09
5.00246e-09
5.0115e-09
5.02052e-09
5.02951e-09
5.03848e-09
5.04742e-09
5.05634e-09
5.06523e-09
5.07409e-09
5.08293e-09
5.09175e-09
5.10054e-09
5.1093e-09
5.11803e-09
5.12674e-09
5.13542e-09
5.14407e-09
5.1527e-09
5.1613e-09
5.16987e-09
5.17842e-09
5.18694e-09
5.19543e-09
5.20389e-09
5.21232e-09
5.22073e-09
5.22911e-09
5.23745e-09
5.24578e-09
5.25407e-09
5.26233e-09
5.27056e-09
5.27877e-09
5.28694e-09
5.29509e-09
5.30321e-09
5.31129e-09
5.31935e-09
5.32738e-09
5.33538e-09
5.34334e-09
5.35128e-09
5.35919e-09
5.36706e-09
5.37491e-09
5.38272e-09
5.39051e-09
5.39826e-09
5.40598e-09
5.41367e-09
5.42133e-09
5.42896e-09
5.43656e-09
5.44412e-09
5.45165e-09
5.45915e-09
5.46662e-09
5.47406e-09
5.48146e-09
5.48883e-09
5.49617e-09
5.50348e-09
5.51075e-09
5.51799e-09
5.5252e-09
5.53237e-09
5.53951e-09
5.54662e-09
5.5537e-09
5.56074e-09
5.56774e-09
5.57472e-09
5.58166e-09
5.58856e-09
5.59543e-09
5.60227e-09
5.60907e-09
5.61584e-09
5.62258e-09
5.62928e-09
5.63594e-09
5.64257e-09
5.64916e-09
5.65572e-09
5.66225e-09
5.66874e-09
5.67519e-09
5.68161e-09
5.688e-09
5.69434e-09
5.70066e-09
5.70693e-09
5.71317e-09
5.71938e-09
5.72555e-09
5.73168e-09
5.73778e-09
5.74384e-09
5.74986e-09
5.75585e-09
5.7618e-09
5.76771e-09
5.77359e-09
5.77943e-09
5.78523e-09
5.791e-09
5.79673e-09
5.80242e-09
5.80807e-09
5.81369e-09
5.81927e-09
5.82482e-09
5.83032e-09
5.83579e-09
5.84122e-09
5.84661e-09
5.85197e-09
5.85728e-09
5.86256e-09
5.8678e-09
5.87301e-09
5.87817e-09
5.8833e-09
5.88838e-09
5.89343e-09
5.89844e-09
5.90342e-09
5.90835e-09
5.91325e-09
5.9181e-09
5.92292e-09
5.9277e-09
5.93244e-09
5.93714e-09
5.9418e-09
5.94643e-09
5.95101e-09
5.95556e-09
5.96006e-09
5.96453e-09
5.96895e-09
5.97334e-09
5.97769e-09
5.982e-09
5.98627e-09
5.9905e-09
5.99469e-09
5.99884e-09
6.00295e-09
6.00702e-09
6.01105e-09
6.01504e-09
6.019e-09
6.02291e-09
6.02678e-09
6.03061e-09
6.0344e-09
6.03815e-09
6.04186e-09
6.04553e-09
6.04917e-09
6.05276e-09
6.05631e-09
6.05982e-09
6.06329e-09
6.06672e-09
6.0701e-09
6.07345e-09
6.07676e-09
6.08003e-09
6.08326e-09
6.08644e-09
6.08959e-09
6.09269e-09
6.09576e-09
6.09878e-09
6.10177e-09
6.10471e-09
6.10761e-09
6.11047e-09
6.11329e-09
6.11607e-09
6.11881e-09
6.12151e-09
6.12417e-09
6.12679e-09
6.12936e-09
6.1319e-09
6.13439e-09
6.13684e-09
6.13926e-09
6.14163e-09
6.14396e-09
6.14625e-09
6.1485e-09
6.15071e-09
6.15287e-09
6.155e-09
6.15708e-09
6.15913e-09
6.16113e-09
6.16309e-09
6.16502e-09
6.1669e-09
6.16874e-09
6.17054e-09
6.17229e-09
6.17401e-09
6.17569e-09
6.17732e-09
6.17892e-09
6.18047e-09
6.18198e-09
6.18346e-09
6.18489e-09
6.18628e-09
6.18763e-09
6.18893e-09
6.1902e-09
6.19143e-09
6.19262e-09
6.19376e-09
6.19487e-09
6.19593e-09
6.19695e-09
6.19794e-09
6.19888e-09
6.19978e-09
6.20064e-09
6.20146e-09
6.20224e-09
6.20298e-09
6.20368e-09
6.20434e-09
6.20495e-09
6.20553e-09
6.20607e-09
6.20657e-09
6.20702e-09
6.20744e-09
6.20781e-09
6.20815e-09
6.20844e-09
6.2087e-09
6.20892e-09
6.20909e-09
6.20923e-09
6.20932e-09
6.20938e-09
6.20939e-09
6.20937e-09
6.2093e-09
6.2092e-09
6.20905e-09
6.20887e-09
6.20865e-09
6.20838e-09
6.20808e-09
6.20774e-09
6.20736e-09
6.20694e-09
6.20648e-09
6.20598e-09
6.20544e-09
6.20486e-09
6.20424e-09
6.20358e-09
6.20289e-09
6.20216e-09
6.20138e-09
6.20057e-09
6.19972e-09
6.19883e-09
6.1979e-09
6.19693e-09
6.19593e-09
6.19488e-09
6.1938e-09
6.19268e-09
6.19152e-09
6.19032e-09
6.18909e-09
6.18781e-09
6.1865e-09
6.18515e-09
6.18376e-09
6.18234e-09
6.18087e-09
6.17937e-09
6.17783e-09
6.17625e-09
6.17464e-09
6.17299e-09
6.1713e-09
6.16957e-09
6.16781e-09
6.16601e-09
6.16417e-09
6.1623e-09
6.16039e-09
6.15844e-09
6.15645e-09
6.15443e-09
6.15237e-09
6.15028e-09
6.14815e-09
6.14598e-09
6.14378e-09
6.14154e-09
6.13926e-09
6.13695e-09
6.1346e-09
6.13222e-09
6.1298e-09
6.12735e-09
6.12486e-09
6.12233e-09
6.11977e-09
6.11717e-09
6.11454e-09
6.11187e-09
6.10917e-09
6.10644e-09
6.10366e-09
6.10086e-09
6.09802e-09
6.09514e-09
6.09223e-09
6.08929e-09
6.08631e-09
6.0833e-09
6.08025e-09
6.07717e-09
6.07406e-09
6.07091e-09
6.06773e-09
6.06452e-09
6.06127e-09
6.05799e-09
6.05467e-09
6.05132e-09
6.04794e-09
6.04453e-09
6.04108e-09
6.0376e-09
6.03409e-09
6.03055e-09
6.02697e-09
6.02336e-09
6.01972e-09
6.01605e-09
6.01234e-09
6.00861e-09
6.00484e-09
6.00104e-09
5.99721e-09
5.99334e-09
5.98945e-09
5.98553e-09
5.98157e-09
5.97758e-09
5.97357e-09
5.96952e-09
5.96544e-09
5.96133e-09
5.95719e-09
5.95302e-09
5.94882e-09
5.94459e-09
5.94033e-09
5.93604e-09
5.93172e-09
5.92737e-09
5.923e-09
5.91859e-09
5.91415e-09
5.90969e-09
5.9052e-09
5.90067e-09
5.89612e-09
5.89154e-09
5.88694e-09
5.8823e-09
5.87764e-09
5.87294e-09
5.86822e-09
5.86348e-09
5.8587e-09
5.8539e-09
5.84907e-09
5.84421e-09
5.83933e-09
5.83442e-09
5.82948e-09
5.82451e-09
5.81952e-09
5.81451e-09
5.80946e-09
5.80439e-09
5.7993e-09
5.79417e-09
5.78903e-09
5.78385e-09
5.77865e-09
5.77343e-09
5.76818e-09
5.76291e-09
5.75761e-09
5.75228e-09
5.74693e-09
5.74156e-09
5.73616e-09
5.73074e-09
5.72529e-09
5.71982e-09
5.71433e-09
5.70881e-09
5.70327e-09
5.69771e-09
5.69212e-09
5.68651e-09
5.68087e-09
5.67522e-09
5.66954e-09
5.66384e-09
5.65811e-09
5.65236e-09
5.64659e-09
5.6408e-09
5.63499e-09
5.62916e-09
5.6233e-09
5.61742e-09
5.61152e-09
5.6056e-09
5.59966e-09
5.5937e-09
5.58771e-09
5.58171e-09
5.57568e-09
5.56964e-09
5.56358e-09
5.55749e-09
5.55139e-09
5.54526e-09
5.53912e-09
5.53295e-09
5.52677e-09
5.52057e-09
5.51435e-09
5.50811e-09
5.50185e-09
5.49557e-09
5.48928e-09
5.48296e-09
5.47663e-09
5.47028e-09
5.46391e-09
5.45752e-09
5.45112e-09
5.4447e-09
5.43826e-09
5.43181e-09
5.42534e-09
5.41885e-09
5.41234e-09
5.40582e-09
5.39928e-09
5.39272e-09
5.38615e-09
5.37957e-09
5.37296e-09
5.36635e-09
5.35971e-09
5.35306e-09
5.3464e-09
5.33972e-09
5.33302e-09
5.32631e-09
5.31959e-09
5.31285e-09
5.3061e-09
5.29933e-09
5.29255e-09
5.28576e-09
5.27895e-09
5.27213e-09
5.26529e-09
5.25844e-09
5.25158e-09
5.24471e-09
5.23782e-09
5.23092e-09
5.224e-09
5.21708e-09
5.21014e-09
5.20319e-09
5.19623e-09
5.18926e-09
5.18227e-09
5.17527e-09
5.16827e-09
5.16125e-09
5.15422e-09
5.14718e-09
5.14012e-09
5.13306e-09
5.12599e-09
5.1189e-09
5.11181e-09
5.10471e-09
5.09759e-09
5.09047e-09
5.08334e-09
5.0762e-09
5.06905e-09
5.06189e-09
5.05472e-09
5.04754e-09
5.04035e-09
5.03316e-09
5.02595e-09
5.01874e-09
5.01152e-09
5.00429e-09
4.99706e-09
4.98981e-09
4.98256e-09
4.9753e-09
4.96804e-09
4.96077e-09
4.95349e-09
4.9462e-09
4.93891e-09
4.93161e-09
4.92431e-09
4.917e-09
4.90968e-09
4.90236e-09
4.89503e-09
4.88769e-09
4.88036e-09
4.87301e-09
4.86566e-09
4.85831e-09
4.85095e-09
4.84359e-09
4.83622e-09
4.82885e-09
4.82147e-09
4.81409e-09
4.80671e-09
4.79933e-09
4.79194e-09
4.78454e-09
4.77715e-09
4.76975e-09
4.76235e-09
4.75495e-09
4.74754e-09
4.74013e-09
4.73273e-09
4.72532e-09
4.7179e-09
4.71049e-09
4.70308e-09
4.69566e-09
4.68825e-09
4.68083e-09
4.67341e-09
4.666e-09
4.65858e-09
4.65117e-09
4.64376e-09
4.63634e-09
4.62893e-09
4.62152e-09
4.61412e-09
4.60671e-09
4.59931e-09
4.59191e-09
4.58451e-09
4.57712e-09
4.56973e-09
4.56235e-09
4.55497e-09
4.54759e-09
4.54022e-09
4.53286e-09
4.5255e-09
4.51815e-09
4.51081e-09
4.50348e-09
4.49615e-09
4.48884e-09
4.48153e-09
4.47423e-09
4.46695e-09
4.45967e-09
4.45241e-09
4.44516e-09
4.43793e-09
4.43071e-09
4.42351e-09
4.41632e-09
4.40916e-09
4.40201e-09
4.39488e-09
4.38778e-09
4.38069e-09
4.37364e-09
4.3666e-09
4.3596e-09
4.35262e-09
4.34568e-09
4.33877e-09
4.33189e-09
4.32506e-09
4.31826e-09
4.3115e-09
4.30479e-09
4.29813e-09
4.29152e-09
4.28496e-09
4.27846e-09
4.27202e-09
4.26564e-09
4.25932e-09
4.25307e-09
4.24687e-09
4.24073e-09
4.23463e-09
4.22854e-09
4.22243e-09
4.21624e-09
4.20992e-09
4.20342e-09
4.19657e-09
4.18846e-09
2.54409e-06
4.21788e-07
1.22749e-07
5.93271e-08
4.19473e-08
3.62261e-08
3.41136e-08
3.3273e-08
3.29148e-08
3.27474e-08
3.26588e-08
3.26048e-08
3.25674e-08
3.25394e-08
3.25174e-08
3.24996e-08
3.2485e-08
3.2473e-08
3.24631e-08
3.2455e-08
3.24483e-08
3.2443e-08
3.24387e-08
3.24353e-08
3.24328e-08
3.2431e-08
3.24298e-08
3.24292e-08
3.24292e-08
3.24295e-08
3.24303e-08
3.24315e-08
3.2433e-08
3.24348e-08
3.24369e-08
3.24393e-08
3.24419e-08
3.24447e-08
3.24478e-08
3.24511e-08
3.24545e-08
3.24581e-08
3.24619e-08
3.24658e-08
3.24698e-08
3.24739e-08
3.24782e-08
3.24826e-08
3.24871e-08
3.24916e-08
3.24963e-08
3.25011e-08
3.25059e-08
3.25109e-08
3.25159e-08
3.2521e-08
3.25261e-08
3.25313e-08
3.25366e-08
3.2542e-08
3.25474e-08
3.25528e-08
3.25584e-08
3.25639e-08
3.25695e-08
3.25752e-08
3.25809e-08
3.25866e-08
3.25924e-08
3.25982e-08
3.2604e-08
3.26098e-08
3.26156e-08
3.26213e-08
3.26271e-08
3.26328e-08
3.26385e-08
3.26442e-08
3.26498e-08
3.26554e-08
3.26611e-08
3.26667e-08
3.26723e-08
3.2678e-08
3.26836e-08
3.26893e-08
3.26949e-08
3.27006e-08
3.27062e-08
3.27119e-08
3.27176e-08
3.27233e-08
3.2729e-08
3.27347e-08
3.27405e-08
3.27462e-08
3.27519e-08
3.27577e-08
3.27635e-08
3.27693e-08
3.27751e-08
3.27809e-08
3.27868e-08
3.27926e-08
3.27985e-08
3.28044e-08
3.28103e-08
3.28162e-08
3.28221e-08
3.28281e-08
3.2834e-08
3.284e-08
3.2846e-08
3.28519e-08
3.28579e-08
3.28638e-08
3.28698e-08
3.28757e-08
3.28817e-08
3.28876e-08
3.28936e-08
3.28995e-08
3.29055e-08
3.29114e-08
3.29174e-08
3.29233e-08
3.29293e-08
3.29353e-08
3.29412e-08
3.29472e-08
3.29532e-08
3.29592e-08
3.29652e-08
3.29712e-08
3.29772e-08
3.29832e-08
3.29893e-08
3.29953e-08
3.30014e-08
3.30074e-08
3.30135e-08
3.30196e-08
3.30257e-08
3.30318e-08
3.30379e-08
3.3044e-08
3.30501e-08
3.30562e-08
3.30623e-08
3.30685e-08
3.30746e-08
3.30807e-08
3.30869e-08
3.3093e-08
3.30992e-08
3.31053e-08
3.31115e-08
3.31176e-08
3.31238e-08
3.31299e-08
3.31361e-08
3.31423e-08
3.31484e-08
3.31546e-08
3.31608e-08
3.3167e-08
3.31732e-08
3.31793e-08
3.31855e-08
3.31917e-08
3.31979e-08
3.32042e-08
3.32104e-08
3.32166e-08
3.32228e-08
3.3229e-08
3.32353e-08
3.32415e-08
3.32477e-08
3.3254e-08
3.32602e-08
3.32664e-08
3.32727e-08
3.32789e-08
3.32852e-08
3.32914e-08
3.32976e-08
3.33039e-08
3.33101e-08
3.33164e-08
3.33226e-08
3.33289e-08
3.33351e-08
3.33414e-08
3.33476e-08
3.33539e-08
3.33601e-08
3.33664e-08
3.33726e-08
3.33789e-08
3.33852e-08
3.33915e-08
3.33977e-08
3.3404e-08
3.34103e-08
3.34165e-08
3.34228e-08
3.34291e-08
3.34354e-08
3.34416e-08
3.34479e-08
3.34542e-08
3.34605e-08
3.34667e-08
3.3473e-08
3.34792e-08
3.34855e-08
3.34918e-08
3.3498e-08
3.35043e-08
3.35105e-08
3.35168e-08
3.3523e-08
3.35293e-08
3.35355e-08
3.35418e-08
3.3548e-08
3.35543e-08
3.35605e-08
3.35667e-08
3.3573e-08
3.35792e-08
3.35854e-08
3.35917e-08
3.35979e-08
3.36041e-08
3.36103e-08
3.36166e-08
3.36228e-08
3.3629e-08
3.36352e-08
3.36414e-08
3.36476e-08
3.36538e-08
3.366e-08
3.36662e-08
3.36724e-08
3.36786e-08
3.36848e-08
3.36909e-08
3.36971e-08
3.37033e-08
3.37095e-08
3.37156e-08
3.37218e-08
3.37279e-08
3.37341e-08
3.37402e-08
3.37464e-08
3.37525e-08
3.37586e-08
3.37647e-08
3.37709e-08
3.3777e-08
3.37831e-08
3.37892e-08
3.37953e-08
3.38014e-08
3.38075e-08
3.38135e-08
3.38196e-08
3.38257e-08
3.38317e-08
3.38378e-08
3.38438e-08
3.38499e-08
3.38559e-08
3.38619e-08
3.38679e-08
3.3874e-08
3.388e-08
3.3886e-08
3.3892e-08
3.38979e-08
3.39039e-08
3.39099e-08
3.39158e-08
3.39218e-08
3.39277e-08
3.39337e-08
3.39396e-08
3.39455e-08
3.39515e-08
3.39574e-08
3.39633e-08
3.39691e-08
3.3975e-08
3.39809e-08
3.39868e-08
3.39926e-08
3.39985e-08
3.40043e-08
3.40101e-08
3.40159e-08
3.40218e-08
3.40276e-08
3.40333e-08
3.40391e-08
3.40449e-08
3.40507e-08
3.40564e-08
3.40622e-08
3.40679e-08
3.40736e-08
3.40793e-08
3.4085e-08
3.40907e-08
3.40964e-08
3.41021e-08
3.41077e-08
3.41134e-08
3.4119e-08
3.41246e-08
3.41303e-08
3.41359e-08
3.41415e-08
3.4147e-08
3.41526e-08
3.41582e-08
3.41637e-08
3.41693e-08
3.41748e-08
3.41803e-08
3.41858e-08
3.41913e-08
3.41968e-08
3.42023e-08
3.42077e-08
3.42132e-08
3.42186e-08
3.4224e-08
3.42294e-08
3.42348e-08
3.42402e-08
3.42456e-08
3.42509e-08
3.42563e-08
3.42616e-08
3.42669e-08
3.42722e-08
3.42775e-08
3.42828e-08
3.42881e-08
3.42933e-08
3.42986e-08
3.43038e-08
3.4309e-08
3.43142e-08
3.43194e-08
3.43246e-08
3.43297e-08
3.43349e-08
3.434e-08
3.43451e-08
3.43502e-08
3.43553e-08
3.43604e-08
3.43655e-08
3.43705e-08
3.43755e-08
3.43806e-08
3.43856e-08
3.43905e-08
3.43955e-08
3.44005e-08
3.44054e-08
3.44104e-08
3.44153e-08
3.44202e-08
3.44251e-08
3.44299e-08
3.44348e-08
3.44396e-08
3.44445e-08
3.44493e-08
3.44541e-08
3.44588e-08
3.44636e-08
3.44684e-08
3.44731e-08
3.44778e-08
3.44825e-08
3.44872e-08
3.44919e-08
3.44965e-08
3.45012e-08
3.45058e-08
3.45104e-08
3.4515e-08
3.45195e-08
3.45241e-08
3.45286e-08
3.45332e-08
3.45377e-08
3.45422e-08
3.45466e-08
3.45511e-08
3.45555e-08
3.456e-08
3.45644e-08
3.45688e-08
3.45731e-08
3.45775e-08
3.45818e-08
3.45862e-08
3.45905e-08
3.45948e-08
3.4599e-08
3.46033e-08
3.46075e-08
3.46117e-08
3.46159e-08
3.46201e-08
3.46243e-08
3.46284e-08
3.46326e-08
3.46367e-08
3.46408e-08
3.46449e-08
3.46489e-08
3.4653e-08
3.4657e-08
3.4661e-08
3.4665e-08
3.4669e-08
3.46729e-08
3.46769e-08
3.46808e-08
3.46847e-08
3.46886e-08
3.46924e-08
3.46963e-08
3.47001e-08
3.47039e-08
3.47077e-08
3.47115e-08
3.47152e-08
3.4719e-08
3.47227e-08
3.47264e-08
3.47301e-08
3.47337e-08
3.47374e-08
3.4741e-08
3.47446e-08
3.47482e-08
3.47518e-08
3.47553e-08
3.47589e-08
3.47624e-08
3.47659e-08
3.47693e-08
3.47728e-08
3.47762e-08
3.47797e-08
3.47831e-08
3.47864e-08
3.47898e-08
3.47931e-08
3.47965e-08
3.47998e-08
3.4803e-08
3.48063e-08
3.48096e-08
3.48128e-08
3.4816e-08
3.48192e-08
3.48224e-08
3.48255e-08
3.48286e-08
3.48317e-08
3.48348e-08
3.48379e-08
3.4841e-08
3.4844e-08
3.4847e-08
3.485e-08
3.4853e-08
3.48559e-08
3.48589e-08
3.48618e-08
3.48647e-08
3.48676e-08
3.48704e-08
3.48733e-08
3.48761e-08
3.48789e-08
3.48816e-08
3.48844e-08
3.48871e-08
3.48899e-08
3.48926e-08
3.48952e-08
3.48979e-08
3.49005e-08
3.49032e-08
3.49058e-08
3.49084e-08
3.49109e-08
3.49135e-08
3.4916e-08
3.49185e-08
3.4921e-08
3.49234e-08
3.49259e-08
3.49283e-08
3.49307e-08
3.49331e-08
3.49354e-08
3.49378e-08
3.49401e-08
3.49424e-08
3.49447e-08
3.4947e-08
3.49492e-08
3.49514e-08
3.49536e-08
3.49558e-08
3.4958e-08
3.49601e-08
3.49623e-08
3.49644e-08
3.49665e-08
3.49685e-08
3.49706e-08
3.49726e-08
3.49746e-08
3.49766e-08
3.49786e-08
3.49805e-08
3.49824e-08
3.49844e-08
3.49862e-08
3.49881e-08
3.499e-08
3.49918e-08
3.49936e-08
3.49954e-08
3.49972e-08
3.49989e-08
3.50006e-08
3.50023e-08
3.5004e-08
3.50057e-08
3.50074e-08
3.5009e-08
3.50106e-08
3.50122e-08
3.50138e-08
3.50153e-08
3.50169e-08
3.50184e-08
3.50199e-08
3.50214e-08
3.50228e-08
3.50242e-08
3.50257e-08
3.50271e-08
3.50284e-08
3.50298e-08
3.50311e-08
3.50325e-08
3.50338e-08
3.5035e-08
3.50363e-08
3.50376e-08
3.50388e-08
3.504e-08
3.50412e-08
3.50423e-08
3.50435e-08
3.50446e-08
3.50457e-08
3.50468e-08
3.50479e-08
3.50489e-08
3.505e-08
3.5051e-08
3.5052e-08
3.50529e-08
3.50539e-08
3.50548e-08
3.50558e-08
3.50567e-08
3.50575e-08
3.50584e-08
3.50592e-08
3.50601e-08
3.50609e-08
3.50617e-08
3.50624e-08
3.50632e-08
3.50639e-08
3.50646e-08
3.50653e-08
3.5066e-08
3.50667e-08
3.50673e-08
3.50679e-08
3.50685e-08
3.50691e-08
3.50697e-08
3.50702e-08
3.50708e-08
3.50713e-08
3.50718e-08
3.50722e-08
3.50727e-08
3.50731e-08
3.50736e-08
3.5074e-08
3.50744e-08
3.50747e-08
3.50751e-08
3.50754e-08
3.50757e-08
3.5076e-08
3.50763e-08
3.50766e-08
3.50768e-08
3.5077e-08
3.50772e-08
3.50774e-08
3.50776e-08
3.50778e-08
3.50779e-08
3.5078e-08
3.50781e-08
3.50782e-08
3.50783e-08
3.50784e-08
3.50784e-08
3.50784e-08
3.50784e-08
3.50784e-08
3.50784e-08
3.50783e-08
3.50783e-08
3.50782e-08
3.50781e-08
3.5078e-08
3.50778e-08
3.50777e-08
3.50775e-08
3.50774e-08
3.50772e-08
3.50769e-08
3.50767e-08
3.50765e-08
3.50762e-08
3.50759e-08
3.50756e-08
3.50753e-08
3.5075e-08
3.50747e-08
3.50743e-08
3.50739e-08
3.50735e-08
3.50731e-08
3.50727e-08
3.50723e-08
3.50718e-08
3.50714e-08
3.50709e-08
3.50704e-08
3.50699e-08
3.50694e-08
3.50688e-08
3.50683e-08
3.50677e-08
3.50671e-08
3.50665e-08
3.50659e-08
3.50652e-08
3.50646e-08
3.50639e-08
3.50632e-08
3.50626e-08
3.50618e-08
3.50611e-08
3.50604e-08
3.50596e-08
3.50589e-08
3.50581e-08
3.50573e-08
3.50565e-08
3.50557e-08
3.50548e-08
3.5054e-08
3.50531e-08
3.50522e-08
3.50514e-08
3.50505e-08
3.50495e-08
3.50486e-08
3.50477e-08
3.50467e-08
3.50457e-08
3.50447e-08
3.50437e-08
3.50427e-08
3.50417e-08
3.50407e-08
3.50396e-08
3.50385e-08
3.50375e-08
3.50364e-08
3.50353e-08
3.50342e-08
3.5033e-08
3.50319e-08
3.50307e-08
3.50296e-08
3.50284e-08
3.50272e-08
3.5026e-08
3.50248e-08
3.50235e-08
3.50223e-08
3.5021e-08
3.50198e-08
3.50185e-08
3.50172e-08
3.50159e-08
3.50146e-08
3.50133e-08
3.50119e-08
3.50106e-08
3.50092e-08
3.50079e-08
3.50065e-08
3.50051e-08
3.50037e-08
3.50023e-08
3.50008e-08
3.49994e-08
3.4998e-08
3.49965e-08
3.4995e-08
3.49936e-08
3.49921e-08
3.49906e-08
3.4989e-08
3.49875e-08
3.4986e-08
3.49844e-08
3.49829e-08
3.49813e-08
3.49798e-08
3.49782e-08
3.49766e-08
3.4975e-08
3.49734e-08
3.49717e-08
3.49701e-08
3.49684e-08
3.49668e-08
3.49651e-08
3.49635e-08
3.49618e-08
3.49601e-08
3.49584e-08
3.49567e-08
3.4955e-08
3.49532e-08
3.49515e-08
3.49497e-08
3.4948e-08
3.49462e-08
3.49445e-08
3.49427e-08
3.49409e-08
3.49391e-08
3.49373e-08
3.49355e-08
3.49336e-08
3.49318e-08
3.493e-08
3.49281e-08
3.49263e-08
3.49244e-08
3.49225e-08
3.49206e-08
3.49188e-08
3.49169e-08
3.4915e-08
3.49131e-08
3.49111e-08
3.49092e-08
3.49073e-08
3.49053e-08
3.49034e-08
3.49014e-08
3.48995e-08
3.48975e-08
3.48955e-08
3.48935e-08
3.48916e-08
3.48896e-08
3.48876e-08
3.48856e-08
3.48835e-08
3.48815e-08
3.48795e-08
3.48775e-08
3.48754e-08
3.48734e-08
3.48713e-08
3.48693e-08
3.48672e-08
3.48651e-08
3.4863e-08
3.4861e-08
3.48589e-08
3.48568e-08
3.48547e-08
3.48526e-08
3.48505e-08
3.48483e-08
3.48462e-08
3.48441e-08
3.4842e-08
3.48398e-08
3.48377e-08
3.48355e-08
3.48334e-08
3.48312e-08
3.48291e-08
3.48269e-08
3.48247e-08
3.48226e-08
3.48204e-08
3.48182e-08
3.4816e-08
3.48138e-08
3.48116e-08
3.48094e-08
3.48072e-08
3.4805e-08
3.48028e-08
3.48006e-08
3.47984e-08
3.47962e-08
3.47939e-08
3.47917e-08
3.47895e-08
3.47872e-08
3.4785e-08
3.47828e-08
3.47805e-08
3.47783e-08
3.4776e-08
3.47737e-08
3.47715e-08
3.47692e-08
3.4767e-08
3.47647e-08
3.47624e-08
3.47602e-08
3.47579e-08
3.47556e-08
3.47533e-08
3.4751e-08
3.47488e-08
3.47465e-08
3.47442e-08
3.47419e-08
3.47396e-08
3.47373e-08
3.4735e-08
3.47327e-08
3.47304e-08
3.47281e-08
3.47258e-08
3.47235e-08
3.47212e-08
3.47189e-08
3.47166e-08
3.47143e-08
3.4712e-08
3.47096e-08
3.47073e-08
3.4705e-08
3.47027e-08
3.47004e-08
3.46981e-08
3.46957e-08
3.46934e-08
3.46911e-08
3.46888e-08
3.46865e-08
3.46842e-08
3.46818e-08
3.46795e-08
3.46772e-08
3.46749e-08
3.46726e-08
3.46702e-08
3.46679e-08
3.46656e-08
3.46633e-08
3.4661e-08
3.46586e-08
3.46563e-08
3.4654e-08
3.46517e-08
3.46494e-08
3.46471e-08
3.46447e-08
3.46424e-08
3.46401e-08
3.46378e-08
3.46355e-08
3.46332e-08
3.46309e-08
3.46286e-08
3.46263e-08
3.4624e-08
3.46217e-08
3.46194e-08
3.46171e-08
3.46148e-08
3.46125e-08
3.46102e-08
3.4608e-08
3.46057e-08
3.46034e-08
3.46011e-08
3.45989e-08
3.45966e-08
3.45943e-08
3.45921e-08
3.45898e-08
3.45876e-08
3.45853e-08
3.45831e-08
3.45809e-08
3.45786e-08
3.45764e-08
3.45742e-08
3.4572e-08
3.45698e-08
3.45676e-08
3.45654e-08
3.45632e-08
3.4561e-08
3.45589e-08
3.45567e-08
3.45545e-08
3.45524e-08
3.45503e-08
3.45481e-08
3.4546e-08
3.45439e-08
3.45418e-08
3.45398e-08
3.45377e-08
3.45357e-08
3.45336e-08
3.45316e-08
3.45296e-08
3.45276e-08
3.45257e-08
3.45237e-08
3.45218e-08
3.45199e-08
3.4518e-08
3.45161e-08
3.45143e-08
3.45125e-08
3.45107e-08
3.4509e-08
3.45072e-08
3.45056e-08
3.45039e-08
3.45023e-08
3.45007e-08
3.44991e-08
3.44976e-08
3.44961e-08
3.44946e-08
3.4493e-08
3.44914e-08
3.44895e-08
3.44873e-08
3.44845e-08
3.4481e-08
3.44767e-08
3.44717e-08
3.44669e-08
1.81511e-05
4.10481e-06
1.64455e-06
9.5294e-07
7.27962e-07
6.49235e-07
6.20831e-07
6.10655e-07
6.0719e-07
6.06155e-07
6.05956e-07
6.06014e-07
6.0613e-07
6.06243e-07
6.06339e-07
6.06417e-07
6.06481e-07
6.06532e-07
6.06574e-07
6.0661e-07
6.06639e-07
6.06664e-07
6.06686e-07
6.06704e-07
6.06721e-07
6.06735e-07
6.06747e-07
6.06759e-07
6.06768e-07
6.06777e-07
6.06786e-07
6.06793e-07
6.068e-07
6.06806e-07
6.06812e-07
6.06817e-07
6.06822e-07
6.06827e-07
6.06832e-07
6.06836e-07
6.0684e-07
6.06844e-07
6.06848e-07
6.06851e-07
6.06855e-07
6.06858e-07
6.06861e-07
6.06864e-07
6.06867e-07
6.0687e-07
6.06873e-07
6.06876e-07
6.06879e-07
6.06881e-07
6.06884e-07
6.06887e-07
6.06889e-07
6.06892e-07
6.06894e-07
6.06897e-07
6.069e-07
6.06902e-07
6.06904e-07
6.06907e-07
6.06909e-07
6.06911e-07
6.06914e-07
6.06916e-07
6.06918e-07
6.06919e-07
6.06921e-07
6.06922e-07
6.06923e-07
6.06923e-07
6.06924e-07
6.06924e-07
6.06924e-07
6.06924e-07
6.06924e-07
6.06924e-07
6.06924e-07
6.06924e-07
6.06925e-07
6.06926e-07
6.06926e-07
6.06927e-07
6.06928e-07
6.06929e-07
6.0693e-07
6.06931e-07
6.06932e-07
6.06933e-07
6.06934e-07
6.06936e-07
6.06937e-07
6.06938e-07
6.0694e-07
6.06941e-07
6.06942e-07
6.06944e-07
6.06945e-07
6.06947e-07
6.06949e-07
6.0695e-07
6.06952e-07
6.06953e-07
6.06955e-07
6.06957e-07
6.06959e-07
6.0696e-07
6.06962e-07
6.06963e-07
6.06965e-07
6.06966e-07
6.06968e-07
6.06969e-07
6.0697e-07
6.06971e-07
6.06972e-07
6.06973e-07
6.06975e-07
6.06976e-07
6.06977e-07
6.06979e-07
6.0698e-07
6.06981e-07
6.06983e-07
6.06984e-07
6.06986e-07
6.06987e-07
6.06989e-07
6.06991e-07
6.06992e-07
6.06994e-07
6.06996e-07
6.06997e-07
6.06999e-07
6.07001e-07
6.07002e-07
6.07004e-07
6.07006e-07
6.07008e-07
6.0701e-07
6.07011e-07
6.07013e-07
6.07015e-07
6.07017e-07
6.07019e-07
6.0702e-07
6.07022e-07
6.07024e-07
6.07025e-07
6.07027e-07
6.07029e-07
6.07031e-07
6.07032e-07
6.07034e-07
6.07036e-07
6.07038e-07
6.0704e-07
6.07041e-07
6.07043e-07
6.07045e-07
6.07047e-07
6.07049e-07
6.07051e-07
6.07052e-07
6.07054e-07
6.07056e-07
6.07058e-07
6.0706e-07
6.07062e-07
6.07064e-07
6.07066e-07
6.07068e-07
6.0707e-07
6.07072e-07
6.07074e-07
6.07076e-07
6.07077e-07
6.07079e-07
6.07081e-07
6.07083e-07
6.07085e-07
6.07087e-07
6.07089e-07
6.07091e-07
6.07093e-07
6.07095e-07
6.07097e-07
6.07099e-07
6.07101e-07
6.07103e-07
6.07105e-07
6.07107e-07
6.07109e-07
6.07111e-07
6.07113e-07
6.07115e-07
6.07117e-07
6.07119e-07
6.07121e-07
6.07123e-07
6.07125e-07
6.07127e-07
6.07129e-07
6.07132e-07
6.07134e-07
6.07136e-07
6.07138e-07
6.0714e-07
6.07142e-07
6.07144e-07
6.07146e-07
6.07148e-07
6.0715e-07
6.07152e-07
6.07154e-07
6.07156e-07
6.07158e-07
6.0716e-07
6.07162e-07
6.07165e-07
6.07167e-07
6.07169e-07
6.07171e-07
6.07173e-07
6.07175e-07
6.07177e-07
6.07179e-07
6.07181e-07
6.07184e-07
6.07186e-07
6.07188e-07
6.0719e-07
6.07192e-07
6.07194e-07
6.07196e-07
6.07199e-07
6.07201e-07
6.07203e-07
6.07205e-07
6.07207e-07
6.07209e-07
6.07212e-07
6.07214e-07
6.07216e-07
6.07218e-07
6.0722e-07
6.07222e-07
6.07225e-07
6.07227e-07
6.07229e-07
6.07231e-07
6.07233e-07
6.07236e-07
6.07238e-07
6.0724e-07
6.07242e-07
6.07244e-07
6.07246e-07
6.07249e-07
6.07251e-07
6.07253e-07
6.07255e-07
6.07257e-07
6.0726e-07
6.07262e-07
6.07264e-07
6.07266e-07
6.07268e-07
6.0727e-07
6.07273e-07
6.07275e-07
6.07277e-07
6.07279e-07
6.07281e-07
6.07284e-07
6.07286e-07
6.07288e-07
6.0729e-07
6.07292e-07
6.07294e-07
6.07297e-07
6.07299e-07
6.07301e-07
6.07303e-07
6.07305e-07
6.07307e-07
6.0731e-07
6.07312e-07
6.07314e-07
6.07316e-07
6.07318e-07
6.0732e-07
6.07323e-07
6.07325e-07
6.07327e-07
6.07329e-07
6.07331e-07
6.07333e-07
6.07336e-07
6.07338e-07
6.0734e-07
6.07342e-07
6.07344e-07
6.07346e-07
6.07349e-07
6.07351e-07
6.07353e-07
6.07355e-07
6.07357e-07
6.07359e-07
6.07361e-07
6.07364e-07
6.07366e-07
6.07368e-07
6.0737e-07
6.07372e-07
6.07374e-07
6.07376e-07
6.07378e-07
6.07381e-07
6.07383e-07
6.07385e-07
6.07387e-07
6.07389e-07
6.07391e-07
6.07393e-07
6.07395e-07
6.07397e-07
6.074e-07
6.07402e-07
6.07404e-07
6.07406e-07
6.07408e-07
6.0741e-07
6.07412e-07
6.07414e-07
6.07416e-07
6.07418e-07
6.0742e-07
6.07422e-07
6.07425e-07
6.07427e-07
6.07429e-07
6.07431e-07
6.07433e-07
6.07435e-07
6.07437e-07
6.07439e-07
6.07441e-07
6.07443e-07
6.07445e-07
6.07447e-07
6.07449e-07
6.07451e-07
6.07453e-07
6.07455e-07
6.07457e-07
6.07459e-07
6.07461e-07
6.07463e-07
6.07465e-07
6.07467e-07
6.07469e-07
6.07471e-07
6.07473e-07
6.07475e-07
6.07477e-07
6.07479e-07
6.07481e-07
6.07483e-07
6.07485e-07
6.07487e-07
6.07489e-07
6.07491e-07
6.07493e-07
6.07495e-07
6.07496e-07
6.07498e-07
6.075e-07
6.07502e-07
6.07504e-07
6.07506e-07
6.07508e-07
6.0751e-07
6.07512e-07
6.07514e-07
6.07516e-07
6.07517e-07
6.07519e-07
6.07521e-07
6.07523e-07
6.07525e-07
6.07527e-07
6.07529e-07
6.07531e-07
6.07532e-07
6.07534e-07
6.07536e-07
6.07538e-07
6.0754e-07
6.07542e-07
6.07543e-07
6.07545e-07
6.07547e-07
6.07549e-07
6.07551e-07
6.07552e-07
6.07554e-07
6.07556e-07
6.07558e-07
6.0756e-07
6.07561e-07
6.07563e-07
6.07565e-07
6.07567e-07
6.07568e-07
6.0757e-07
6.07572e-07
6.07574e-07
6.07575e-07
6.07577e-07
6.07579e-07
6.07581e-07
6.07582e-07
6.07584e-07
6.07586e-07
6.07587e-07
6.07589e-07
6.07591e-07
6.07592e-07
6.07594e-07
6.07596e-07
6.07598e-07
6.07599e-07
6.07601e-07
6.07602e-07
6.07604e-07
6.07606e-07
6.07607e-07
6.07609e-07
6.07611e-07
6.07612e-07
6.07614e-07
6.07616e-07
6.07617e-07