/*--------------------------------*- C++ -*----------------------------------*\
| =========                 |                                                 |
| \\      /  F ield         | OpenFOAM: The Open Source CFD Toolbox           |
|  \\    /   O peration     | Version:  2512                                  |
|   \\  /    A nd           | Website:  www.openfoam.com                      |
|    \\/     M anipulation  |                                                 |
\*---------------------------------------------------------------------------*/
FoamFile
{
    version     2.0;
    format      ascii;
    arch        "LSB;label=32;scalar=64";
    class       volScalarField;
    location    "0.002";
    object      p;
}
// * * * * * * * * * * * * * * * * * * * * * * * * * * * * * * * * * * * * * //

dimensions      [1 -1 -2 0 0 0 0];

internalField   nonuniform List<scalar> 
100000
(
0
-62.7011
-90.7763
-103.727
-111.193
-115.962
-119.265
-121.789
-123.891
-125.752
-127.466
-129.087
-130.645
-132.162
-133.651
-135.125
-136.591
-138.057
-139.527
-141.006
-142.499
-144.008
-145.537
-147.088
-148.663
-150.264
-151.893
-153.551
-155.239
-156.958
-158.71
-160.496
-162.316
-164.171
-166.062
-167.99
-169.958
-171.967
-174.013
-176.091
-178.207
-180.363
-182.559
-184.795
-187.069
-189.381
-191.734
-194.132
-196.572
-199.054
-201.577
-204.142
-206.748
-209.396
-212.086
-214.818
-217.592
-220.409
-223.268
-226.17
-229.114
-232.101
-235.131
-238.203
-241.319
-244.477
-247.679
-250.923
-254.211
-257.542
-260.917
-264.335
-267.796
-271.301
-274.849
-278.441
-282.075
-285.754
-289.475
-293.239
-297.047
-300.898
-304.792
-308.729
-312.71
-316.734
-320.801
-324.911
-329.064
-333.261
-337.501
-341.785
-346.111
-350.481
-354.894
-359.351
-363.851
-368.394
-372.981
-377.611
-382.284
-387.001
-391.761
-396.564
-401.411
-406.301
-411.235
-416.212
-421.232
-426.296
-431.404
-436.554
-441.749
-446.986
-452.268
-457.592
-462.96
-468.372
-473.827
-479.325
-484.866
-490.451
-496.08
-501.751
-507.466
-513.224
-519.026
-524.871
-530.759
-536.69
-542.665
-548.683
-554.744
-560.849
-566.997
-573.188
-579.422
-585.7
-592.021
-598.385
-604.793
-611.244
-617.738
-624.275
-630.856
-637.48
-644.147
-650.857
-657.611
-664.408
-671.248
-678.131
-685.058
-692.027
-699.04
-706.097
-713.196
-720.338
-727.524
-734.753
-742.025
-749.34
-756.698
-764.099
-771.544
-779.031
-786.562
-794.135
-801.752
-809.412
-817.115
-824.861
-832.649
-840.481
-848.356
-856.274
-864.235
-872.239
-880.286
-888.376
-896.509
-904.685
-912.904
-921.165
-929.47
-937.818
-946.208
-954.641
-963.117
-971.636
-980.198
-988.803
-997.45
-1006.14
-1014.87
-1023.65
-1032.47
-1041.33
-1050.23
-1059.18
-1068.17
-1077.2
-1086.28
-1095.39
-1104.55
-1113.76
-1123
-1132.29
-1141.62
-1150.99
-1160.41
-1169.87
-1179.37
-1188.91
-1198.5
-1208.12
-1217.8
-1227.51
-1237.26
-1247.06
-1256.9
-1266.78
-1276.71
-1286.68
-1296.69
-1306.74
-1316.83
-1326.97
-1337.15
-1347.37
-1357.63
-1367.94
-1378.28
-1388.67
-1399.1
-1409.58
-1420.09
-1430.65
-1441.25
-1451.89
-1462.58
-1473.3
-1484.07
-1494.88
-1505.73
-1516.62
-1527.56
-1538.53
-1549.55
-1560.61
-1571.72
-1582.86
-1594.04
-1605.27
-1616.54
-1627.85
-1639.2
-1650.6
-1662.03
-1673.51
-1685.02
-1696.58
-1708.18
-1719.83
-1731.51
-1743.23
-1755
-1766.81
-1778.66
-1790.55
-1802.48
-1814.45
-1826.46
-1838.52
-1850.61
-1862.75
-1874.92
-1887.14
-1899.4
-1911.7
-1924.04
-1936.42
-1948.85
-1961.31
-1973.81
-1986.36
-1998.94
-2011.57
-2024.23
-2036.94
-2049.69
-2062.48
-2075.3
-2088.17
-2101.08
-2114.03
-2127.02
-2140.05
-2153.12
-2166.23
-2179.38
-2192.57
-2205.8
-2219.07
-2232.38
-2245.73
-2259.12
-2272.55
-2286.02
-2299.53
-2313.08
-2326.67
-2340.29
-2353.96
-2367.67
-2381.42
-2395.2
-2409.03
-2422.89
-2436.8
-2450.74
-2464.72
-2478.74
-2492.8
-2506.9
-2521.04
-2535.22
-2549.44
-2563.69
-2577.99
-2592.32
-2606.69
-2621.1
-2635.55
-2650.04
-2664.56
-2679.13
-2693.73
-2708.37
-2723.05
-2737.77
-2752.53
-2767.32
-2782.15
-2797.02
-2811.93
-2826.88
-2841.86
-2856.88
-2871.94
-2887.04
-2902.17
-2917.35
-2932.56
-2947.8
-2963.09
-2978.41
-2993.77
-3009.17
-3024.6
-3040.07
-3055.58
-3071.12
-3086.7
-3102.32
-3117.98
-3133.67
-3149.4
-3165.16
-3180.96
-3196.8
-3212.68
-3228.59
-3244.53
-3260.52
-3276.53
-3292.59
-3308.68
-3324.81
-3340.97
-3357.17
-3373.4
-3389.67
-3405.98
-3422.32
-3438.7
-3455.11
-3471.56
-3488.04
-3504.55
-3521.11
-3537.69
-3554.32
-3570.97
-3587.67
-3604.39
-3621.15
-3637.95
-3654.78
-3671.64
-3688.54
-3705.47
-3722.44
-3739.44
-3756.48
-3773.55
-3790.65
-3807.79
-3824.96
-3842.16
-3859.4
-3876.67
-3893.97
-3911.31
-3928.68
-3946.08
-3963.52
-3980.99
-3998.49
-4016.03
-4033.59
-4051.2
-4068.83
-4086.49
-4104.19
-4121.92
-4139.68
-4157.48
-4175.3
-4193.16
-4211.05
-4228.97
-4246.92
-4264.91
-4282.92
-4300.97
-4319.05
-4337.16
-4355.3
-4373.47
-4391.67
-4409.9
-4428.17
-4446.46
-4464.78
-4483.14
-4501.52
-4519.94
-4538.39
-4556.86
-4575.37
-4593.9
-4612.47
-4631.06
-4649.68
-4668.34
-4687.02
-4705.73
-4724.47
-4743.24
-4762.04
-4780.87
-4799.72
-4818.61
-4837.52
-4856.46
-4875.43
-4894.43
-4913.46
-4932.51
-4951.59
-4970.7
-4989.84
-5009
-5028.2
-5047.41
-5066.66
-5085.93
-5105.23
-5124.56
-5143.92
-5163.3
-5182.7
-5202.14
-5221.6
-5241.08
-5260.59
-5280.13
-5299.7
-5319.29
-5338.9
-5358.54
-5378.21
-5397.9
-5417.62
-5437.36
-5457.12
-5476.92
-5496.73
-5516.57
-5536.44
-5556.33
-5576.24
-5596.18
-5616.14
-5636.12
-5656.13
-5676.17
-5696.22
-5716.3
-5736.4
-5756.53
-5776.68
-5796.85
-5817.04
-5837.26
-5857.5
-5877.76
-5898.05
-5918.35
-5938.68
-5959.03
-5979.4
-5999.8
-6020.21
-6040.65
-6061.11
-6081.58
-6102.08
-6122.6
-6143.15
-6163.71
-6184.29
-6204.89
-6225.51
-6246.16
-6266.82
-6287.5
-6308.2
-6328.93
-6349.67
-6370.43
-6391.21
-6412.01
-6432.82
-6453.66
-6474.51
-6495.39
-6516.28
-6537.19
-6558.12
-6579.06
-6600.02
-6621.01
-6642
-6663.02
-6684.05
-6705.1
-6726.17
-6747.25
-6768.35
-6789.47
-6810.6
-6831.75
-6852.92
-6874.1
-6895.3
-6916.51
-6937.74
-6958.99
-6980.25
-7001.52
-7022.81
-7044.11
-7065.43
-7086.77
-7108.12
-7129.48
-7150.85
-7172.24
-7193.65
-7215.07
-7236.5
-7257.94
-7279.4
-7300.87
-7322.36
-7343.85
-7365.36
-7386.89
-7408.42
-7429.97
-7451.53
-7473.1
-7494.68
-7516.27
-7537.88
-7559.5
-7581.12
-7602.76
-7624.41
-7646.07
-7667.74
-7689.43
-7711.12
-7732.82
-7754.53
-7776.25
-7797.99
-7819.73
-7841.48
-7863.24
-7885.01
-7906.78
-7928.57
-7950.36
-7972.17
-7993.98
-8015.8
-8037.63
-8059.46
-8081.31
-8103.16
-8125.02
-8146.88
-8168.76
-8190.63
-8212.52
-8234.41
-8256.31
-8278.22
-8300.13
-8322.05
-8343.97
-8365.9
-8387.84
-8409.78
-8431.72
-8453.67
-8475.63
-8497.59
-8519.56
-8541.52
-8563.5
-8585.48
-8607.46
-8629.44
-8651.43
-8673.43
-8695.42
-8717.42
-8739.42
-8761.43
-8783.44
-8805.45
-8827.46
-8849.47
-8871.49
-8893.51
-8915.53
-8937.55
-8959.58
-8981.6
-9003.63
-9025.66
-9047.68
-9069.71
-9091.74
-9113.77
-9135.8
-9157.83
-9179.86
-9201.89
-9223.92
-9245.95
-9267.98
-9290
-9312.03
-9334.05
-9356.08
-9378.1
-9400.12
-9422.14
-9444.15
-9466.17
-9488.18
-9510.19
-9532.19
-9554.2
-9576.2
-9598.19
-9620.19
-9642.18
-9664.16
-9686.15
-9708.13
-9730.1
-9752.07
-9774.04
-9796
-9817.96
-9839.91
-9861.86
-9883.8
-9905.74
-9927.67
-9949.6
-9971.52
-9993.43
-10015.3
-10037.2
-10059.1
-10081
-10102.9
-10124.8
-10146.7
-10168.5
-10190.4
-10212.2
-10234.1
-10255.9
-10277.7
-10299.5
-10321.3
-10343.1
-10364.9
-10386.7
-10408.5
-10430.2
-10452
-10473.7
-10495.5
-10517.2
-10538.9
-10560.6
-10582.3
-10604
-10625.7
-10647.3
-10669
-10690.6
-10712.3
-10733.9
-10755.5
-10777.1
-10798.7
-10820.2
-10841.8
-10863.3
-10884.9
-10906.4
-10927.9
-10949.4
-10970.9
-10992.4
-11013.8
-11035.3
-11056.7
-11078.1
-11099.6
-11120.9
-11142.3
-11163.7
-11185
-11206.4
-11227.7
-11249
-11270.3
-11291.6
-11312.8
-11334.1
-11355.3
-11376.5
-11397.7
-11418.9
-11440.1
-11461.2
-11482.4
-11503.5
-11524.6
-11545.7
-11566.7
-11587.8
-11608.8
-11629.8
-11650.8
-11671.8
-11692.8
-11713.7
-11734.7
-11755.6
-11776.5
-11797.3
-11818.2
-11839
-11859.9
-11880.7
-11901.4
-11922.2
-11942.9
-11963.7
-11984.4
-12005
-12025.7
-12046.4
-12067
-12087.6
-12108.2
-12128.7
-12149.3
-12169.8
-12190.3
-12210.8
-12231.2
-12251.7
-12272.1
-12292.5
-12312.8
-12333.2
-12353.5
-12373.8
-12394.1
-12414.4
-12434.6
-12454.8
-12475
-12495.2
-12515.3
-12535.4
-12555.5
-12575.6
-12595.7
-12615.7
-12635.7
-12655.7
-12675.7
-12695.6
-12715.5
-12735.4
-12755.3
-12775.1
-12794.9
-12814.7
-12834.5
-12854.2
-12873.9
-12893.6
-12913.3
-12932.9
-12952.5
-12972.1
-12991.7
-13011.2
-13030.7
-13050.2
-13069.7
-13089.1
-13108.5
-13127.9
-13147.2
-13166.6
-13185.9
-13205.1
-13224.4
-13243.6
-13262.8
-13282
-13301.1
-13320.2
-13339.3
-13358.4
-13377.4
-13396.4
-13415.3
-13434.3
-13453.2
-13472.1
-13491
-13509.8
-13528.6
-13547.4
-13566.1
-13584.8
-13603.5
-13622.2
-13640.8
-13659.4
-13678
-13696.5
-13715
-13733.5
-13751.9
-13770.4
-13788.8
-13807.1
-13825.5
-13843.8
-13862
-13880.3
-13898.5
-13916.7
-13934.8
-13952.9
-13971
-13989.1
-14007.1
-14025.1
-14043.1
-14061
-14078.9
-14096.8
-14114.7
-14132.5
-14150.3
-14168
-14185.7
-14203.4
-14221.1
-14238.7
-14256.3
-14273.8
-14291.4
-14308.9
-14326.3
-14343.8
-14361.2
-14378.5
-14395.9
-14413.2
-14430.4
-14447.7
-14464.9
-14482.1
-14499.2
-14516.3
-14533.4
-14550.4
-14567.4
-14584.4
-14601.4
-14618.3
-14635.2
-14652
-14668.8
-14685.6
-14702.3
-14719
-14735.7
-14752.4
-14769
-14785.6
-14802.1
-14818.6
-14835.1
-14851.5
-14868
-14884.3
-14900.7
-14917
-14933.3
-14949.5
-14965.7
-14981.9
-14998
-15014.1
-15030.2
-15046.3
-15062.3
-15078.2
-15094.2
-15110.1
-15125.9
-15141.8
-15157.6
-15173.3
-15189.1
-15204.8
-15220.4
-15236
-15251.6
-15267.2
-15282.7
-15298.2
-15313.7
-15329.1
-15344.5
-15359.8
-15375.1
-15390.4
-15405.7
-15420.9
-15436
-15451.2
-15466.3
-15481.3
-15496.4
-15511.4
-15526.3
-15541.3
-15556.2
-59.494
-80.0083
-94.9258
-104.402
-110.773
-115.294
-118.67
-121.347
-123.595
-125.572
-127.373
-129.057
-130.663
-132.215
-133.732
-135.227
-136.709
-138.188
-139.669
-141.158
-142.658
-144.174
-145.708
-147.264
-148.843
-150.448
-152.079
-153.74
-155.431
-157.153
-158.907
-160.694
-162.516
-164.373
-166.265
-168.194
-170.159
-172.159
-174.198
-176.28
-178.4
-180.559
-182.756
-184.992
-187.267
-189.578
-191.932
-194.334
-196.778
-199.262
-201.787
-204.353
-206.96
-209.609
-212.299
-215.032
-217.807
-220.624
-223.484
-226.386
-229.33
-232.317
-235.347
-238.42
-241.536
-244.695
-247.896
-251.141
-254.429
-257.761
-261.135
-264.553
-268.014
-271.519
-275.067
-278.658
-282.293
-285.971
-289.692
-293.456
-297.264
-301.114
-305.008
-308.946
-312.926
-316.95
-321.017
-325.127
-329.28
-333.477
-337.717
-342
-346.327
-350.697
-355.11
-359.567
-364.067
-368.61
-373.197
-377.827
-382.5
-387.217
-391.977
-396.78
-401.627
-406.517
-411.451
-416.428
-421.449
-426.513
-431.62
-436.771
-441.965
-447.203
-452.484
-457.808
-463.176
-468.588
-474.042
-479.541
-485.082
-490.667
-496.295
-501.967
-507.681
-513.44
-519.241
-525.086
-530.974
-536.905
-542.88
-548.898
-554.959
-561.064
-567.212
-573.403
-579.638
-585.915
-592.236
-598.601
-605.008
-611.459
-617.953
-624.491
-631.071
-637.695
-644.362
-651.073
-657.826
-664.623
-671.463
-678.347
-685.273
-692.243
-699.256
-706.312
-713.411
-720.554
-727.739
-734.968
-742.24
-749.555
-756.913
-764.315
-771.759
-779.246
-786.777
-794.351
-801.967
-809.627
-817.33
-825.076
-832.865
-840.697
-848.572
-856.49
-864.451
-872.455
-880.502
-888.592
-896.724
-904.9
-913.119
-921.381
-929.685
-938.033
-946.423
-954.857
-963.333
-971.852
-980.414
-989.018
-997.666
-1006.36
-1015.09
-1023.86
-1032.68
-1041.54
-1050.45
-1059.39
-1068.38
-1077.42
-1086.49
-1095.61
-1104.77
-1113.97
-1123.22
-1132.5
-1141.84
-1151.21
-1160.62
-1170.08
-1179.58
-1189.13
-1198.71
-1208.34
-1218.01
-1227.72
-1237.48
-1247.28
-1257.12
-1267
-1276.93
-1286.89
-1296.9
-1306.95
-1317.05
-1327.18
-1337.36
-1347.58
-1357.85
-1368.15
-1378.5
-1388.89
-1399.32
-1409.79
-1420.31
-1430.87
-1441.47
-1452.11
-1462.79
-1473.52
-1484.28
-1495.09
-1505.95
-1516.84
-1527.77
-1538.75
-1549.77
-1560.83
-1571.93
-1583.07
-1594.26
-1605.49
-1616.76
-1628.07
-1639.42
-1650.81
-1662.25
-1673.72
-1685.24
-1696.8
-1708.4
-1720.04
-1731.73
-1743.45
-1755.22
-1767.02
-1778.87
-1790.76
-1802.69
-1814.66
-1826.68
-1838.73
-1850.83
-1862.96
-1875.14
-1887.36
-1899.62
-1911.92
-1924.26
-1936.64
-1949.06
-1961.52
-1974.03
-1986.57
-1999.16
-2011.78
-2024.45
-2037.16
-2049.9
-2062.69
-2075.52
-2088.39
-2101.3
-2114.25
-2127.24
-2140.26
-2153.33
-2166.44
-2179.59
-2192.78
-2206.01
-2219.28
-2232.59
-2245.94
-2259.33
-2272.76
-2286.23
-2299.74
-2313.29
-2326.88
-2340.51
-2354.18
-2367.88
-2381.63
-2395.42
-2409.24
-2423.11
-2437.01
-2450.95
-2464.94
-2478.96
-2493.02
-2507.12
-2521.26
-2535.43
-2549.65
-2563.91
-2578.2
-2592.53
-2606.91
-2621.32
-2635.77
-2650.25
-2664.78
-2679.34
-2693.95
-2708.59
-2723.27
-2737.99
-2752.74
-2767.54
-2782.37
-2797.24
-2812.15
-2827.09
-2842.08
-2857.1
-2872.16
-2887.25
-2902.39
-2917.56
-2932.77
-2948.02
-2963.3
-2978.62
-2993.98
-3009.38
-3024.81
-3040.28
-3055.79
-3071.34
-3086.92
-3102.54
-3118.19
-3133.88
-3149.61
-3165.38
-3181.18
-3197.01
-3212.89
-3228.8
-3244.75
-3260.73
-3276.75
-3292.8
-3308.89
-3325.02
-3341.18
-3357.38
-3373.62
-3389.89
-3406.19
-3422.53
-3438.91
-3455.32
-3471.77
-3488.25
-3504.77
-3521.32
-3537.91
-3554.53
-3571.19
-3587.88
-3604.61
-3621.37
-3638.16
-3654.99
-3671.86
-3688.76
-3705.69
-3722.66
-3739.66
-3756.69
-3773.76
-3790.86
-3808
-3825.17
-3842.37
-3859.61
-3876.88
-3894.19
-3911.52
-3928.89
-3946.3
-3963.73
-3981.2
-3998.71
-4016.24
-4033.81
-4051.41
-4069.04
-4086.71
-4104.4
-4122.13
-4139.89
-4157.69
-4175.51
-4193.37
-4211.26
-4229.18
-4247.14
-4265.12
-4283.13
-4301.18
-4319.26
-4337.37
-4355.51
-4373.68
-4391.88
-4410.12
-4428.38
-4446.67
-4465
-4483.35
-4501.74
-4520.15
-4538.6
-4557.07
-4575.58
-4594.11
-4612.68
-4631.27
-4649.9
-4668.55
-4687.23
-4705.94
-4724.69
-4743.45
-4762.25
-4781.08
-4799.94
-4818.82
-4837.73
-4856.68
-4875.65
-4894.64
-4913.67
-4932.72
-4951.81
-4970.91
-4990.05
-5009.22
-5028.41
-5047.63
-5066.87
-5086.15
-5105.45
-5124.77
-5144.13
-5163.51
-5182.92
-5202.35
-5221.81
-5241.3
-5260.81
-5280.35
-5299.91
-5319.5
-5339.11
-5358.76
-5378.42
-5398.11
-5417.83
-5437.57
-5457.34
-5477.13
-5496.94
-5516.78
-5536.65
-5556.54
-5576.45
-5596.39
-5616.35
-5636.34
-5656.35
-5676.38
-5696.43
-5716.51
-5736.62
-5756.74
-5776.89
-5797.06
-5817.26
-5837.47
-5857.71
-5877.98
-5898.26
-5918.57
-5938.89
-5959.24
-5979.62
-6000.01
-6020.43
-6040.86
-6061.32
-6081.8
-6102.3
-6122.82
-6143.36
-6163.92
-6184.5
-6205.11
-6225.73
-6246.37
-6267.03
-6287.72
-6308.42
-6329.14
-6349.88
-6370.64
-6391.42
-6412.22
-6433.04
-6453.87
-6474.73
-6495.6
-6516.49
-6537.4
-6558.33
-6579.27
-6600.24
-6621.22
-6642.22
-6663.23
-6684.27
-6705.32
-6726.38
-6747.47
-6768.57
-6789.69
-6810.82
-6831.97
-6853.13
-6874.32
-6895.51
-6916.73
-6937.96
-6959.2
-6980.46
-7001.74
-7023.02
-7044.33
-7065.65
-7086.98
-7108.33
-7129.69
-7151.07
-7172.46
-7193.86
-7215.28
-7236.71
-7258.16
-7279.62
-7301.09
-7322.57
-7344.07
-7365.58
-7387.1
-7408.64
-7430.18
-7451.74
-7473.31
-7494.89
-7516.49
-7538.09
-7559.71
-7581.34
-7602.98
-7624.63
-7646.29
-7667.96
-7689.64
-7711.33
-7733.04
-7754.75
-7776.47
-7798.2
-7819.94
-7841.69
-7863.45
-7885.22
-7907
-7928.79
-7950.58
-7972.38
-7994.2
-8016.02
-8037.84
-8059.68
-8081.52
-8103.37
-8125.23
-8147.1
-8168.97
-8190.85
-8212.74
-8234.63
-8256.53
-8278.44
-8300.35
-8322.27
-8344.19
-8366.12
-8388.05
-8409.99
-8431.94
-8453.89
-8475.85
-8497.81
-8519.77
-8541.74
-8563.71
-8585.69
-8607.67
-8629.66
-8651.65
-8673.64
-8695.64
-8717.64
-8739.64
-8761.64
-8783.65
-8805.66
-8827.68
-8849.69
-8871.71
-8893.73
-8915.75
-8937.77
-8959.79
-8981.82
-9003.85
-9025.87
-9047.9
-9069.93
-9091.96
-9113.99
-9136.02
-9158.05
-9180.08
-9202.11
-9224.14
-9246.17
-9268.19
-9290.22
-9312.25
-9334.27
-9356.29
-9378.32
-9400.34
-9422.35
-9444.37
-9466.38
-9488.4
-9510.4
-9532.41
-9554.41
-9576.42
-9598.41
-9620.41
-9642.4
-9664.38
-9686.37
-9708.35
-9730.32
-9752.29
-9774.26
-9796.22
-9818.18
-9840.13
-9862.08
-9884.02
-9905.96
-9927.89
-9949.82
-9971.74
-9993.65
-10015.6
-10037.5
-10059.4
-10081.2
-10103.1
-10125
-10146.9
-10168.7
-10190.6
-10212.4
-10234.3
-10256.1
-10277.9
-10299.7
-10321.6
-10343.3
-10365.1
-10386.9
-10408.7
-10430.5
-10452.2
-10474
-10495.7
-10517.4
-10539.1
-10560.8
-10582.5
-10604.2
-10625.9
-10647.6
-10669.2
-10690.8
-10712.5
-10734.1
-10755.7
-10777.3
-10798.9
-10820.5
-10842
-10863.6
-10885.1
-10906.6
-10928.2
-10949.7
-10971.1
-10992.6
-11014.1
-11035.5
-11057
-11078.4
-11099.8
-11121.2
-11142.6
-11163.9
-11185.3
-11206.6
-11227.9
-11249.2
-11270.5
-11291.8
-11313.1
-11334.3
-11355.5
-11376.8
-11398
-11419.1
-11440.3
-11461.5
-11482.6
-11503.7
-11524.8
-11545.9
-11567
-11588
-11609.1
-11630.1
-11651.1
-11672.1
-11693
-11714
-11734.9
-11755.8
-11776.7
-11797.6
-11818.4
-11839.3
-11860.1
-11880.9
-11901.7
-11922.4
-11943.2
-11963.9
-11984.6
-12005.3
-12025.9
-12046.6
-12067.2
-12087.8
-12108.4
-12129
-12149.5
-12170
-12190.5
-12211
-12231.5
-12251.9
-12272.3
-12292.7
-12313.1
-12333.4
-12353.7
-12374
-12394.3
-12414.6
-12434.8
-12455
-12475.2
-12495.4
-12515.6
-12535.7
-12555.8
-12575.9
-12595.9
-12615.9
-12636
-12655.9
-12675.9
-12695.8
-12715.7
-12735.6
-12755.5
-12775.3
-12795.2
-12814.9
-12834.7
-12854.4
-12874.2
-12893.9
-12913.5
-12933.2
-12952.8
-12972.4
-12991.9
-13011.5
-13031
-13050.5
-13069.9
-13089.3
-13108.7
-13128.1
-13147.5
-13166.8
-13186.1
-13205.4
-13224.6
-13243.8
-13263
-13282.2
-13301.3
-13320.5
-13339.5
-13358.6
-13377.6
-13396.6
-13415.6
-13434.5
-13453.4
-13472.3
-13491.2
-13510
-13528.8
-13547.6
-13566.3
-13585.1
-13603.7
-13622.4
-13641
-13659.6
-13678.2
-13696.7
-13715.2
-13733.7
-13752.2
-13770.6
-13789
-13807.4
-13825.7
-13844
-13862.3
-13880.5
-13898.7
-13916.9
-13935.1
-13953.2
-13971.3
-13989.3
-14007.4
-14025.4
-14043.3
-14061.3
-14079.2
-14097
-14114.9
-14132.7
-14150.5
-14168.2
-14186
-14203.6
-14221.3
-14238.9
-14256.5
-14274.1
-14291.6
-14309.1
-14326.6
-14344
-14361.4
-14378.8
-14396.1
-14413.4
-14430.7
-14447.9
-14465.1
-14482.3
-14499.4
-14516.5
-14533.6
-14550.7
-14567.7
-14584.7
-14601.6
-14618.5
-14635.4
-14652.2
-14669
-14685.8
-14702.6
-14719.3
-14736
-14752.6
-14769.2
-14785.8
-14802.4
-14818.9
-14835.3
-14851.8
-14868.2
-14884.6
-14900.9
-14917.2
-14933.5
-14949.8
-14966
-14982.1
-14998.3
-15014.4
-15030.5
-15046.5
-15062.5
-15078.5
-15094.4
-15110.3
-15126.2
-15142
-15157.8
-15173.6
-15189.3
-15205
-15220.7
-15236.3
-15251.9
-15267.4
-15283
-15298.5
-15313.9
-15329.3
-15344.7
-15360.1
-15375.4
-15390.6
-15405.9
-15421.1
-15436.3
-15451.4
-15466.5
-15481.6
-15496.6
-15511.6
-15526.6
-15541.5
-15556.4
-83.5836
-91.214
-99.0464
-105.765
-111.094
-115.252
-118.551
-121.257
-123.561
-125.594
-127.442
-129.164
-130.798
-132.372
-133.906
-135.414
-136.907
-138.395
-139.883
-141.378
-142.883
-144.404
-145.942
-147.501
-149.084
-150.691
-152.325
-153.988
-155.681
-157.405
-159.161
-160.951
-162.775
-164.633
-166.528
-168.458
-170.425
-172.428
-174.469
-176.55
-178.67
-180.828
-183.026
-185.264
-187.544
-189.869
-192.232
-194.632
-197.067
-199.547
-202.068
-204.631
-207.237
-209.885
-212.575
-215.307
-218.081
-220.898
-223.757
-226.659
-229.603
-232.59
-235.62
-238.693
-241.808
-244.967
-248.169
-251.413
-254.701
-258.033
-261.407
-264.825
-268.286
-271.79
-275.338
-278.929
-282.564
-286.242
-289.963
-293.727
-297.534
-301.385
-305.279
-309.216
-313.196
-317.22
-321.287
-325.397
-329.55
-333.747
-337.987
-342.27
-346.597
-350.967
-355.38
-359.836
-364.336
-368.879
-373.466
-378.096
-382.769
-387.486
-392.246
-397.049
-401.896
-406.786
-411.72
-416.697
-421.717
-426.781
-431.888
-437.039
-442.233
-447.471
-452.752
-458.076
-463.444
-468.855
-474.31
-479.808
-485.35
-490.934
-496.562
-502.234
-507.949
-513.707
-519.508
-525.353
-531.241
-537.172
-543.147
-549.165
-555.226
-561.331
-567.478
-573.669
-579.904
-586.181
-592.502
-598.867
-605.274
-611.725
-618.219
-624.756
-631.337
-637.96
-644.627
-651.338
-658.091
-664.888
-671.728
-678.611
-685.538
-692.508
-699.52
-706.576
-713.676
-720.818
-728.004
-735.232
-742.504
-749.819
-757.177
-764.578
-772.023
-779.51
-787.04
-794.614
-802.231
-809.89
-817.593
-825.339
-833.128
-840.959
-848.834
-856.752
-864.713
-872.717
-880.764
-888.854
-896.986
-905.162
-913.381
-921.642
-929.947
-938.294
-946.685
-955.118
-963.594
-972.113
-980.674
-989.279
-997.926
-1006.62
-1015.35
-1024.12
-1032.94
-1041.8
-1050.71
-1059.65
-1068.64
-1077.68
-1086.75
-1095.87
-1105.03
-1114.23
-1123.48
-1132.76
-1142.09
-1151.47
-1160.88
-1170.34
-1179.84
-1189.38
-1198.97
-1208.6
-1218.27
-1227.98
-1237.74
-1247.53
-1257.37
-1267.26
-1277.18
-1287.15
-1297.16
-1307.21
-1317.3
-1327.44
-1337.62
-1347.84
-1358.1
-1368.41
-1378.75
-1389.14
-1399.58
-1410.05
-1420.56
-1431.12
-1441.72
-1452.36
-1463.05
-1473.77
-1484.54
-1495.35
-1506.2
-1517.09
-1528.03
-1539
-1550.02
-1561.08
-1572.18
-1583.33
-1594.51
-1605.74
-1617.01
-1628.32
-1639.67
-1651.06
-1662.5
-1673.97
-1685.49
-1697.05
-1708.65
-1720.29
-1731.98
-1743.7
-1755.47
-1767.27
-1779.12
-1791.01
-1802.94
-1814.91
-1826.93
-1838.98
-1851.08
-1863.21
-1875.39
-1887.61
-1899.87
-1912.17
-1924.51
-1936.89
-1949.31
-1961.77
-1974.28
-1986.82
-1999.41
-2012.03
-2024.7
-2037.4
-2050.15
-2062.94
-2075.77
-2088.63
-2101.54
-2114.49
-2127.48
-2140.51
-2153.58
-2166.69
-2179.84
-2193.03
-2206.26
-2219.53
-2232.84
-2246.19
-2259.58
-2273.01
-2286.48
-2299.99
-2313.54
-2327.12
-2340.75
-2354.42
-2368.13
-2381.87
-2395.66
-2409.49
-2423.35
-2437.25
-2451.2
-2465.18
-2479.2
-2493.26
-2507.36
-2521.5
-2535.68
-2549.89
-2564.15
-2578.44
-2592.78
-2607.15
-2621.56
-2636.01
-2650.49
-2665.02
-2679.58
-2694.19
-2708.83
-2723.51
-2738.23
-2752.98
-2767.78
-2782.61
-2797.48
-2812.38
-2827.33
-2842.31
-2857.34
-2872.4
-2887.49
-2902.63
-2917.8
-2933.01
-2948.26
-2963.54
-2978.86
-2994.22
-3009.62
-3025.05
-3040.52
-3056.03
-3071.57
-3087.15
-3102.77
-3118.43
-3134.12
-3149.85
-3165.61
-3181.41
-3197.25
-3213.12
-3229.03
-3244.98
-3260.96
-3276.98
-3293.04
-3309.13
-3325.26
-3341.42
-3357.62
-3373.85
-3390.12
-3406.43
-3422.77
-3439.14
-3455.55
-3472
-3488.48
-3505
-3521.55
-3538.14
-3554.76
-3571.42
-3588.11
-3604.84
-3621.6
-3638.39
-3655.22
-3672.09
-3688.98
-3705.92
-3722.88
-3739.89
-3756.92
-3773.99
-3791.09
-3808.23
-3825.4
-3842.6
-3859.84
-3877.11
-3894.41
-3911.75
-3929.12
-3946.52
-3963.96
-3981.43
-3998.93
-4016.47
-4034.03
-4051.63
-4069.27
-4086.93
-4104.63
-4122.36
-4140.12
-4157.91
-4175.74
-4193.6
-4211.49
-4229.41
-4247.36
-4265.34
-4283.36
-4301.41
-4319.48
-4337.59
-4355.73
-4373.9
-4392.11
-4410.34
-4428.6
-4446.9
-4465.22
-4483.57
-4501.96
-4520.37
-4538.82
-4557.3
-4575.8
-4594.34
-4612.9
-4631.49
-4650.12
-4668.77
-4687.45
-4706.16
-4724.9
-4743.67
-4762.47
-4781.3
-4800.16
-4819.04
-4837.95
-4856.89
-4875.86
-4894.86
-4913.89
-4932.94
-4952.02
-4971.13
-4990.27
-5009.43
-5028.62
-5047.84
-5067.09
-5086.36
-5105.66
-5124.99
-5144.34
-5163.72
-5183.13
-5202.57
-5222.02
-5241.51
-5261.02
-5280.56
-5300.12
-5319.71
-5339.33
-5358.97
-5378.64
-5398.33
-5418.04
-5437.78
-5457.55
-5477.34
-5497.16
-5517
-5536.86
-5556.75
-5576.66
-5596.6
-5616.56
-5636.55
-5656.56
-5676.59
-5696.65
-5716.72
-5736.83
-5756.95
-5777.1
-5797.27
-5817.47
-5837.68
-5857.92
-5878.19
-5898.47
-5918.78
-5939.1
-5959.45
-5979.82
-6000.22
-6020.63
-6041.07
-6061.53
-6082
-6102.5
-6123.02
-6143.57
-6164.13
-6184.71
-6205.31
-6225.93
-6246.58
-6267.24
-6287.92
-6308.62
-6329.34
-6350.09
-6370.85
-6391.63
-6412.42
-6433.24
-6454.08
-6474.93
-6495.8
-6516.7
-6537.6
-6558.53
-6579.48
-6600.44
-6621.42
-6642.42
-6663.44
-6684.47
-6705.52
-6726.58
-6747.67
-6768.77
-6789.89
-6811.02
-6832.17
-6853.33
-6874.52
-6895.71
-6916.93
-6938.16
-6959.4
-6980.66
-7001.93
-7023.22
-7044.53
-7065.85
-7087.18
-7108.53
-7129.89
-7151.27
-7172.66
-7194.06
-7215.48
-7236.91
-7258.35
-7279.81
-7301.28
-7322.77
-7344.26
-7365.77
-7387.3
-7408.83
-7430.38
-7451.93
-7473.5
-7495.09
-7516.68
-7538.29
-7559.9
-7581.53
-7603.17
-7624.82
-7646.48
-7668.15
-7689.83
-7711.52
-7733.23
-7754.94
-7776.66
-7798.39
-7820.13
-7841.88
-7863.64
-7885.41
-7907.19
-7928.97
-7950.77
-7972.57
-7994.38
-8016.2
-8038.03
-8059.87
-8081.71
-8103.56
-8125.42
-8147.29
-8169.16
-8191.04
-8212.92
-8234.82
-8256.72
-8278.62
-8300.53
-8322.45
-8344.37
-8366.3
-8388.24
-8410.18
-8432.12
-8454.07
-8476.03
-8497.99
-8519.95
-8541.92
-8563.9
-8585.87
-8607.86
-8629.84
-8651.83
-8673.82
-8695.82
-8717.82
-8739.82
-8761.82
-8783.83
-8805.84
-8827.86
-8849.87
-8871.89
-8893.91
-8915.93
-8937.95
-8959.97
-8982
-9004.02
-9026.05
-9048.08
-9070.11
-9092.14
-9114.17
-9136.2
-9158.23
-9180.25
-9202.28
-9224.31
-9246.34
-9268.37
-9290.4
-9312.42
-9334.44
-9356.47
-9378.49
-9400.51
-9422.53
-9444.54
-9466.56
-9488.57
-9510.58
-9532.58
-9554.59
-9576.59
-9598.58
-9620.58
-9642.57
-9664.56
-9686.54
-9708.52
-9730.49
-9752.46
-9774.43
-9796.39
-9818.35
-9840.3
-9862.25
-9884.19
-9906.13
-9928.06
-9949.99
-9971.91
-9993.82
-10015.7
-10037.6
-10059.5
-10081.4
-10103.3
-10125.2
-10147
-10168.9
-10190.8
-10212.6
-10234.4
-10256.3
-10278.1
-10299.9
-10321.7
-10343.5
-10365.3
-10387.1
-10408.9
-10430.6
-10452.4
-10474.1
-10495.8
-10517.6
-10539.3
-10561
-10582.7
-10604.4
-10626
-10647.7
-10669.4
-10691
-10712.6
-10734.3
-10755.9
-10777.5
-10799
-10820.6
-10842.2
-10863.7
-10885.3
-10906.8
-10928.3
-10949.8
-10971.3
-10992.8
-11014.2
-11035.7
-11057.1
-11078.5
-11099.9
-11121.3
-11142.7
-11164.1
-11185.4
-11206.8
-11228.1
-11249.4
-11270.7
-11292
-11313.2
-11334.5
-11355.7
-11376.9
-11398.1
-11419.3
-11440.5
-11461.6
-11482.8
-11503.9
-11525
-11546.1
-11567.1
-11588.2
-11609.2
-11630.2
-11651.2
-11672.2
-11693.2
-11714.1
-11735.1
-11756
-11776.9
-11797.7
-11818.6
-11839.4
-11860.2
-11881
-11901.8
-11922.6
-11943.3
-11964
-11984.8
-12005.4
-12026.1
-12046.7
-12067.4
-12088
-12108.5
-12129.1
-12149.6
-12170.2
-12190.7
-12211.1
-12231.6
-12252
-12272.5
-12292.8
-12313.2
-12333.6
-12353.9
-12374.2
-12394.5
-12414.7
-12435
-12455.2
-12475.4
-12495.6
-12515.7
-12535.8
-12555.9
-12576
-12596.1
-12616.1
-12636.1
-12656.1
-12676
-12696
-12715.9
-12735.8
-12755.6
-12775.5
-12795.3
-12815.1
-12834.9
-12854.6
-12874.3
-12894
-12913.7
-12933.3
-12952.9
-12972.5
-12992.1
-13011.6
-13031.1
-13050.6
-13070.1
-13089.5
-13108.9
-13128.3
-13147.6
-13167
-13186.3
-13205.5
-13224.8
-13244
-13263.2
-13282.3
-13301.5
-13320.6
-13339.7
-13358.7
-13377.8
-13396.8
-13415.7
-13434.7
-13453.6
-13472.5
-13491.3
-13510.2
-13529
-13547.7
-13566.5
-13585.2
-13603.9
-13622.5
-13641.2
-13659.8
-13678.3
-13696.9
-13715.4
-13733.9
-13752.3
-13770.7
-13789.1
-13807.5
-13825.8
-13844.1
-13862.4
-13880.7
-13898.9
-13917
-13935.2
-13953.3
-13971.4
-13989.5
-14007.5
-14025.5
-14043.5
-14061.4
-14079.3
-14097.2
-14115
-14132.8
-14150.6
-14168.4
-14186.1
-14203.8
-14221.4
-14239.1
-14256.7
-14274.2
-14291.7
-14309.2
-14326.7
-14344.1
-14361.5
-14378.9
-14396.2
-14413.5
-14430.8
-14448.1
-14465.3
-14482.4
-14499.6
-14516.7
-14533.8
-14550.8
-14567.8
-14584.8
-14601.7
-14618.6
-14635.5
-14652.4
-14669.2
-14686
-14702.7
-14719.4
-14736.1
-14752.7
-14769.4
-14785.9
-14802.5
-14819
-14835.5
-14851.9
-14868.3
-14884.7
-14901.1
-14917.4
-14933.6
-14949.9
-14966.1
-14982.3
-14998.4
-15014.5
-15030.6
-15046.6
-15062.6
-15078.6
-15094.5
-15110.4
-15126.3
-15142.1
-15157.9
-15173.7
-15189.4
-15205.1
-15220.8
-15236.4
-15252
-15267.6
-15283.1
-15298.6
-15314
-15329.5
-15344.8
-15360.2
-15375.5
-15390.8
-15406
-15421.2
-15436.4
-15451.6
-15466.7
-15481.7
-15496.8
-15511.8
-15526.7
-15541.6
-15556.5
-96.2233
-99.5097
-103.792
-108.363
-112.512
-116.051
-119.04
-121.598
-123.834
-125.837
-127.673
-129.392
-131.026
-132.602
-134.138
-135.648
-137.143
-138.633
-140.122
-141.618
-143.125
-144.647
-146.186
-147.746
-149.329
-150.937
-152.572
-154.236
-155.929
-157.654
-159.41
-161.2
-163.024
-164.883
-166.777
-168.708
-170.675
-172.679
-174.72
-176.801
-178.92
-181.079
-183.276
-185.515
-187.793
-190.114
-192.475
-194.873
-197.315
-199.798
-202.32
-204.884
-207.49
-210.138
-212.828
-215.56
-218.335
-221.152
-224.011
-226.913
-229.857
-232.844
-235.874
-238.947
-242.063
-245.221
-248.423
-251.668
-254.956
-258.287
-261.661
-265.079
-268.54
-272.044
-275.592
-279.183
-282.817
-286.495
-290.215
-293.979
-297.787
-301.637
-305.531
-309.468
-313.448
-317.471
-321.538
-325.648
-329.801
-333.998
-338.238
-342.521
-346.847
-351.217
-355.63
-360.087
-364.587
-369.13
-373.717
-378.346
-383.02
-387.736
-392.496
-397.3
-402.146
-407.037
-411.97
-416.947
-421.967
-427.031
-432.139
-437.289
-442.483
-447.721
-453.002
-458.326
-463.694
-469.105
-474.56
-480.058
-485.599
-491.184
-496.812
-502.483
-508.198
-513.956
-519.757
-525.602
-531.49
-537.421
-543.396
-549.414
-555.475
-561.579
-567.727
-573.918
-580.152
-586.43
-592.751
-599.115
-605.522
-611.973
-618.467
-625.004
-631.585
-638.209
-644.876
-651.586
-658.339
-665.136
-671.976
-678.859
-685.786
-692.755
-699.768
-706.824
-713.923
-721.066
-728.251
-735.48
-742.751
-750.066
-757.424
-764.825
-772.27
-779.757
-787.287
-794.861
-802.477
-810.137
-817.84
-825.586
-833.374
-841.206
-849.081
-856.999
-864.96
-872.963
-881.01
-889.1
-897.233
-905.408
-913.627
-921.888
-930.193
-938.54
-946.93
-955.364
-963.839
-972.358
-980.92
-989.524
-998.172
-1006.86
-1015.59
-1024.37
-1033.19
-1042.05
-1050.95
-1059.9
-1068.89
-1077.92
-1087
-1096.11
-1105.27
-1114.48
-1123.72
-1133.01
-1142.34
-1151.71
-1161.13
-1170.58
-1180.09
-1189.63
-1199.21
-1208.84
-1218.51
-1228.23
-1237.98
-1247.78
-1257.62
-1267.5
-1277.43
-1287.39
-1297.4
-1307.45
-1317.55
-1327.68
-1337.86
-1348.08
-1358.35
-1368.65
-1379
-1389.39
-1399.82
-1410.29
-1420.81
-1431.36
-1441.96
-1452.6
-1463.29
-1474.01
-1484.78
-1495.59
-1506.44
-1517.33
-1528.27
-1539.25
-1550.26
-1561.32
-1572.43
-1583.57
-1594.75
-1605.98
-1617.25
-1628.56
-1639.91
-1651.3
-1662.74
-1674.21
-1685.73
-1697.29
-1708.89
-1720.53
-1732.22
-1743.94
-1755.71
-1767.51
-1779.36
-1791.25
-1803.18
-1815.15
-1827.17
-1839.22
-1851.32
-1863.45
-1875.63
-1887.85
-1900.1
-1912.4
-1924.74
-1937.13
-1949.55
-1962.01