/*--------------------------------*- C++ -*----------------------------------*\
| =========                 |                                                 |
| \\      /  F ield         | OpenFOAM: The Open Source CFD Toolbox           |
|  \\    /   O peration     | Version:  2512                                  |
|   \\  /    A nd           | Website:  www.openfoam.com                      |
|    \\/     M anipulation  |                                                 |
\*---------------------------------------------------------------------------*/
FoamFile
{
    version     2.0;
    format      ascii;
    arch        "LSB;label=32;scalar=64";
    class       volScalarField;
    location    "0.002";
    object      p_rgh;
}
// * * * * * * * * * * * * * * * * * * * * * * * * * * * * * * * * * * * * * //

dimensions      [1 -1 -2 0 0 0 0];

internalField   nonuniform List<scalar> 
100000
(
274435
274372
274344
274331
274323
274319
274315
274313
274311
274309
274307
274305
274304
274302
274301
274299
274298
274296
274295
274294
274292
274291
274289
274287
274286
274284
274283
274281
274279
274278
274276
274274
274272
274270
274268
274267
274265
274263
274261
274258
274256
274254
274252
274250
274247
274245
274243
274240
274238
274235
274233
274230
274228
274225
274222
274220
274217
274214
274211
274208
274205
274202
274199
274196
274193
274190
274187
274184
274180
274177
274174
274170
274167
274163
274160
274156
274152
274149
274145
274141
274137
274134
274130
274126
274122
274118
274114
274110
274105
274101
274097
274093
274088
274084
274080
274075
274071
274066
274062
274057
274052
274048
274043
274038
274033
274028
274023
274018
274013
274008
274003
273998
273993
273988
273982
273977
273972
273966
273961
273955
273950
273944
273938
273933
273927
273921
273916
273910
273904
273898
273892
273886
273880
273874
273868
273861
273855
273849
273843
273836
273830
273823
273817
273810
273804
273797
273790
273784
273777
273770
273763
273756
273749
273743
273736
273728
273721
273714
273707
273700
273693
273685
273678
273670
273663
273656
273648
273640
273633
273625
273617
273610
273602
273594
273586
273578
273570
273562
273554
273546
273538
273530
273522
273513
273505
273497
273488
273480
273471
273463
273454
273446
273437
273428
273420
273411
273402
273393
273384
273375
273366
273357
273348
273339
273330
273321
273312
273302
273293
273284
273274
273265
273255
273246
273236
273226
273217
273207
273197
273187
273178
273168
273158
273148
273138
273128
273118
273108
273097
273087
273077
273067
273056
273046
273035
273025
273014
273004
272993
272983
272972
272961
272950
272940
272929
272918
272907
272896
272885
272874
272863
272852
272841
272829
272818
272807
272795
272784
272773
272761
272750
272738
272726
272715
272703
272691
272680
272668
272656
272644
272632
272620
272608
272596
272584
272572
272560
272547
272535
272523
272511
272498
272486
272473
272461
272448
272436
272423
272410
272398
272385
272372
272359
272346
272333
272321
272308
272294
272281
272268
272255
272242
272229
272215
272202
272189
272175
272162
272149
272135
272121
272108
272094
272081
272067
272053
272039
272026
272012
271998
271984
271970
271956
271942
271928
271914
271899
271885
271871
271857
271842
271828
271813
271799
271785
271770
271755
271741
271726
271711
271697
271682
271667
271652
271638
271623
271608
271593
271578
271563
271548
271532
271517
271502
271487
271471
271456
271441
271425
271410
271394
271379
271363
271348
271332
271317
271301
271285
271269
271254
271238
271222
271206
271190
271174
271158
271142
271126
271110
271094
271077
271061
271045
271029
271012
270996
270979
270963
270947
270930
270913
270897
270880
270864
270847
270830
270813
270797
270780
270763
270746
270729
270712
270695
270678
270661
270644
270627
270610
270592
270575
270558
270541
270523
270506
270488
270471
270454
270436
270419
270401
270383
270366
270348
270330
270313
270295
270277
270259
270241
270223
270206
270188
270170
270152
270134
270115
270097
270079
270061
270043
270025
270006
269988
269970
269951
269933
269915
269896
269878
269859
269841
269822
269803
269785
269766
269748
269729
269710
269691
269673
269654
269635
269616
269597
269578
269559
269540
269521
269502
269483
269464
269445
269426
269406
269387
269368
269349
269329
269310
269291
269271
269252
269232
269213
269193
269174
269154
269135
269115
269096
269076
269056
269037
269017
268997
268977
268958
268938
268918
268898
268878
268858
268838
268818
268798
268778
268758
268738
268718
268698
268678
268658
268638
268618
268597
268577
268557
268536
268516
268496
268476
268455
268435
268414
268394
268373
268353
268332
268312
268291
268271
268250
268230
268209
268188
268168
268147
268126
268106
268085
268064
268043
268023
268002
267981
267960
267939
267918
267897
267876
267855
267835
267814
267793
267772
267750
267729
267708
267687
267666
267645
267624
267603
267582
267560
267539
267518
267497
267476
267454
267433
267412
267390
267369
267348
267326
267305
267284
267262
267241
267219
267198
267177
267155
267134
267112
267091
267069
267048
267026
267005
266983
266961
266940
266918
266897
266875
266853
266832
266810
266788
266767
266745
266723
266702
266680
266658
266637
266615
266593
266571
266550
266528
266506
266484
266462
266441
266419
266397
266375
266353
266331
266310
266288
266266
266244
266222
266200
266178
266156
266134
266112
266091
266069
266047
266025
266003
265981
265959
265937
265915
265893
265871
265849
265827
265805
265783
265761
265739
265717
265695
265673
265651
265629
265607
265585
265563
265541
265519
265497
265475
265453
265431
265409
265387
265365
265343
265321
265299
265277
265255
265233
265211
265189
265167
265145
265123
265100
265078
265056
265034
265012
264990
264968
264946
264924
264902
264880
264858
264836
264814
264792
264770
264748
264726
264704
264682
264661
264639
264617
264595
264573
264551
264529
264507
264485
264463
264441
264419
264397
264375
264354
264332
264310
264288
264266
264244
264222
264200
264179
264157
264135
264113
264091
264070
264048
264026
264004
263983
263961
263939
263917
263896
263874
263852
263831
263809
263787
263766
263744
263722
263701
263679
263657
263636
263614
263593
263571
263550
263528
263507
263485
263464
263442
263421
263399
263378
263356
263335
263314
263292
263271
263250
263228
263207
263186
263164
263143
263122
263100
263079
263058
263037
263016
262994
262973
262952
262931
262910
262889
262868
262847
262826
262805
262784
262763
262742
262721
262700
262679
262658
262637
262616
262596
262575
262554
262533
262512
262492
262471
262450
262430
262409
262388
262368
262347
262326
262306
262285
262265
262244
262224
262203
262183
262162
262142
262122
262101
262081
262061
262040
262020
262000
261980
261960
261939
261919
261899
261879
261859
261839
261819
261799
261779
261759
261739
261719
261699
261679
261659
261640
261620
261600
261580
261561
261541
261521
261502
261482
261462
261443
261423
261404
261384
261365
261345
261326
261307
261287
261268
261249
261229
261210
261191
261172
261153
261133
261114
261095
261076
261057
261038
261019
261000
260981
260962
260944
260925
260906
260887
260868
260850
260831
260812
260794
260775
260757
260738
260720
260701
260683
260664
260646
260627
260609
260591
260573
260554
260536
260518
260500
260482
260464
260445
260427
260409
260391
260374
260356
260338
260320
260302
260284
260267
260249
260231
260213
260196
260178
260161
260143
260126
260108
260091
260073
260056
260039
260021
260004
259987
259970
259952
259935
259918
259901
259884
259867
259850
259833
259816
259799
259783
259766
259749
259732
259715
259699
259682
259666
259649
259632
259616
259599
259583
259567
259550
259534
259518
259501
259485
259469
259453
259437
259420
259404
259388
259372
259356
259340
259324
259309
259293
259277
259261
259245
259230
259214
259199
259183
259167
259152
259136
259121
259105
259090
259075
259059
259044
259029
259014
258999
258983
258968
258953
258938
258923
258908
258893
258878
274375
274355
274340
274330
274324
274319
274316
274313
274311
274309
274307
274306
274304
274303
274301
274300
274298
274297
274295
274294
274292
274291
274289
274287
274286
274284
274283
274281
274279
274278
274276
274274
274272
274270
274268
274267
274265
274263
274261
274258
274256
274254
274252
274250
274247
274245
274243
274240
274238
274235
274233
274230
274228
274225
274222
274220
274217
274214
274211
274208
274205
274202
274199
274196
274193
274190
274187
274184
274180
274177
274174
274170
274167
274163
274160
274156
274152
274149
274145
274141
274137
274134
274130
274126
274122
274118
274114
274110
274105
274101
274097
274093
274088
274084
274080
274075
274071
274066
274062
274057
274052
274048
274043
274038
274033
274028
274023
274018
274013
274008
274003
273998
273993
273988
273982
273977
273972
273966
273961
273955
273950
273944
273938
273933
273927
273921
273915
273910
273904
273898
273892
273886
273880
273874
273868
273861
273855
273849
273843
273836
273830
273823
273817
273810
273804
273797
273790
273784
273777
273770
273763
273756
273749
273742
273735
273728
273721
273714
273707
273700
273692
273685
273678
273670
273663
273655
273648
273640
273633
273625
273617
273610
273602
273594
273586
273578
273570
273562
273554
273546
273538
273530
273522
273513
273505
273497
273488
273480
273471
273463
273454
273446
273437
273428
273420
273411
273402
273393
273384
273375
273366
273357
273348
273339
273330
273321
273312
273302
273293
273284
273274
273265
273255
273246
273236
273226
273217
273207
273197
273187
273178
273168
273158
273148
273138
273128
273118
273108
273097
273087
273077
273067
273056
273046
273035
273025
273014
273004
272993
272983
272972
272961
272950
272940
272929
272918
272907
272896
272885
272874
272863
272852
272840
272829
272818
272807
272795
272784
272772
272761
272749
272738
272726
272715
272703
272691
272680
272668
272656
272644
272632
272620
272608
272596
272584
272572
272560
272547
272535
272523
272510
272498
272486
272473
272461
272448
272436
272423
272410
272398
272385
272372
272359
272346
272333
272320
272308
272294
272281
272268
272255
272242
272229
272215
272202
272189
272175
272162
272149
272135
272121
272108
272094
272081
272067
272053
272039
272025
272012
271998
271984
271970
271956
271942
271928
271913
271899
271885
271871
271857
271842
271828
271813
271799
271784
271770
271755
271741
271726
271711
271697
271682
271667
271652
271637
271623
271608
271593
271578
271563
271547
271532
271517
271502
271487
271471
271456
271441
271425
271410
271394
271379
271363
271348
271332
271317
271301
271285
271269
271254
271238
271222
271206
271190
271174
271158
271142
271126
271110
271094
271077
271061
271045
271029
271012
270996
270979
270963
270946
270930
270913
270897
270880
270864
270847
270830
270813
270797
270780
270763
270746
270729
270712
270695
270678
270661
270644
270627
270610
270592
270575
270558
270541
270523
270506
270488
270471
270454
270436
270418
270401
270383
270366
270348
270330
270313
270295
270277
270259
270241
270223
270206
270188
270170
270152
270134
270115
270097
270079
270061
270043
270025
270006
269988
269970
269951
269933
269915
269896
269878
269859
269841
269822
269803
269785
269766
269748
269729
269710
269691
269672
269654
269635
269616
269597
269578
269559
269540
269521
269502
269483
269464
269445
269426
269406
269387
269368
269349
269329
269310
269291
269271
269252
269232
269213
269193
269174
269154
269135
269115
269096
269076
269056
269037
269017
268997
268977
268958
268938
268918
268898
268878
268858
268838
268818
268798
268778
268758
268738
268718
268698
268678
268658
268638
268617
268597
268577
268557
268536
268516
268496
268475
268455
268435
268414
268394
268373
268353
268332
268312
268291
268271
268250
268230
268209
268188
268168
268147
268126
268106
268085
268064
268043
268023
268002
267981
267960
267939
267918
267897
267876
267855
267834
267814
267793
267772
267750
267729
267708
267687
267666
267645
267624
267603
267582
267560
267539
267518
267497
267476
267454
267433
267412
267390
267369
267348
267326
267305
267284
267262
267241
267219
267198
267177
267155
267134
267112
267091
267069
267048
267026
267005
266983
266961
266940
266918
266897
266875
266853
266832
266810
266788
266767
266745
266723
266702
266680
266658
266637
266615
266593
266571
266550
266528
266506
266484
266462
266441
266419
266397
266375
266353
266331
266310
266288
266266
266244
266222
266200
266178
266156
266134
266112
266091
266069
266047
266025
266003
265981
265959
265937
265915
265893
265871
265849
265827
265805
265783
265761
265739
265717
265695
265673
265651
265629
265607
265585
265563
265541
265519
265497
265475
265453
265431
265409
265387
265365
265343
265321
265299
265277
265255
265233
265211
265189
265167
265145
265122
265100
265078
265056
265034
265012
264990
264968
264946
264924
264902
264880
264858
264836
264814
264792
264770
264748
264726
264704
264682
264660
264639
264617
264595
264573
264551
264529
264507
264485
264463
264441
264419
264397
264375
264353
264332
264310
264288
264266
264244
264222
264200
264179
264157
264135
264113
264091
264070
264048
264026
264004
263983
263961
263939
263917
263896
263874
263852
263831
263809
263787
263766
263744
263722
263701
263679
263657
263636
263614
263593
263571
263550
263528
263507
263485
263464
263442
263421
263399
263378
263356
263335
263314
263292
263271
263249
263228
263207
263185
263164
263143
263122
263100
263079
263058
263037
263016
262994
262973
262952
262931
262910
262889
262868
262847
262826
262805
262784
262763
262742
262721
262700
262679
262658
262637
262616
262595
262575
262554
262533
262512
262492
262471
262450
262429
262409
262388
262368
262347
262326
262306
262285
262265
262244
262224
262203
262183
262162
262142
262122
262101
262081
262061
262040
262020
262000
261980
261959
261939
261919
261899
261879
261859
261839
261819
261799
261779
261759
261739
261719
261699
261679
261659
261640
261620
261600
261580
261561
261541
261521
261502
261482
261462
261443
261423
261404
261384
261365
261345
261326
261307
261287
261268
261249
261229
261210
261191
261172
261153
261133
261114
261095
261076
261057
261038
261019
261000
260981
260962
260944
260925
260906
260887
260868
260850
260831
260812
260794
260775
260757
260738
260719
260701
260683
260664
260646
260627
260609
260591
260572
260554
260536
260518
260500
260482
260463
260445
260427
260409
260391
260373
260356
260338
260320
260302
260284
260266
260249
260231
260213
260196
260178
260161
260143
260126
260108
260091
260073
260056
260039
260021
260004
259987
259970
259952
259935
259918
259901
259884
259867
259850
259833
259816
259799
259783
259766
259749
259732
259715
259699
259682
259666
259649
259632
259616
259599
259583
259567
259550
259534
259518
259501
259485
259469
259453
259436
259420
259404
259388
259372
259356
259340
259324
259309
259293
259277
259261
259245
259230
259214
259198
259183
259167
259152
259136
259121
259105
259090
259075
259059
259044
259029
259014
258998
258983
258968
258953
258938
258923
258908
258893
258878
274351
274344
274336
274329
274324
274320
274316
274314
274311
274309
274307
274306
274304
274303
274301
274300
274298
274297
274295
274294
274292
274291
274289
274287
274286
274284
274283
274281
274279
274278
274276
274274
274272
274270
274268
274266
274265
274262
274260
274258
274256
274254
274252
274250
274247
274245
274243
274240
274238
274235
274233
274230
274228
274225
274222
274220
274217
274214
274211
274208
274205
274202
274199
274196
274193
274190
274187
274184
274180
274177
274174
274170
274167
274163
274160
274156
274152
274149
274145
274141
274137
274134
274130
274126
274122
274118
274114
274110
274105
274101
274097
274093
274088
274084
274080
274075
274071
274066
274061
274057
274052
274047
274043
274038
274033
274028
274023
274018
274013
274008
274003
273998
273993
273987
273982
273977
273971
273966
273961
273955
273950
273944
273938
273933
273927
273921
273915
273910
273904
273898
273892
273886
273880
273874
273867
273861
273855
273849
273842
273836
273830
273823
273817
273810
273804
273797
273790
273784
273777
273770
273763
273756
273749
273742
273735
273728
273721
273714
273707
273700
273692
273685
273678
273670
273663
273655
273648
273640
273633
273625
273617
273610
273602
273594
273586
273578
273570
273562
273554
273546
273538
273530
273522
273513
273505
273497
273488
273480
273471
273463
273454
273446
273437
273428
273420
273411
273402
273393
273384
273375
273366
273357
273348
273339
273330
273321
273311
273302
273293
273283
273274
273265
273255
273246
273236
273226
273217
273207
273197
273187
273178
273168
273158
273148
273138
273128
273118
273107
273097
273087
273077
273067
273056
273046
273035
273025
273014
273004
272993
272983
272972
272961
272950
272940
272929
272918
272907
272896
272885
272874
272863
272852
272840
272829
272818
272807
272795
272784
272772
272761
272749
272738
272726
272715
272703
272691
272679
272668
272656
272644
272632
272620
272608
272596
272584
272572
272560
272547
272535
272523
272510
272498
272486
272473
272461
272448
272436
272423
272410
272398
272385
272372
272359
272346
272333
272320
272307
272294
272281
272268
272255
272242
272229
272215
272202
272189
272175
272162
272148
272135
272121
272108
272094
272081
272067
272053
272039
272025
272012
271998
271984
271970
271956
271942
271928
271913
271899
271885
271871
271856
271842
271828
271813
271799
271784
271770
271755
271741
271726
271711
271697
271682
271667
271652
271637
271623
271608
271593
271578
271563
271547
271532
271517
271502
271487
271471
271456
271441
271425
271410
271394
271379
271363
271348
271332
271317
271301
271285
271269
271254
271238
271222
271206
271190
271174
271158
271142
271126
271110
271094
271077
271061
271045
271029
271012
270996
270979
270963
270946
270930
270913
270897
270880
270864
270847
270830
270813
270797
270780
270763
270746
270729
270712
270695
270678
270661
270644
270627
270610
270592
270575
270558
270541
270523
270506
270488
270471
270453
270436
270418
270401
270383
270366
270348
270330
270313
270295
270277
270259
270241
270223
270206
270188
270170
270152
270134
270115
270097
270079
270061
270043
270025
270006
269988
269970
269951
269933
269915
269896
269878
269859
269841
269822
269803
269785
269766
269747
269729
269710
269691
269672
269654
269635
269616
269597
269578
269559
269540
269521
269502
269483
269464
269445
269425
269406
269387
269368
269349
269329
269310
269291
269271
269252
269232
269213
269193
269174
269154
269135
269115
269096
269076
269056
269037
269017
268997
268977
268958
268938
268918
268898
268878
268858
268838
268818
268798
268778
268758
268738
268718
268698
268678
268658
268638
268617
268597
268577
268557
268536
268516
268496
268475
268455
268435
268414
268394
268373
268353
268332
268312
268291
268271
268250
268230
268209
268188
268168
268147
268126
268106
268085
268064
268043
268023
268002
267981
267960
267939
267918
267897
267876
267855
267834
267814
267793
267771
267750
267729
267708
267687
267666
267645
267624
267603
267582
267560
267539
267518
267497
267476
267454
267433
267412
267390
267369
267348
267326
267305
267284
267262
267241
267219
267198
267177
267155
267134
267112
267091
267069
267048
267026
267005
266983
266961
266940
266918
266897
266875
266853
266832
266810
266788
266767
266745
266723
266702
266680
266658
266637
266615
266593
266571
266550
266528
266506
266484
266462
266441
266419
266397
266375
266353
266331
266310
266288
266266
266244
266222
266200
266178
266156
266134
266112
266091
266069
266047
266025
266003
265981
265959
265937
265915
265893
265871
265849
265827
265805
265783
265761
265739
265717
265695
265673
265651
265629
265607
265585
265563
265541
265519
265497
265475
265453
265431
265409
265387
265365
265343
265321
265299
265277
265255
265233
265211
265189
265167
265145
265123
265100
265078
265056
265034
265012
264990
264968
264946
264924
264902
264880
264858
264836
264814
264792
264770
264748
264726
264704
264682
264660
264639
264617
264595
264573
264551
264529
264507
264485
264463
264441
264419
264397
264375
264354
264332
264310
264288
264266
264244
264222
264200
264179
264157
264135
264113
264091
264070
264048
264026
264004
263983
263961
263939
263917
263896
263874
263852
263831
263809
263787
263766
263744
263722
263701
263679
263657
263636
263614
263593
263571
263550
263528
263507
263485
263464
263442
263421
263399
263378
263356
263335
263314
263292
263271
263249
263228
263207
263186
263164
263143
263122
263100
263079
263058
263037
263016
262994
262973
262952
262931
262910
262889
262868
262847
262826
262805
262784
262763
262742
262721
262700
262679
262658
262637
262616
262596
262575
262554
262533
262512
262492
262471
262450
262429
262409
262388
262368
262347
262326
262306
262285
262265
262244
262224
262203
262183
262162
262142
262122
262101
262081
262061
262040
262020
262000
261980
261960
261939
261919
261899
261879
261859
261839
261819
261799
261779
261759
261739
261719
261699
261679
261659
261640
261620
261600
261580
261561
261541
261521
261502
261482
261462
261443
261423
261404
261384
261365
261345
261326
261307
261287
261268
261249
261229
261210
261191
261172
261153
261133
261114
261095
261076
261057
261038
261019
261000
260981
260962
260944
260925
260906
260887
260868
260850
260831
260812
260794
260775
260757
260738
260720
260701
260683
260664
260646
260627
260609
260591
260573
260554
260536
260518
260500
260482
260464
260445
260427
260409
260391
260374
260356
260338
260320
260302
260284
260267
260249
260231
260213
260196
260178
260161
260143
260126
260108
260091
260073
260056
260039
260021
260004
259987
259970
259952
259935
259918
259901
259884
259867
259850
259833
259816
259799
259783
259766
259749
259732
259716
259699
259682
259666
259649
259632
259616
259599
259583
259567
259550
259534
259518
259501
259485
259469
259453
259437
259420
259404
259388
259372
259356
259340
259324
259309
259293
259277
259261
259245
259230
259214
259198
259183
259167
259152
259136
259121
259105
259090
259075
259059
259044
259029
259014
258999
258983
258968
258953
258938
258923
258908
258893
258878
274339
274336
274331
274327
274323
274319
274316
274314
274311
274309
274307
274306
274304
274303
274301
274299
274298
274296
274295
274293
274292
274290
274289
274287
274286
274284
274283
274281
274279
274277
274276
274274
274272
274270
274268
274266
274264
274262
274260
274258
274256
274254
274252
274250
274247
274245
274243
274240
274238
274235
274233
274230
274228
274225
274222
274220
274217
274214
274211
274208
274205
274202
274199
274196
274193
274190
274187
274183
274180
274177
274173
274170
274167
274163
274160
274156
274152
274149
274145
274141
274137
274133
274130
274126
274122
274118
274114
274109
274105
274101
274097
274093
274088
274084
274079
274075
274071
274066
274061
274057
274052
274047
274043
274038
274033
274028
274023
274018
274013
274008
274003
273998
273993
273987
273982
273977
273971
273966
273961
273955
273950
273944
273938
273933
273927
273921
273915
273910
273904
273898
273892
273886
273880
273874
273867
273861
273855
273849
273842
273836
273830
273823
273817
273810
273804
273797
273790
273784
273777
273770
273763
273756
273749
273742
273735
273728
273721
273714
273707
273700
273692
273685
273678
273670
273663
273655
273648
273640
273633
273625
273617
273610
273602
273594
273586
273578
273570
273562
273554
273546
273538
273530
273521
273513
273505
273497
273488
273480
273471
273463
273454
273446
273437
273428
273420
273411
273402
273393
273384
273375
273366
273357
273348
273339
273330
273321
273311
273302
273293
273283
273274
273265
273255
273245
273236
273226
273217
273207
273197
273187
273177
273168
273158
273148
273138
273128
273118
273107
273097
273087
273077
273066
273056
273046
273035
273025
273014
273004
272993
272983
272972
272961
272950
272940
272929
272918
272907
272896
272885
272874
272863
272852
272840
272829
272818
272807
272795
272784
272772
272761
272749
272738
272726
272715
272703
272691
272679
272668
272656
272644
272632
272620
272608
272596
272584
272572
272559
272547
272535
272523
272510
272498
272486
272473
272461
272448
272435
272423
272410
272397
272385
272372
272359
272346
272333
272320
272307
272294
272281
272268
272255
272242
272229
272215
272202
272189
272175
272162
272148
272135
272121
272108
272094
272080
272067
272053
272039
272025
272012
271998
271984
271970
271956
271942
271928
271913
271899
271885
271871
271856
271842
271828
271813
271799
271784
271770
271755
271741
271726
271711
271697
271682
271667
271652
271637
271623
271608
271593
271578
271562
271547
271532
271517
271502
271487
271471
271456
271441
271425
271410
271394
271379
271363
271348
271332
271316
271301
271285
271269
271253
271238
271222
271206
271190
271174
271158
271142
271126
271110
271093
271077
271061
271045
271028
271012
270996
270979
270963
270946
270930
270913
270897
270880
270863
270847
270830
270813
270797
270780
270763
270746
270729
270712
270695
270678
270661
270644
270627
270609
270592
270575
270558
270540
270523
270506
270488
270471
270453
270436
270418
270401
270383
270366
270348
270330
270313
270295
270277
270259
270241
270223
270205
270188
270170
270152
270133
270115
270097
270079
270061
270043
270025
270006
269988
269970
269951
269933
269915
269896
269878
269859
269841
269822
269803
269785
269766
269747
269729
269710
269691
269672
269654
269635
269616
269597
269578
269559
269540
269521
269502
269483
269464
269445
269425
269406
269387
269368
269349
269329
269310
269291
269271
269252
269232
269213
269193
269174
269154
269135
269115
269096
269076
269056
269037
269017
268997
268977
268958
268938
268918
268898
268878
268858
268838
268818
268798
268778
268758
268738
268718
268698
268678
268658
268638
268617
268597
268577
268557
268536
268516
268496
268475
268455
268435
268414
268394
268373
268353
268332
268312
268291
268271
268250
268230
268209
268188
268168
268147
268126
268106
268085
268064
268043
268022
268002
267981
267960
267939
267918
267897
267876
267855
267834
267813
267792
267771
267750
267729
267708
267687
267666
267645
267624
267603
267582
267560
267539
267518
267497
267476
267454
267433
267412
267390
267369
267348
267326
267305
267284
267262
267241
267219
267198
267177
267155
267134
267112
267091
267069
267048
267026
267005
266983
266961
266940
266918
266897
266875
266853
266832
266810
266788
266767
266745
266723
266702
266680
266658
266637
266615
266593
266571
266550
266528
266506
266484
266462
266441
266419
266397
266375
266353
266331
266310
266288
266266
266244
266222
266200
266178
266156
266134
266112
266091
266069
266047
266025
266003
265981
265959
265937
265915
265893
265871
265849
265827
265805
265783
265761
265739
265717
265695
265673
265651
265629
265607
265585
265563
265541
265519
265497
265475
265453
265431
265409
265387
265365
265343
265321
265299
265277
265255
265233
265211
265189
265167
265145
265123
265100
265078
265056
265034
265012
264990
264968
264946
264924
264902
264880
264858
264836
264814
264792
264770
264748
264726
264704
264682
264661
264639
264617
264595
264573
264551
264529
264507
264485
264463
264441
264419
264397
264375
264354
264332
264310
264288
264266
264244
264222
264201
264179
264157
264135
264113
264091
264070
264048
264026
264004
263983
263961
263939
263917
263896
263874
263852
263831
263809
263787
263766
263744
263722
263701
263679
263657
263636
263614
263593
263571
263550
263528
263507
263485
263464
263442
263421
263399
263378
263356
263335
263314
263292
263271
263250
263228
263207
263186
263164
263143
263122
263100
263079
263058
263037
263016
262994
262973
262952
262931
262910
262889
262868
262847
262826
262805
262784
262763
262742
262721
262700
262679
262658
262637
262616
262596
262575
262554
262533
262512
262492
262471
262450
262430
262409
262388
262368
262347
262326
262306
262285
262265
262244
262224
262203
262183
262163
262142
262122
262101
262081
262061
262040
262020
262000
261980
261960
261939
261919
261899
261879
261859
261839
261819
261799
261779
261759
261739
261719
261699
261679
261659
261640
261620
261600
261580
261561
261541
261521
261502
261482
261462
261443
261423
261404
261384
261365
261345
261326
261307
261287
261268
261249
261229
261210
261191
261172
261153
261133
261114
261095
261076
261057
261038
261019
261000
260981
260962
260944
260925
260906
260887
260868
260850
260831
260812
260794
260775
260757
260738
260720
260701
260683
260664
260646
260627
260609
260591
260573
260554
260536
260518
260500
260482
260464
260445
260427
260409
260391
260374
260356
260338
260320
260302
260284
260267
260249
260231
260214
260196
260178
260161
260143
260126
260108
260091
260073
260056
260039
260021
260004
259987
259970
259953
259935
259918
259901
259884
259867
259850
259833
259816
259799
259783
259766
259749
259732
259716
259699
259682
259666
259649
259632
259616
259599
259583
259567
259550
259534
259518
259501
259485
259469
259453
259437
259420
259404
259388
259372
259356
259340
259325
259309
259293
259277
259261
259246
259230
259214
259199
259183
259167
259152
259136
259121
259105
259090
259075
259059
259044
259029
259014
258999
258983
258968
258953
258938
258923
258908
258893
258878
274331
274329
274327
274324
274321
274318
274315
274313
274311
274309
274307
274306
274304
274302
274301
274299
274298
274296
274295
274293
274292
274290
274289
274287
274286
274284
274282
274281
274279
274277
274276
274274
274272
274270
274268
274266
274264
274262
274260
274258
274256
274254
274252
274250
274247
274245
274243
274240
274238
274235
274233
274230
274228
274225
274222
274219
274217
274214
274211
274208
274205
274202
274199
274196
274193
274190
274187
274183
274180
274177
274173
274170
274167
274163
274159
274156
274152
274149
274145
274141
274137
274133
274130
274126
274122
274118
274114
274109
274105
274101
274097
274093
274088
274084
274079
274075
274070
274066
274061
274057
274052
274047
274043
274038
274033
274028
274023
274018
274013
274008
274003
273998
273993
273987
273982
273977
273971
273966
273961
273955
273949
273944
273938
273933
273927
273921
273915
273909
273904
273898
273892
273886
273880
273873
273867
273861
273855
273849
273842
273836
273830
273823
273817
273810
273803
273797
273790
273783
273777
273770
273763
273756
273749
273742
273735
273728