/*--------------------------------*- C++ -*----------------------------------*\
| =========                 |                                                 |
| \\      /  F ield         | OpenFOAM: The Open Source CFD Toolbox           |
|  \\    /   O peration     | Version:  2512                                  |
|   \\  /    A nd           | Website:  www.openfoam.com                      |
|    \\/     M anipulation  |                                                 |
\*---------------------------------------------------------------------------*/
FoamFile
{
    version     2.0;
    format      ascii;
    arch        "LSB;label=32;scalar=64";
    class       volScalarField;
    location    "0.002";
    object      pB;
}
// * * * * * * * * * * * * * * * * * * * * * * * * * * * * * * * * * * * * * //

dimensions      [1 1 -3 0 0 -1 0];

internalField   nonuniform List<scalar> 
100000
(
-75.3077
-177.759
-267.022
-332.804
-374.789
-397.787
-407.318
-408.063
-403.503
-396.003
-387.068
-377.604
-368.132
-358.935
-350.153
-341.847
-334.031
-326.694
-319.812
-313.356
-307.296
-301.599
-296.236
-291.18
-286.405
-281.888
-277.607
-273.545
-269.682
-266.004
-262.497
-259.147
-255.944
-252.878
-249.938
-247.118
-244.41
-241.807
-239.305
-236.897
-234.58
-232.349
-230.201
-228.132
-226.14
-224.22
-222.37
-220.587
-218.869
-217.215
-215.622
-214.089
-212.614
-211.197
-209.835
-208.529
-207.277
-206.079
-204.935
-203.845
-202.808
-201.826
-200.898
-200.024
-199.206
-198.444
-197.738
-197.091
-196.502
-195.971
-195.498
-195.081
-194.719
-194.408
-194.143
-193.919
-193.729
-193.567
-193.429
-193.308
-193.201
-193.104
-193.015
-192.932
-192.853
-192.777
-192.703
-192.631
-192.56
-192.489
-192.419
-192.349
-192.278
-192.208
-192.137
-192.066
-191.994
-191.923
-191.851
-191.781
-191.711
-191.642
-191.575
-191.511
-191.449
-191.392
-191.339
-191.291
-191.25
-191.217
-191.191
-191.175
-191.167
-191.167
-191.176
-191.192
-191.214
-191.24
-191.269
-191.3
-191.33
-191.361
-191.39
-191.417
-191.442
-191.465
-191.485
-191.502
-191.516
-191.527
-191.535
-191.54
-191.543
-191.543
-191.54
-191.536
-191.529
-191.52
-191.51
-191.499
-191.487
-191.475
-191.462
-191.45
-191.438
-191.428
-191.418
-191.41
-191.403
-191.398
-191.394
-191.391
-191.388
-191.386
-191.383
-191.381
-191.378
-191.375
-191.371
-191.366
-191.36
-191.354
-191.347
-191.339
-191.33
-191.32
-191.31
-191.299
-191.287
-191.274
-191.261
-191.247
-191.234
-191.22
-191.206
-191.192
-191.179
-191.166
-191.154
-191.142
-191.131
-191.121
-191.111
-191.101
-191.091
-191.081
-191.071
-191.06
-191.048
-191.035
-191.021
-191.007
-190.991
-190.974
-190.957
-190.939
-190.92
-190.901
-190.882
-190.863
-190.844
-190.825
-190.806
-190.788
-190.77
-190.753
-190.736
-190.72
-190.705
-190.69
-190.676
-190.663
-190.65
-190.638
-190.626
-190.614
-190.602
-190.59
-190.578
-190.566
-190.554
-190.542
-190.529
-190.516
-190.503
-190.489
-190.475
-190.461
-190.447
-190.432
-190.417
-190.402
-190.387
-190.372
-190.356
-190.341
-190.325
-190.31
-190.294
-190.279
-190.263
-190.248
-190.233
-190.217
-190.202
-190.187
-190.171
-190.156
-190.14
-190.125
-190.109
-190.094
-190.078
-190.063
-190.048
-190.032
-190.017
-190.002
-189.987
-189.973
-189.958
-189.943
-189.929
-189.915
-189.901
-189.887
-189.873
-189.859
-189.845
-189.832
-189.818
-189.805
-189.791
-189.778
-189.765
-189.752
-189.739
-189.726
-189.713
-189.7
-189.687
-189.674
-189.661
-189.649
-189.636
-189.624
-189.612
-189.599
-189.587
-189.575
-189.563
-189.551
-189.539
-189.527
-189.515
-189.504
-189.492
-189.48
-189.469
-189.457
-189.446
-189.434
-189.423
-189.411
-189.4
-189.388
-189.377
-189.366
-189.354
-189.343
-189.332
-189.32
-189.309
-189.298
-189.286
-189.275
-189.264
-189.253
-189.241
-189.23
-189.219
-189.207
-189.196
-189.185
-189.174
-189.162
-189.151
-189.14
-189.128
-189.117
-189.106
-189.094
-189.083
-189.072
-189.06
-189.049
-189.037
-189.026
-189.015
-189.003
-188.992
-188.98
-188.968
-188.957
-188.945
-188.934
-188.922
-188.91
-188.899
-188.887
-188.875
-188.864
-188.852
-188.84
-188.828
-188.816
-188.804
-188.792
-188.78
-188.769
-188.757
-188.744
-188.732
-188.72
-188.708
-188.696
-188.684
-188.672
-188.66
-188.648
-188.635
-188.623
-188.611
-188.598
-188.586
-188.574
-188.561
-188.549
-188.536
-188.524
-188.511
-188.499
-188.486
-188.474
-188.461
-188.448
-188.435
-188.423
-188.41
-188.397
-188.384
-188.371
-188.359
-188.346
-188.333
-188.32
-188.307
-188.294
-188.281
-188.267
-188.254
-188.241
-188.228
-188.215
-188.202
-188.188
-188.175
-188.162
-188.148
-188.135
-188.122
-188.108
-188.095
-188.081
-188.068
-188.054
-188.041
-188.027
-188.013
-188
-187.986
-187.972
-187.959
-187.945
-187.931
-187.917
-187.903
-187.889
-187.875
-187.861
-187.848
-187.834
-187.82
-187.805
-187.791
-187.777
-187.763
-187.749
-187.735
-187.721
-187.706
-187.692
-187.678
-187.664
-187.649
-187.635
-187.621
-187.606
-187.592
-187.577
-187.563
-187.548
-187.534
-187.519
-187.505
-187.49
-187.475
-187.461
-187.446
-187.431
-187.417
-187.402
-187.387
-187.372
-187.357
-187.343
-187.328
-187.313
-187.298
-187.283
-187.268
-187.253
-187.238
-187.223
-187.208
-187.193
-187.178
-187.163
-187.148
-187.133
-187.117
-187.102
-187.087
-187.072
-187.056
-187.041
-187.026
-187.011
-186.995
-186.98
-186.964
-186.949
-186.934
-186.918
-186.903
-186.887
-186.872
-186.856
-186.841
-186.825
-186.81
-186.794
-186.778
-186.763
-186.747
-186.731
-186.716
-186.7
-186.684
-186.669
-186.653
-186.637
-186.621
-186.606
-186.59
-186.574
-186.558
-186.542
-186.526
-186.51
-186.494
-186.479
-186.463
-186.447
-186.431
-186.415
-186.399
-186.383
-186.366
-186.35
-186.334
-186.318
-186.302
-186.286
-186.27
-186.254
-186.238
-186.221
-186.205
-186.189
-186.173
-186.157
-186.14
-186.124
-186.108
-186.092
-186.075
-186.059
-186.043
-186.026
-186.01
-185.994
-185.977
-185.961
-185.944
-185.928
-185.912
-185.895
-185.879
-185.862
-185.846
-185.829
-185.813
-185.796
-185.78
-185.763
-185.747
-185.73
-185.714
-185.697
-185.681
-185.664
-185.647
-185.631
-185.614
-185.598
-185.581
-185.564
-185.548
-185.531
-185.514
-185.498
-185.481
-185.464
-185.448
-185.431
-185.414
-185.398
-185.381
-185.364
-185.347
-185.331
-185.314
-185.297
-185.28
-185.264
-185.247
-185.23
-185.213
-185.196
-185.18
-185.163
-185.146
-185.129
-185.112
-185.095
-185.079
-185.062
-185.045
-185.028
-185.011
-184.994
-184.978
-184.961
-184.944
-184.927
-184.91
-184.893
-184.876
-184.859
-184.842
-184.826
-184.809
-184.792
-184.775
-184.758
-184.741
-184.724
-184.707
-184.69
-184.673
-184.656
-184.639
-184.622
-184.605
-184.589
-184.572
-184.555
-184.538
-184.521
-184.504
-184.487
-184.47
-184.453
-184.436
-184.419
-184.402
-184.385
-184.368
-184.351
-184.334
-184.317
-184.3
-184.283
-184.266
-184.249
-184.232
-184.215
-184.198
-184.181
-184.164
-184.147
-184.13
-184.113
-184.096
-184.079
-184.062
-184.045
-184.028
-184.011
-183.994
-183.977
-183.96
-183.943
-183.926
-183.909
-183.892
-183.875
-183.858
-183.841
-183.824
-183.807
-183.79
-183.773
-183.756
-183.739
-183.722
-183.705
-183.688
-183.671
-183.654
-183.637
-183.62
-183.603
-183.586
-183.569
-183.552
-183.535
-183.518
-183.501
-183.484
-183.467
-183.45
-183.433
-183.415
-183.398
-183.381
-183.364
-183.347
-183.33
-183.313
-183.296
-183.279
-183.261
-183.244
-183.227
-183.21
-183.193
-183.176
-183.158
-183.141
-183.124
-183.107
-183.09
-183.072
-183.055
-183.038
-183.02
-183.003
-182.986
-182.968
-182.951
-182.934
-182.916
-182.899
-182.881
-182.864
-182.846
-182.829
-182.811
-182.794
-182.776
-182.758
-182.741
-182.723
-182.705
-182.687
-182.67
-182.652
-182.634
-182.616
-182.598
-182.58
-182.562
-182.544
-182.526
-182.508
-182.489
-182.471
-182.453
-182.434
-182.416
-182.397
-182.379
-182.36
-182.341
-182.322
-182.304
-182.285
-182.266
-182.246
-182.227
-182.208
-182.189
-182.169
-182.149
-182.13
-182.11
-182.09
-182.07
-182.05
-182.03
-182.009
-181.989
-181.968
-181.947
-181.926
-181.905
-181.884
-181.862
-181.841
-181.819
-181.797
-181.775
-181.752
-181.73
-181.707
-181.684
-181.661
-181.638
-181.614
-181.59
-181.566
-181.541
-181.517
-181.492
-181.466
-181.441
-181.415
-181.389
-181.362
-181.335
-181.308
-181.28
-181.252
-181.224
-181.195
-181.166
-181.136
-181.106
-181.075
-181.044
-181.013
-180.981
-180.948
-180.915
-180.881
-180.847
-180.812
-180.776
-180.74
-180.703
-180.666
-180.628
-180.589
-180.549
-180.509
-180.467
-180.425
-180.382
-180.338
-180.293
-180.248
-180.201
-180.153
-180.104
-180.054
-180.003
-179.951
-179.898
-179.844
-179.788
-179.731
-179.672
-179.612
-179.551
-179.488
-179.424
-179.358
-179.291
-179.221
-179.151
-179.078
-179.003
-178.927
-178.848
-178.768
-178.685
-178.6
-178.513
-178.424
-178.332
-178.238
-178.141
-178.042
-177.94
-177.835
-177.727
-177.617
-177.503
-177.386
-177.266
-177.142
-177.015
-176.884
-176.75
-176.611
-176.469
-176.323
-176.172
-176.017
-175.858
-175.694
-175.525
-175.351
-175.172
-174.988
-174.798
-174.603
-174.401
-174.194
-173.981
-173.762
-173.535
-173.302
-173.062
-172.815
-172.56
-172.298
-172.027
-171.749
-171.462
-171.166
-170.861
-170.547
-170.223
-169.889
-169.545
-169.19
-168.825
-168.448
-168.059
-167.659
-167.246
-166.82
-166.381
-165.928
-165.461
-164.98
-164.483
-163.971
-163.443
-162.898
-162.336
-161.756
-161.158
-160.541
-159.904
-159.248
-158.57
-157.871
-157.149
-156.405
-155.636
-154.843
-154.025
-153.18
-152.308
-151.407
-150.478
-149.518
-148.527
-147.503
-146.446
-145.354
-144.226
-143.061
-141.857
-140.613
-139.328
-137.999
-136.625
-135.205
-133.736
-132.217
-130.645
-129.019
-127.336
-125.593
-123.789
-121.92
-119.984
-117.976
-115.895
-113.736
-111.496
-109.17
-106.753
-104.241
-101.628
-98.9083
-96.0746
-93.1198
-90.0355
-86.8123
-83.4393
-79.9045
-76.1935
-72.2897
-68.1735
-63.8213
-59.2041
-54.2862
-49.0222
-43.3538
-37.2053
-30.4772
-23.0371
-14.7082
-5.34938
-42.904
-145.74
-232.663
-298.148
-342.35
-368.763
-382.011
-386.302
-384.894
-380.085
-373.393
-365.78
-357.829
-349.883
-342.136
-334.69
-327.593
-320.863
-314.496
-308.481
-302.799
-297.43
-292.353
-287.547
-282.993
-278.67
-274.563
-270.655
-266.931
-263.377
-259.982
-256.735
-253.624
-250.642
-247.78
-245.031
-242.388
-239.846
-237.4
-235.044
-232.775
-230.59
-228.484
-226.454
-224.498
-222.611
-220.793
-219.04
-217.351
-215.723
-214.155
-212.646
-211.193
-209.796
-208.454
-207.166
-205.932
-204.751
-203.623
-202.547
-201.524
-200.554
-199.637
-198.774
-197.966
-197.212
-196.513
-195.871
-195.286
-194.757
-194.284
-193.866
-193.5
-193.183
-192.911
-192.678
-192.48
-192.309
-192.162
-192.032
-191.917
-191.813
-191.717
-191.628
-191.543
-191.463
-191.385
-191.309
-191.235
-191.161
-191.089
-191.016
-190.944
-190.872
-190.8
-190.728
-190.656
-190.584
-190.513
-190.442
-190.373
-190.304
-190.238
-190.174
-190.114
-190.057
-190.005
-189.958
-189.918
-189.885
-189.859
-189.842
-189.833
-189.832
-189.839
-189.853
-189.872
-189.895
-189.921
-189.949
-189.977
-190.005
-190.032
-190.057
-190.081
-190.102
-190.12
-190.136
-190.149
-190.16
-190.167
-190.172
-190.175
-190.175
-190.172
-190.168
-190.161
-190.153
-190.143
-190.133
-190.121
-190.109
-190.097
-190.085
-190.074
-190.064
-190.055
-190.047
-190.04
-190.034
-190.03
-190.026
-190.023
-190.021
-190.018
-190.015
-190.012
-190.008
-190.004
-189.999
-189.993
-189.987
-189.98
-189.972
-189.963
-189.953
-189.943
-189.932
-189.92
-189.907
-189.894
-189.881
-189.868
-189.854
-189.84
-189.827
-189.814
-189.801
-189.789
-189.778
-189.767
-189.756
-189.746
-189.736
-189.726
-189.715
-189.705
-189.694
-189.682
-189.669
-189.655
-189.64
-189.625
-189.609
-189.592
-189.574
-189.556
-189.537
-189.518
-189.499
-189.481
-189.462
-189.444
-189.426
-189.408
-189.391
-189.375
-189.359
-189.344
-189.329
-189.315
-189.302
-189.289
-189.276
-189.264
-189.252
-189.24
-189.228
-189.216
-189.204
-189.192
-189.18
-189.167
-189.154
-189.141
-189.127
-189.113
-189.099
-189.085
-189.071
-189.056
-189.041
-189.026
-189.011
-188.995
-188.98
-188.965
-188.949
-188.934
-188.919
-188.904
-188.888
-188.873
-188.858
-188.843
-188.827
-188.812
-188.797
-188.781
-188.766
-188.751
-188.735
-188.72
-188.705
-188.69
-188.675
-188.66
-188.645
-188.63
-188.615
-188.601
-188.586
-188.572
-188.558
-188.544
-188.53
-188.516
-188.502
-188.489
-188.475
-188.462
-188.449
-188.435
-188.422
-188.409
-188.396
-188.383
-188.37
-188.357
-188.344
-188.332
-188.319
-188.306
-188.294
-188.281
-188.269
-188.257
-188.245
-188.232
-188.22
-188.208
-188.196
-188.185
-188.173
-188.161
-188.149
-188.138
-188.126
-188.115
-188.103
-188.092
-188.08
-188.069
-188.058
-188.046
-188.035
-188.024
-188.012
-188.001
-187.99
-187.979
-187.967
-187.956
-187.945
-187.934
-187.923
-187.911
-187.9
-187.889
-187.878
-187.867
-187.855
-187.844
-187.833
-187.822
-187.811
-187.799
-187.788
-187.777
-187.766
-187.754
-187.743
-187.732
-187.72
-187.709
-187.698
-187.687
-187.675
-187.664
-187.652
-187.641
-187.63
-187.618
-187.607
-187.595
-187.584
-187.572
-187.56
-187.549
-187.537
-187.526
-187.514
-187.502
-187.491
-187.479
-187.467
-187.455
-187.443
-187.432
-187.42
-187.408
-187.396
-187.384
-187.372
-187.36
-187.348
-187.336
-187.324
-187.312
-187.3
-187.287
-187.275
-187.263
-187.251
-187.239
-187.226
-187.214
-187.202
-187.189
-187.177
-187.164
-187.152
-187.14
-187.127
-187.114
-187.102
-187.089
-187.077
-187.064
-187.051
-187.039
-187.026
-187.013
-187
-186.987
-186.974
-186.961
-186.949
-186.936
-186.923
-186.91
-186.897
-186.884
-186.87
-186.857
-186.844
-186.831
-186.818
-186.805
-186.791
-186.778
-186.765
-186.751
-186.738
-186.725
-186.711
-186.698
-186.684
-186.671
-186.657
-186.644
-186.63
-186.616
-186.603
-186.589
-186.575
-186.561
-186.548
-186.534
-186.52
-186.506
-186.492
-186.478
-186.465
-186.451
-186.437
-186.423
-186.409
-186.395
-186.38
-186.366
-186.352
-186.338
-186.324
-186.31
-186.295
-186.281
-186.267
-186.253
-186.238
-186.224
-186.21
-186.195
-186.181
-186.166
-186.152
-186.137
-186.123
-186.108
-186.094
-186.079
-186.064
-186.05
-186.035
-186.02
-186.006
-185.991
-185.976
-185.961
-185.947
-185.932
-185.917
-185.902
-185.887
-185.872
-185.857
-185.842
-185.827
-185.812
-185.797
-185.782
-185.767
-185.752
-185.737
-185.722
-185.707
-185.692
-185.677
-185.661
-185.646
-185.631
-185.616
-185.6
-185.585
-185.57
-185.554
-185.539
-185.524
-185.508
-185.493
-185.477
-185.462
-185.446
-185.431
-185.415
-185.4
-185.384
-185.369
-185.353
-185.338
-185.322
-185.306
-185.291
-185.275
-185.259
-185.244
-185.228
-185.212
-185.196
-185.181
-185.165
-185.149
-185.133
-185.117
-185.102
-185.086
-185.07
-185.054
-185.038
-185.022
-185.006
-184.99
-184.974
-184.958
-184.942
-184.926
-184.91
-184.894
-184.878
-184.862
-184.846
-184.83
-184.814
-184.798
-184.782
-184.766
-184.749
-184.733
-184.717
-184.701
-184.685
-184.668
-184.652
-184.636
-184.62
-184.603
-184.587
-184.571
-184.555
-184.538
-184.522
-184.506
-184.489
-184.473
-184.457
-184.44
-184.424
-184.407
-184.391
-184.375
-184.358
-184.342
-184.325
-184.309
-184.292
-184.276
-184.26
-184.243
-184.227
-184.21
-184.194
-184.177
-184.161
-184.144
-184.127
-184.111
-184.094
-184.078
-184.061
-184.045
-184.028
-184.011
-183.995
-183.978
-183.962
-183.945
-183.928
-183.912
-183.895
-183.878
-183.862
-183.845
-183.828
-183.812
-183.795
-183.778
-183.762
-183.745
-183.728
-183.712
-183.695
-183.678
-183.661
-183.645
-183.628
-183.611
-183.595
-183.578
-183.561
-183.544
-183.528
-183.511
-183.494
-183.477
-183.461
-183.444
-183.427
-183.41
-183.393
-183.377
-183.36
-183.343
-183.326
-183.309
-183.293
-183.276
-183.259
-183.242
-183.226
-183.209
-183.192
-183.175
-183.158
-183.141
-183.125
-183.108
-183.091
-183.074
-183.057
-183.041
-183.024
-183.007
-182.99
-182.973
-182.957
-182.94
-182.923
-182.906
-182.889
-182.872
-182.856
-182.839
-182.822
-182.805
-182.788
-182.771
-182.755
-182.738
-182.721
-182.704
-182.687
-182.67
-182.653
-182.637
-182.62
-182.603
-182.586
-182.569
-182.552
-182.535
-182.519
-182.502
-182.485
-182.468
-182.451
-182.434
-182.417
-182.401
-182.384
-182.367
-182.35
-182.333
-182.316
-182.299
-182.282
-182.265
-182.248
-182.232
-182.215
-182.198
-182.181
-182.164
-182.147
-182.13
-182.113
-182.096
-182.079
-182.062
-182.045
-182.028
-182.011
-181.994
-181.977
-181.96
-181.943
-181.926
-181.909
-181.892
-181.875
-181.858
-181.841
-181.824
-181.807
-181.79
-181.773
-181.756
-181.738
-181.721
-181.704
-181.687
-181.67
-181.652
-181.635
-181.618
-181.6
-181.583
-181.566
-181.548
-181.531
-181.514
-181.496
-181.479
-181.461
-181.444
-181.426
-181.409
-181.391
-181.373
-181.356
-181.338
-181.32
-181.302
-181.284
-181.266
-181.248
-181.23
-181.212
-181.194
-181.176
-181.158
-181.14
-181.121
-181.103
-181.084
-181.066
-181.047
-181.029
-181.01
-180.991
-180.972
-180.953
-180.934
-180.915
-180.896
-180.876
-180.857
-180.837
-180.817
-180.798
-180.778
-180.758
-180.738
-180.717
-180.697
-180.676
-180.656
-180.635
-180.614
-180.593
-180.571
-180.55
-180.528
-180.506
-180.484
-180.462
-180.44
-180.417
-180.394
-180.371
-180.348
-180.324
-180.3
-180.276
-180.252
-180.227
-180.203
-180.177
-180.152
-180.126
-180.1
-180.074
-180.047
-180.02
-179.992
-179.964
-179.936
-179.907
-179.878
-179.849
-179.819
-179.788
-179.757
-179.726
-179.694
-179.661
-179.628
-179.595
-179.561
-179.526
-179.49
-179.454
-179.418
-179.38
-179.342
-179.303
-179.264
-179.223
-179.182
-179.14
-179.097
-179.054
-179.009
-178.963
-178.917
-178.869
-178.82
-178.771
-178.72
-178.668
-178.615
-178.56
-178.505
-178.448
-178.389
-178.33
-178.269
-178.206
-178.142
-178.076
-178.009
-177.94
-177.869
-177.796
-177.722
-177.646
-177.567
-177.487
-177.405
-177.32
-177.233
-177.144
-177.052
-176.958
-176.862
-176.763
-176.661
-176.556
-176.448
-176.338
-176.224
-176.108
-175.987
-175.864
-175.737
-175.607
-175.472
-175.334
-175.192
-175.046
-174.896
-174.741
-174.582
-174.418
-174.249
-174.075
-173.897
-173.713
-173.523
-173.328
-173.127
-172.921
-172.708
-172.488
-172.262
-172.03
-171.79
-171.543
-171.289
-171.026
-170.756
-170.478
-170.191
-169.896
-169.591
-169.277
-168.954
-168.62
-168.277
-167.923
-167.557
-167.181
-166.793
-166.392
-165.98
-165.554
-165.116
-164.663
-164.197
-163.716
-163.22
-162.708
-162.18
-161.636
-161.074
-160.495
-159.897
-159.281
-158.645
-157.989
-157.312
-156.613
-155.892
-155.148
-154.38
-153.588
-152.77
-151.926
-151.054
-150.154
-149.225
-148.266
-147.276
-146.253
-145.196
-144.105
-142.978
-141.814
-140.611
-139.367
-138.082
-136.754
-135.381
-133.961
-132.493
-130.975
-129.404
-127.778
-126.096
-124.354
-122.551
-120.682
-118.747
-116.74
-114.66
-112.501
-110.262
-107.936
-105.52
-103.009
-100.397
-97.6774
-94.8446
-91.8908
-88.8076
-85.5856
-82.2143
-78.6815
-74.9733
-71.0732
-66.962
-62.6169
-58.0101
-53.1074
-47.8666
-42.2341
-36.1422
-29.5036
-22.2053
-14.099
-5.08419
-31.6103
-117.108
-194.568
-255.792
-299.914
-328.904
-345.997
-354.478
-357.087
-355.881
-352.306
-347.334
-341.599
-335.508
-329.313
-323.172
-317.177
-311.382
-305.814
-300.485
-295.395
-290.541
-285.914
-281.503
-277.296
-273.282
-269.449
-265.786
-262.282
-258.927
-255.711
-252.626
-249.664
-246.817
-244.078
-241.443
-238.904
-236.459
-234.102
-231.829
-229.638
-227.524
-225.484
-223.516
-221.617
-219.785
-218.018
-216.313
-214.668
-213.083
-211.555
-210.082
-208.665
-207.302
-205.991
-204.733
-203.527
-202.373
-201.269
-200.217
-199.215
-198.265
-197.367
-196.521
-195.727
-194.986
-194.298
-193.664
-193.084
-192.558
-192.085
-191.664
-191.292
-190.967
-190.684
-190.439
-190.227
-190.042
-189.881
-189.738
-189.61
-189.494
-189.387
-189.288
-189.195
-189.107
-189.022
-188.94
-188.86
-188.782
-188.705
-188.629
-188.554
-188.48
-188.406
-188.332
-188.259
-188.187
-188.115
-188.044
-187.975
-187.907
-187.842
-187.779
-187.72
-187.664
-187.613
-187.567
-187.528
-187.495
-187.469
-187.45
-187.44
-187.436
-187.44
-187.45
-187.465
-187.484
-187.506
-187.529
-187.554
-187.578
-187.601
-187.624
-187.644
-187.663
-187.679
-187.694
-187.705
-187.714
-187.721
-187.725
-187.727
-187.727
-187.725
-187.72
-187.714
-187.706
-187.697
-187.687
-187.677
-187.665
-187.654
-187.643
-187.633
-187.623
-187.614
-187.606
-187.599
-187.593
-187.588
-187.584
-187.581
-187.577
-187.574
-187.571
-187.567
-187.563
-187.558
-187.553
-187.547
-187.54
-187.533
-187.525
-187.516
-187.507
-187.496
-187.485
-187.474
-187.462
-187.449
-187.436
-187.423
-187.41
-187.397
-187.384
-187.371
-187.358
-187.346
-187.335
-187.324
-187.313
-187.303
-187.292
-187.282
-187.271
-187.26
-187.249
-187.237
-187.224
-187.21
-187.196
-187.181
-187.165
-187.148
-187.131
-187.114
-187.096
-187.077
-187.059
-187.041
-187.023
-187.005
-186.987
-186.97
-186.954
-186.937
-186.922
-186.907
-186.892
-186.878
-186.865
-186.852
-186.84
-186.827
-186.815
-186.803
-186.791
-186.779
-186.767
-186.755
-186.742
-186.729
-186.717
-186.703
-186.69
-186.676
-186.662
-186.648
-186.634
-186.619
-186.605
-186.59
-186.575
-186.56
-186.545
-186.53
-186.515
-186.5
-186.485
-186.47
-186.454
-186.439
-186.424
-186.409
-186.394
-186.379
-186.364
-186.349
-186.334
-186.319
-186.304
-186.289
-186.274
-186.259
-186.244
-186.229
-186.214
-186.2
-186.185
-186.171
-186.157
-186.143
-186.129
-186.115
-186.101
-186.088
-186.074
-186.061
-186.047
-186.034
-186.021
-186.008
-185.995
-185.982
-185.969
-185.956
-185.943
-185.931
-185.918
-185.905
-185.893
-185.88
-185.868
-185.856
-185.844
-185.831
-185.819
-185.807
-185.795
-185.784
-185.772
-185.76
-185.749
-185.737
-185.725
-185.714
-185.702
-185.691
-185.68
-185.668
-185.657
-185.646
-185.635
-185.623
-185.612
-185.601
-185.59
-185.579
-185.568
-185.556
-185.545
-185.534
-185.523
-185.512
-185.501
-185.49
-185.479
-185.468
-185.457
-185.446
-185.435
-185.424
-185.413
-185.401
-185.39
-185.379
-185.368
-185.357
-185.346
-185.335
-185.324
-185.313
-185.301
-185.29
-185.279
-185.268
-185.257
-185.245
-185.234
-185.223
-185.212
-185.2
-185.189
-185.178
-185.166
-185.155
-185.143
-185.132
-185.121
-185.109
-185.098
-185.086
-185.074
-185.063
-185.051
-185.04
-185.028
-185.016
-185.005
-184.993
-184.981
-184.969
-184.957
-184.946
-184.934
-184.922
-184.91
-184.898
-184.886
-184.874
-184.862
-184.85
-184.838
-184.826
-184.814
-184.802
-184.789
-184.777
-184.765
-184.753
-184.74
-184.728
-184.716
-184.703
-184.691
-184.679
-184.666
-184.654
-184.641
-184.629
-184.616
-184.603
-184.591
-184.578
-184.565
-184.553
-184.54
-184.527
-184.514
-184.501
-184.489
-184.476
-184.463
-184.45
-184.437
-184.424
-184.411
-184.398
-184.385
-184.372
-184.358
-184.345
-184.332
-184.319
-184.306
-184.292
-184.279
-184.266
-184.252
-184.239
-184.226
-184.212
-184.199
-184.185
-184.172
-184.158
-184.144
-184.131
-184.117
-184.104
-184.09
-184.076
-184.062
-184.049
-184.035
-184.021
-184.007
-183.993
-183.98
-183.966
-183.952
-183.938
-183.924
-183.91
-183.896
-183.882
-183.868
-183.854
-183.839
-183.825
-183.811
-183.797
-183.783
-183.768
-183.754
-183.74
-183.725
-183.711
-183.697
-183.682
-183.668
-183.653
-183.639
-183.625
-183.61
-183.596
-183.581
-183.566
-183.552
-183.537
-183.523
-183.508
-183.493
-183.479
-183.464
-183.449
-183.434
-183.42
-183.405
-183.39
-183.375
-183.36
-183.345
-183.33
-183.315
-183.3
-183.285
-183.27
-183.255
-183.24
-183.225
-183.21
-183.195
-183.18
-183.165
-183.15
-183.135
-183.119
-183.104
-183.089
-183.074
-183.059
-183.043
-183.028
-183.013
-182.997
-182.982
-182.967
-182.951
-182.936
-182.921
-182.905
-182.89
-182.874
-182.859
-182.843
-182.828
-182.812
-182.797
-182.781
-182.765
-182.75
-182.734
-182.719
-182.703
-182.687
-182.672
-182.656
-182.64
-182.625
-182.609
-182.593
-182.577
-182.562
-182.546
-182.53
-182.514
-182.498
-182.483
-182.467
-182.451
-182.435
-182.419
-182.403
-182.387
-182.371
-182.355
-182.339
-182.323
-182.307
-182.291
-182.275
-182.259
-182.243
-182.227
-182.211
-182.195
-182.179
-182.163
-182.147
-182.131
-182.115
-182.099
-182.083
-182.066
-182.05
-182.034
-182.018
-182.002
-181.986
-181.969
-181.953
-181.937
-181.921
-181.904
-181.888
-181.872
-181.856
-181.839
-181.823
-181.807
-181.79
-181.774
-181.758
-181.742
-181.725
-181.709
-181.692
-181.676
-181.66
-181.643
-181.627
-181.611
-181.594
-181.578
-181.561
-181.545
-181.529
-181.512
-181.496
-181.479
-181.463
-181.446
-181.43
-181.413
-181.397
-181.381
-181.364
-181.348
-181.331
-181.315
-181.298
-181.282
-181.265
-181.249
-181.232
-181.216
-181.199
-181.183
-181.166
-181.149
-181.133
-181.116
-181.1
-181.083
-181.067
-181.05
-181.034
-181.017
-181
-180.984
-180.967
-180.951
-180.934
-180.918
-180.901
-180.884
-180.868
-180.851
-180.835
-180.818
-180.802
-180.785
-180.768
-180.752
-180.735
-180.719
-180.702
-180.685
-180.669
-180.652
-180.636
-180.619
-180.602
-180.586
-180.569
-180.552
-180.536
-180.519
-180.503
-180.486
-180.469
-180.453
-180.436
-180.419
-180.403
-180.386
-180.37
-180.353
-180.336
-180.32
-180.303
-180.286
-180.27
-180.253
-180.236
-180.22
-180.203
-180.187
-180.17
-180.153
-180.137
-180.12
-180.103
-180.087
-180.07
-180.053
-180.037
-180.02
-180.003
-179.987
-179.97
-179.953
-179.937
-179.92
-179.903
-179.887
-179.87
-179.853
-179.837
-179.82
-179.803
-179.786
-179.77
-179.753
-179.736
-179.719
-179.703
-179.686
-179.669
-179.653
-179.636
-179.619
-179.602
-179.585
-179.569
-179.552
-179.535
-179.518
-179.501
-179.484
-179.468
-179.451
-179.434
-179.417
-179.4
-179.383
-179.366
-179.349
-179.332
-179.315
-179.298
-179.281
-179.264
-179.247
-179.23
-179.212
-179.195
-179.178
-179.161
-179.144
-179.126
-179.109
-179.092
-179.074
-179.057
-179.04
-179.022
-179.005
-178.987
-178.969
-178.952
-178.934
-178.916
-178.899
-178.881
-178.863
-178.845
-178.827
-178.809
-178.791
-178.772
-178.754
-178.736
-178.718
-178.699
-178.681
-178.662
-178.643
-178.624
-178.606
-178.587
-178.568
-178.548
-178.529
-178.51
-178.49
-178.471
-178.451
-178.431
-178.411
-178.391
-178.371
-178.351
-178.33
-178.31
-178.289
-178.268
-178.247
-178.226
-178.204
-178.182
-178.161
-178.139
-178.116
-178.094
-178.071
-178.048
-178.025
-178.002
-177.978
-177.955
-177.93
-177.906
-177.881
-177.856
-177.831
-177.806
-177.78
-177.754
-177.727
-177.7
-177.673
-177.645
-177.617
-177.588
-177.56
-177.53
-177.5
-177.47
-177.439
-177.408
-177.377
-177.344
-177.311
-177.278
-177.244
-177.21
-177.174
-177.139
-177.102
-177.065
-177.027
-176.988
-176.949
-176.909
-176.868
-176.826
-176.784
-176.74
-176.696
-176.65
-176.604
-176.556
-176.508
-176.459
-176.408
-176.356
-176.303
-176.249
-176.194
-176.137
-176.079
-176.02
-175.959
-175.896
-175.833
-175.767
-175.7
-175.631
-175.561
-175.488
-175.414
-175.338
-175.26
-175.18
-175.098
-175.014
-174.927
-174.838
-174.747
-174.653
-174.557
-174.458
-174.357
-174.252
-174.145
-174.035
-173.922
-173.805
-173.686
-173.563
-173.436
-173.306
-173.172
-173.034
-172.893
-172.747
-172.597
-172.443
-172.284
-172.12
-171.952
-171.779
-171.601
-171.417
-171.228
-171.034
-170.833
-170.627
-170.415
-170.196
-169.97
-169.738
-169.499
-169.253
-168.999
-168.737
-168.468
-168.19
-167.904
-167.609
-167.305
-166.992
-166.669
-166.337
-165.994
-165.64
-165.276
-164.9
-164.513
-164.113
-163.702
-163.277
-162.839
-162.388
-161.922
-161.442
-160.947
-160.436
-159.909
-159.366
-158.805
-158.227
-157.631
-157.015
-156.38
-155.725
-155.049
-154.352
-153.632
-152.889
-152.123
-151.332
-150.515
-149.672
-148.802
-147.903
-146.976
-146.018
-145.029
-144.008
-142.953
-141.863
-140.738
-139.575
-138.373
-137.132
-135.849
-134.522
-133.151
-131.733
-130.267
-128.75
-127.181
-125.557
-123.877
-122.137
-120.336
-118.47
-116.536
-114.532
-112.454
-110.298
-108.061
-105.738
-103.325
-100.817
-98.2079
-95.4924
-92.6636
-89.7142
-86.6361
-83.4201
-80.0557
-76.5313
-72.8332
-68.9458
-64.8509
-60.5269
-55.9482
-51.0841
-45.8973
-40.3424
-34.364
-27.8938
-20.8479
-13.1199
-4.6654
-25.2967
-94.7088
-161.346
-216.556
-258.602
-288.408
-308.072
-319.949
-326.159
-328.403
-327.955
-325.731
-322.369
-318.308
-313.846
-309.182
-304.449
-299.737
-295.101
-290.579
-286.191
-281.949
-277.859
-273.92
-270.133
-266.491
-262.99
-259.624
-256.387
-253.273
-250.276
-247.389
-244.607
-241.925
-239.339
-236.842
-234.433
-232.106
-229.859
-227.688
-225.59
-223.564
-221.606
-219.714
-217.886
-216.12
-214.415
-212.769
-211.179
-209.645
-208.166
-206.74
-205.365
-204.043
-202.771
-201.549
-200.377
-199.255
-198.181
-197.157
-196.182
-195.256
-194.38
-193.554
-192.777
-192.051
-191.376
-190.752
-190.179
-189.657
-189.184
-188.76
-188.381
-188.046
-187.751
-187.492
-187.265
-187.064
-186.887
-186.729
-186.586
-186.456
-186.337
-186.227
-186.123
-186.025
-185.932
-185.842
-185.756
-185.672
-185.59
-185.51
-185.431
-185.354
-185.277
-185.201
-185.127
-185.054
-184.981
-184.91
-184.841
-184.774
-184.71
-184.648
-184.589
-184.535
-184.485
-184.44
-184.4
-184.367
-184.341
-184.321
-184.308
-184.302
-184.302
-184.308
-184.318
-184.332
-184.349
-184.368
-184.387
-184.407
-184.427
-184.445
-184.463
-184.478
-184.492
-184.504
-184.514
-184.522
-184.528
-184.531
-184.532
-184.532
-184.529
-184.525
-184.519
-184.512
-184.503
-184.494
-184.484
-184.474
-184.463
-184.453
-184.443
-184.434
-184.425
-184.417
-184.41
-184.404
-184.399
-184.394
-184.39
-184.386
-184.382
-184.378
-184.373
-184.369
-184.364
-184.358
-184.352
-184.345
-184.338
-184.329
-184.321
-184.311
-184.301
-184.29
-184.279
-184.267
-184.255
-184.243
-184.23
-184.217
-184.204
-184.192
-184.179
-184.167
-184.155
-184.144
-184.132
-184.121
-184.111
-184.1
-184.089
-184.079
-184.067
-184.056
-184.044
-184.031
-184.017
-184.003
-183.988
-183.973
-183.957
-183.94
-183.923
-183.906
-183.888
-183.87
-183.853
-183.835
-183.818
-183.801
-183.784
-183.768
-183.752
-183.737
-183.722
-183.708
-183.694
-183.681
-183.668
-183.655
-183.642
-183.63
-183.618
-183.606
-183.594
-183.582
-183.569
-183.557
-183.544
-183.531
-183.518
-183.505
-183.491
-183.478
-183.464
-183.45
-183.435
-183.421
-183.406
-183.392
-183.377
-183.362
-183.347
-183.332
-183.317
-183.303
-183.288
-183.273
-183.258
-183.243
-183.229
-183.214
-183.199
-183.184
-183.169
-183.154
-183.139
-183.125
-183.11
-183.095
-183.081
-183.066
-183.051
-183.037
-183.023
-183.008
-182.994
-182.98
-182.966
-182.953
-182.939
-182.925
-182.912
-182.899
-182.885
-182.872
-182.859
-182.846
-182.833
-182.82