/*--------------------------------*- C++ -*----------------------------------*\
| =========                 |                                                 |
| \\      /  F ield         | OpenFOAM: The Open Source CFD Toolbox           |
|  \\    /   O peration     | Version:  2512                                  |
|   \\  /    A nd           | Website:  www.openfoam.com                      |
|    \\/     M anipulation  |                                                 |
\*---------------------------------------------------------------------------*/
FoamFile
{
    version     2.0;
    format      ascii;
    arch        "LSB;label=32;scalar=64";
    class       surfaceScalarField;
    location    "0.002";
    object      phi;
}
// * * * * * * * * * * * * * * * * * * * * * * * * * * * * * * * * * * * * * //

dimensions      [1 0 -1 0 0 0 0];

oriented        oriented;

internalField   nonuniform List<scalar> 
198900
(
0.00147572
0.000464513
0.00106598
0.000410966
0.000807961
0.000258896
0.0006491
0.000159756
0.00055115
9.88563e-05
0.000490169
6.18914e-05
0.000451359
3.97195e-05
0.000425838
2.64281e-05
0.000408403
1.83388e-05
0.00039602
1.32831e-05
0.000386905
1.00101e-05
0.000379996
7.80208e-06
0.000374638
6.24759e-06
0.000370416
5.10857e-06
0.000367057
4.24458e-06
0.00036437
3.57024e-06
0.00036222
3.03162e-06
0.000360507
2.59333e-06
0.000359155
2.23118e-06
0.000358105
1.92809e-06
0.00035731
1.67163e-06
0.000356734
1.45257e-06
0.000356346
1.26388e-06
0.00035612
1.10015e-06
0.000356037
9.57137e-07
0.000356079
8.31501e-07
0.000356231
7.20546e-07
0.000356481
6.22084e-07
0.000356818
5.34318e-07
0.000357233
4.55749e-07
0.000357719
3.85077e-07
0.000358268
3.2123e-07
0.000358874
2.63512e-07
0.000359532
2.11244e-07
0.000360237
1.63875e-07
0.000360985
1.20583e-07
0.000361771
8.12406e-08
0.000362591
4.76368e-08
0.000363446
1.27953e-08
0.000364336
-2.38953e-08
0.000365256
-5.28109e-08
0.000366201
-7.88304e-08
0.000367169
-1.02858e-07
0.00036816
-1.2562e-07
0.000369173
-1.47709e-07
0.000370207
-1.69333e-07
0.000371258
-1.86921e-07
0.000372322
-2.00504e-07
0.0003734
-2.14468e-07
0.000374492
-2.28658e-07
0.000375597
-2.42378e-07
0.000376715
-2.5529e-07
0.000377844
-2.67372e-07
0.000378985
-2.78679e-07
0.000380135
-2.89283e-07
0.000381295
-2.99243e-07
0.000382465
-3.08609e-07
0.000383642
-3.17426e-07
0.000384828
-3.25732e-07
0.000386021
-3.3356e-07
0.00038722
-3.40938e-07
0.000388427
-3.47888e-07
0.00038964
-3.54425e-07
0.000390858
-3.60554e-07
0.000392081
-3.66268e-07
0.00039331
-3.71538e-07
0.000394543
-3.76307e-07
0.000395779
-3.80482e-07
0.000397019
-3.83922e-07
0.000398261
-3.86443e-07
0.000399503
-3.87845e-07
0.000400745
-3.87954e-07
0.000401986
-3.86681e-07
0.000403224
-3.84085e-07
0.000404457
-3.80387e-07
0.000405685
-3.75951e-07
0.000406908
-3.71206e-07
0.000408127
-3.66557e-07
0.00040934
-3.62307e-07
0.000410549
-3.58627e-07
0.000411755
-3.55563e-07
0.000412957
-3.53072e-07
0.000414157
-3.51064e-07
0.000415355
-3.49445e-07
0.000416551
-3.48126e-07
0.000417746
-3.47039e-07
0.000418939
-3.46137e-07
0.000420131
-3.45384e-07
0.000421321
-3.44759e-07
0.000422511
-3.44248e-07
0.000423699
-3.43841e-07
0.000424887
-3.43531e-07
0.000426074
-3.43314e-07
0.00042726
-3.43187e-07
0.000428446
-3.43146e-07
0.000429631
-3.4319e-07
0.000430815
-3.43316e-07
0.000431999
-3.43521e-07
0.000433183
-3.43805e-07
0.000434367
-3.44165e-07
0.00043555
-3.44599e-07
0.000436733
-3.45107e-07
0.000437916
-3.45685e-07
0.0004391
-3.46331e-07
0.000440283
-3.4704e-07
0.000441466
-3.47802e-07
0.00044265
-3.48598e-07
0.000443833
-3.49394e-07
0.000445017
-3.50137e-07
0.0004462
-3.50753e-07
0.000447384
-3.51146e-07
0.000448566
-3.51221e-07
0.000449748
-3.50898e-07
0.000450928
-3.50139e-07
0.000452107
-3.4897e-07
0.000453283
-3.47473e-07
0.000454456
-3.45776e-07
0.000455628
-3.44017e-07
0.000456796
-3.42316e-07
0.000457963
-3.40754e-07
0.000459127
-3.39373e-07
0.000460289
-3.38176e-07
0.00046145
-3.3715e-07
0.000462609
-3.36269e-07
0.000463766
-3.35511e-07
0.000464922
-3.34856e-07
0.000466077
-3.3429e-07
0.00046723
-3.33802e-07
0.000468383
-3.33386e-07
0.000469533
-3.33036e-07
0.000470683
-3.32748e-07
0.000471832
-3.32521e-07
0.00047298
-3.32351e-07
0.000474127
-3.32238e-07
0.000475273
-3.32179e-07
0.000476418
-3.3217e-07
0.000477562
-3.3221e-07
0.000478706
-3.32293e-07
0.000479849
-3.32414e-07
0.000480991
-3.32566e-07
0.000482132
-3.32742e-07
0.000483273
-3.3293e-07
0.000484413
-3.33118e-07
0.000485552
-3.33288e-07
0.000486691
-3.33418e-07
0.000487829
-3.33482e-07
0.000488965
-3.33455e-07
0.000490101
-3.33321e-07
0.000491236
-3.3307e-07
0.000492369
-3.32712e-07
0.000493501
-3.3227e-07
0.000494631
-3.31777e-07
0.00049576
-3.31269e-07
0.000496888
-3.30772e-07
0.000498014
-3.30304e-07
0.000499139
-3.29871e-07
0.000500262
-3.29471e-07
0.000501384
-3.29099e-07
0.000502505
-3.2875e-07
0.000503624
-3.28421e-07
0.000504742
-3.28109e-07
0.000505859
-3.27814e-07
0.000506974
-3.27537e-07
0.000508089
-3.27279e-07
0.000509202
-3.27038e-07
0.000510313
-3.26815e-07
0.000511424
-3.26611e-07
0.000512533
-3.26426e-07
0.000513641
-3.26258e-07
0.000514748
-3.26107e-07
0.000515854
-3.25973e-07
0.000516958
-3.25852e-07
0.000518061
-3.25743e-07
0.000519164
-3.25639e-07
0.000520265
-3.25533e-07
0.000521364
-3.25416e-07
0.000522463
-3.25275e-07
0.00052356
-3.25098e-07
0.000524656
-3.24872e-07
0.000525751
-3.24586e-07
0.000526844
-3.24236e-07
0.000527935
-3.23823e-07
0.000529025
-3.23361e-07
0.000530113
-3.22868e-07
0.0005312
-3.22365e-07
0.000532285
-3.21875e-07
0.000533369
-3.21413e-07
0.00053445
-3.20992e-07
0.000535531
-3.20616e-07
0.00053661
-3.20287e-07
0.000537687
-3.20004e-07
0.000538763
-3.19765e-07
0.000539838
-3.19566e-07
0.000540911
-3.19406e-07
0.000541983
-3.19276e-07
0.000543053
-3.19172e-07
0.000544123
-3.19082e-07
0.000545191
-3.18997e-07
0.000546257
-3.18908e-07
0.000547323
-3.18806e-07
0.000548387
-3.18687e-07
0.00054945
-3.18548e-07
0.000550511
-3.18387e-07
0.000551571
-3.18206e-07
0.000552629
-3.18004e-07
0.000553686
-3.17781e-07
0.000554741
-3.17534e-07
0.000555795
-3.17262e-07
0.000556848
-3.16962e-07
0.000557898
-3.1663e-07
0.000558947
-3.16266e-07
0.000559995
-3.15874e-07
0.00056104
-3.15457e-07
0.000562084
-3.15024e-07
0.000563126
-3.14583e-07
0.000564167
-3.14142e-07
0.000565206
-3.13709e-07
0.000566242
-3.13287e-07
0.000567278
-3.12878e-07
0.000568311
-3.12482e-07
0.000569343
-3.121e-07
0.000570373
-3.11729e-07
0.000571401
-3.1137e-07
0.000572428
-3.1102e-07
0.000573452
-3.1068e-07
0.000574476
-3.10347e-07
0.000575497
-3.10023e-07
0.000576517
-3.09706e-07
0.000577535
-3.09395e-07
0.000578551
-3.0909e-07
0.000579566
-3.08789e-07
0.000580579
-3.08492e-07
0.00058159
-3.08197e-07
0.0005826
-3.07902e-07
0.000583608
-3.07604e-07
0.000584614
-3.07302e-07
0.000585618
-3.06992e-07
0.000586621
-3.06672e-07
0.000587622
-3.06343e-07
0.000588621
-3.06005e-07
0.000589618
-3.05658e-07
0.000590614
-3.05306e-07
0.000591607
-3.04951e-07
0.000592599
-3.04596e-07
0.000593589
-3.04242e-07
0.000594577
-3.03892e-07
0.000595564
-3.03545e-07
0.000596548
-3.03203e-07
0.000597531
-3.02864e-07
0.000598512
-3.02528e-07
0.000599491
-3.02192e-07
0.000600468
-3.01856e-07
0.000601443
-3.01517e-07
0.000602417
-3.01174e-07
0.000603388
-3.00826e-07
0.000604358
-3.00473e-07
0.000605326
-3.00116e-07
0.000606292
-2.99754e-07
0.000607256
-2.99389e-07
0.000608218
-2.9902e-07
0.000609178
-2.98649e-07
0.000610136
-2.98275e-07
0.000611093
-2.97898e-07
0.000612047
-2.97517e-07
0.000612999
-2.97132e-07
0.00061395
-2.96742e-07
0.000614898
-2.96349e-07
0.000615845
-2.95951e-07
0.000616789
-2.9555e-07
0.000617731
-2.95147e-07
0.000618672
-2.94741e-07
0.00061961
-2.94335e-07
0.000620547
-2.93929e-07
0.000621481
-2.93524e-07
0.000622413
-2.93119e-07
0.000623344
-2.92716e-07
0.000624272
-2.92314e-07
0.000625198
-2.91912e-07
0.000626122
-2.91509e-07
0.000627044
-2.91105e-07
0.000627964
-2.90698e-07
0.000628882
-2.90289e-07
0.000629798
-2.89876e-07
0.000630712
-2.8946e-07
0.000631624
-2.89041e-07
0.000632533
-2.88619e-07
0.000633441
-2.88194e-07
0.000634346
-2.87766e-07
0.000635249
-2.87336e-07
0.00063615
-2.86904e-07
0.000637049
-2.8647e-07
0.000637946
-2.86034e-07
0.000638841
-2.85596e-07
0.000639733
-2.85156e-07
0.000640623
-2.84715e-07
0.000641512
-2.84272e-07
0.000642398
-2.83828e-07
0.000643281
-2.83382e-07
0.000644163
-2.82934e-07
0.000645042
-2.82485e-07
0.00064592
-2.82034e-07
0.000646795
-2.81582e-07
0.000647667
-2.81128e-07
0.000648538
-2.80673e-07
0.000649406
-2.80217e-07
0.000650272
-2.79759e-07
0.000651136
-2.79299e-07
0.000651998
-2.78838e-07
0.000652857
-2.78376e-07
0.000653714
-2.77913e-07
0.000654569
-2.77448e-07
0.000655422
-2.76981e-07
0.000656272
-2.76514e-07
0.00065712
-2.76044e-07
0.000657966
-2.75574e-07
0.000658809
-2.75101e-07
0.00065965
-2.74628e-07
0.000660489
-2.74153e-07
0.000661325
-2.73677e-07
0.000662159
-2.73199e-07
0.000662991
-2.7272e-07
0.000663821
-2.7224e-07
0.000664648
-2.71758e-07
0.000665473
-2.71275e-07
0.000666295
-2.7079e-07
0.000667116
-2.70305e-07
0.000667933
-2.69817e-07
0.000668749
-2.69328e-07
0.000669562
-2.68838e-07
0.000670372
-2.68347e-07
0.000671181
-2.67854e-07
0.000671987
-2.6736e-07
0.00067279
-2.66864e-07
0.000673591
-2.66367e-07
0.00067439
-2.65869e-07
0.000675186
-2.65369e-07
0.00067598
-2.64868e-07
0.000676772
-2.64366e-07
0.000677561
-2.63863e-07
0.000678347
-2.63358e-07
0.000679131
-2.62852e-07
0.000679913
-2.62344e-07
0.000680692
-2.61835e-07
0.000681469
-2.61325e-07
0.000682244
-2.60813e-07
0.000683016
-2.603e-07
0.000683785
-2.59786e-07
0.000684552
-2.5927e-07
0.000685317
-2.58753e-07
0.000686079
-2.58235e-07
0.000686838
-2.57715e-07
0.000687595
-2.57194e-07
0.00068835
-2.56672e-07
0.000689102
-2.56149e-07
0.000689851
-2.55624e-07
0.000690598
-2.55098e-07
0.000691343
-2.5457e-07
0.000692084
-2.54041e-07
0.000692824
-2.53511e-07
0.000693561
-2.5298e-07
0.000694295
-2.52447e-07
0.000695027
-2.51913e-07
0.000695756
-2.51378e-07
0.000696483
-2.50841e-07
0.000697207
-2.50303e-07
0.000697928
-2.49764e-07
0.000698647
-2.49224e-07
0.000699364
-2.48682e-07
0.000700078
-2.48139e-07
0.000700789
-2.47594e-07
0.000701497
-2.47049e-07
0.000702203
-2.46502e-07
0.000702907
-2.45954e-07
0.000703608
-2.45405e-07
0.000704306
-2.44854e-07
0.000705001
-2.44302e-07
0.000705694
-2.43749e-07
0.000706385
-2.43195e-07
0.000707072
-2.4264e-07
0.000707758
-2.42083e-07
0.00070844
-2.41525e-07
0.00070912
-2.40966e-07
0.000709797
-2.40405e-07
0.000710471
-2.39843e-07
0.000711143
-2.3928e-07
0.000711812
-2.38716e-07
0.000712479
-2.38151e-07
0.000713143
-2.37584e-07
0.000713804
-2.37016e-07
0.000714462
-2.36447e-07
0.000715118
-2.35877e-07
0.000715771
-2.35305e-07
0.000716422
-2.34733e-07
0.000717069
-2.34159e-07
0.000717714
-2.33584e-07
0.000718357
-2.33008e-07
0.000718996
-2.3243e-07
0.000719633
-2.31852e-07
0.000720267
-2.31272e-07
0.000720898
-2.30691e-07
0.000721527
-2.30108e-07
0.000722153
-2.29525e-07
0.000722776
-2.2894e-07
0.000723397
-2.28354e-07
0.000724014
-2.27767e-07
0.000724629
-2.27179e-07
0.000725242
-2.2659e-07
0.000725851
-2.26e-07
0.000726458
-2.25408e-07
0.000727062
-2.24816e-07
0.000727663
-2.24222e-07
0.000728261
-2.23627e-07
0.000728857
-2.23031e-07
0.000729449
-2.22433e-07
0.000730039
-2.21835e-07
0.000730627
-2.21236e-07
0.000731211
-2.20635e-07
0.000731793
-2.20033e-07
0.000732372
-2.1943e-07
0.000732948
-2.18826e-07
0.000733521
-2.18221e-07
0.000734091
-2.17615e-07
0.000734659
-2.17008e-07
0.000735223
-2.164e-07
0.000735785
-2.1579e-07
0.000736344
-2.1518e-07
0.000736901
-2.14568e-07
0.000737454
-2.13956e-07
0.000738005
-2.13342e-07
0.000738552
-2.12728e-07
0.000739097
-2.12112e-07
0.000739639
-2.11495e-07
0.000740178
-2.10877e-07
0.000740715
-2.10258e-07
0.000741248
-2.09638e-07
0.000741779
-2.09017e-07
0.000742307
-2.08395e-07
0.000742831
-2.07771e-07
0.000743353
-2.07147e-07
0.000743872
-2.06522e-07
0.000744389
-2.05896e-07
0.000744902
-2.05268e-07
0.000745412
-2.0464e-07
0.00074592
-2.04011e-07
0.000746425
-2.03381e-07
0.000746926
-2.0275e-07
0.000747425
-2.02118e-07
0.000747921
-2.01485e-07
0.000748414
-2.00851e-07
0.000748904
-2.00215e-07
0.000749391
-1.99579e-07
0.000749876
-1.98942e-07
0.000750357
-1.98305e-07
0.000750835
-1.97666e-07
0.000751311
-1.97026e-07
0.000751784
-1.96385e-07
0.000752253
-1.95743e-07
0.00075272
-1.95101e-07
0.000753184
-1.94457e-07
0.000753645
-1.93812e-07
0.000754102
-1.93167e-07
0.000754557
-1.92521e-07
0.000755009
-1.91873e-07
0.000755458
-1.91225e-07
0.000755905
-1.90576e-07
0.000756348
-1.89927e-07
0.000756788
-1.89276e-07
0.000757225
-1.88624e-07
0.000757659
-1.87972e-07
0.000758091
-1.87318e-07
0.000758519
-1.86664e-07
0.000758944
-1.86009e-07
0.000759367
-1.85353e-07
0.000759786
-1.84696e-07
0.000760202
-1.84038e-07
0.000760616
-1.8338e-07
0.000761026
-1.82721e-07
0.000761434
-1.82061e-07
0.000761838
-1.814e-07
0.00076224
-1.80738e-07
0.000762638
-1.80076e-07
0.000763034
-1.79413e-07
0.000763426
-1.78749e-07
0.000763815
-1.78084e-07
0.000764202
-1.77418e-07
0.000764585
-1.76752e-07
0.000764966
-1.76084e-07
0.000765343
-1.75417e-07
0.000765718
-1.74748e-07
0.000766089
-1.74078e-07
0.000766458
-1.73408e-07
0.000766823
-1.72737e-07
0.000767185
-1.72066e-07
0.000767545
-1.71393e-07
0.000767901
-1.7072e-07
0.000768254
-1.70047e-07
0.000768605
-1.69372e-07
0.000768952
-1.68697e-07
0.000769296
-1.68021e-07
0.000769637
-1.67345e-07
0.000769975
-1.66668e-07
0.000770311
-1.6599e-07
0.000770643
-1.65311e-07
0.000770972
-1.64632e-07
0.000771298
-1.63952e-07
0.000771621
-1.63272e-07
0.000771941
-1.6259e-07
0.000772258
-1.61908e-07
0.000772571
-1.61226e-07
0.000772882
-1.60543e-07
0.00077319
-1.59859e-07
0.000773495
-1.59175e-07
0.000773796
-1.58491e-07
0.000774095
-1.57805e-07
0.00077439
-1.57119e-07
0.000774683
-1.56433e-07
0.000774972
-1.55746e-07
0.000775259
-1.55058e-07
0.000775542
-1.5437e-07
0.000775822
-1.53681e-07
0.0007761
-1.52992e-07
0.000776374
-1.52302e-07
0.000776645
-1.51612e-07
0.000776913
-1.50921e-07
0.000777178
-1.5023e-07
0.00077744
-1.49538e-07
0.000777699
-1.48846e-07
0.000777954
-1.48153e-07
0.000778207
-1.4746e-07
0.000778457
-1.46766e-07
0.000778703
-1.46072e-07
0.000778947
-1.45377e-07
0.000779187
-1.44682e-07
0.000779424
-1.43986e-07
0.000779659
-1.4329e-07
0.00077989
-1.42594e-07
0.000780118
-1.41897e-07
0.000780343
-1.412e-07
0.000780565
-1.40502e-07
0.000780784
-1.39804e-07
0.000781
-1.39106e-07
0.000781213
-1.38407e-07
0.000781422
-1.37708e-07
0.000781629
-1.37008e-07
0.000781833
-1.36308e-07
0.000782033
-1.35608e-07
0.000782231
-1.34907e-07
0.000782425
-1.34206e-07
0.000782616
-1.33505e-07
0.000782804
-1.32803e-07
0.000782989
-1.32102e-07
0.000783171
-1.31399e-07
0.00078335
-1.30697e-07
0.000783526
-1.29994e-07
0.000783699
-1.29291e-07
0.000783869
-1.28588e-07
0.000784035
-1.27884e-07
0.000784199
-1.2718e-07
0.00078436
-1.26476e-07
0.000784517
-1.25772e-07
0.000784671
-1.25068e-07
0.000784823
-1.24363e-07
0.000784971
-1.23658e-07
0.000785116
-1.22953e-07
0.000785258
-1.22247e-07
0.000785397
-1.21542e-07
0.000785533
-1.20836e-07
0.000785666
-1.2013e-07
0.000785795
-1.19424e-07
0.000785922
-1.18718e-07
0.000786046
-1.18011e-07
0.000786166
-1.17305e-07
0.000786284
-1.16598e-07
0.000786398
-1.15891e-07
0.00078651
-1.15184e-07
0.000786618
-1.14477e-07
0.000786723
-1.1377e-07
0.000786825
-1.13063e-07
0.000786924
-1.12355e-07
0.00078702
-1.11648e-07
0.000787113
-1.1094e-07
0.000787203
-1.10233e-07
0.00078729
-1.09526e-07
0.000787374
-1.08818e-07
0.000787455
-1.08111e-07
0.000787532
-1.07403e-07
0.000787607
-1.06695e-07
0.000787679
-1.05988e-07
0.000787747
-1.0528e-07
0.000787813
-1.04573e-07
0.000787875
-1.03865e-07
0.000787934
-1.03157e-07
0.000787991
-1.0245e-07
0.000788044
-1.01743e-07
0.000788094
-1.01035e-07
0.000788141
-1.00328e-07
0.000788186
-9.96205e-08
0.000788227
-9.89133e-08
0.000788265
-9.82063e-08
0.0007883
-9.74993e-08
0.000788332
-9.67924e-08
0.000788361
-9.60857e-08
0.000788387
-9.53791e-08
0.00078841
-9.46726e-08
0.000788429
-9.39663e-08
0.000788446
-9.32601e-08
0.00078846
-9.25542e-08
0.000788471
-9.18483e-08
0.000788479
-9.11427e-08
0.000788483
-9.04373e-08
0.000788485
-8.9732e-08
0.000788484
-8.90269e-08
0.00078848
-8.8322e-08
0.000788472
-8.76173e-08
0.000788462
-8.69129e-08
0.000788449
-8.62088e-08
0.000788432
-8.5505e-08
0.000788413
-8.48014e-08
0.000788391
-8.40982e-08
0.000788365
-8.33952e-08
0.000788337
-8.26925e-08
0.000788306
-8.19901e-08
0.000788271
-8.1288e-08
0.000788234
-8.05863e-08
0.000788194
-7.98848e-08
0.000788151
-7.91837e-08
0.000788104
-7.84829e-08
0.000788055
-7.77825e-08
0.000788003
-7.70825e-08
0.000787948
-7.63828e-08
0.00078789
-7.56836e-08
0.000787828
-7.49847e-08
0.000787764
-7.42862e-08
0.000787697
-7.35882e-08
0.000787627
-7.28905e-08
0.000787554
-7.21933e-08
0.000787479
-7.14965e-08
0.0007874
-7.08002e-08
0.000787318
-7.01044e-08
0.000787233
-6.9409e-08
0.000787146
-6.87141e-08
0.000787055
-6.80197e-08
0.000786961
-6.73258e-08
0.000786865
-6.66324e-08
0.000786765
-6.59395e-08
0.000786663
-6.52471e-08
0.000786558
-6.45552e-08
0.00078645
-6.38639e-08
0.000786339
-6.31731e-08
0.000786225
-6.24829e-08
0.000786108
-6.17932e-08
0.000785988
-6.11042e-08
0.000785865
-6.04158e-08
0.00078574
-5.97279e-08
0.000785611
-5.90406e-08
0.00078548
-5.83538e-08
0.000785345
-5.76676e-08
0.000785208
-5.69819e-08
0.000785068
-5.62966e-08
0.000784925
-5.56117e-08
0.000784779
-5.4927e-08
0.000784631
-5.42424e-08
0.000784479
-5.3558e-08
0.000784325
-5.2875e-08
0.000784168
-5.21933e-08
0.000784007
-5.15134e-08
0.000783844
-5.08354e-08
0.000783679
-5.01565e-08
0.00078351
-4.94792e-08
0.000783339
-4.8803e-08
0.000783164
-4.81256e-08
0.000782987
-4.74545e-08
0.000782807
-4.67813e-08
0.000782624
-4.61088e-08
0.000782439
-4.54332e-08
0.00078225
-4.47577e-08
0.000782059
-4.40913e-08
0.000781865
-4.34127e-08
0.000781668
-4.27478e-08
0.000781469
-4.20814e-08
0.000781266
-4.14159e-08
0.000781061
-4.07544e-08
0.000780853
-4.00994e-08
0.000780642
-3.94453e-08
0.000780429
-3.8733e-08
0.000780213
-3.8105e-08
0.000779994
-3.74336e-08
0.000779772
-3.67606e-08
0.000779547
-3.60934e-08
0.00077932
-3.54307e-08
0.00077909
-3.47711e-08
0.000778857
-3.41144e-08
0.000778622
-3.34621e-08
0.000778383
-3.28191e-08
0.000778142
-3.21998e-08
0.000777899
-3.16529e-08
0.000777653
-3.10391e-08
0.000777404
-3.02774e-08
0.000777152
-2.95896e-08
0.000776897
-2.89254e-08
0.00077664
-2.82701e-08
0.00077638
-2.7619e-08
0.000776118
-2.69702e-08
0.000775853
-2.6323e-08
0.000775585
-2.56775e-08
0.000775314
-2.50337e-08
0.000775041
-2.43914e-08
0.000774765
-2.375e-08
0.000774486
-2.31091e-08
0.000774205
-2.24688e-08
0.000773921
-2.18303e-08
0.000773635
-2.11938e-08
0.000773346
-2.05599e-08
0.000773054
-1.99273e-08
0.00077276
-1.92957e-08
0.000772463
-1.86645e-08
0.000772163
-1.80342e-08
0.000771861
-1.74047e-08
0.000771556
-1.67773e-08
0.000771249
-1.61514e-08
0.000770939
-1.5527e-08
0.000770627
-1.49037e-08
0.000770312
-1.42815e-08
0.000769994
-1.36605e-08
0.000769674
-1.3041e-08
0.000769351
-1.24212e-08
0.000769026
-1.18023e-08
0.000768698
-1.11851e-08
0.000768368
-1.05697e-08
0.000768035
-9.95613e-09
0.0007677
-9.34416e-09
0.000767362
-8.73373e-09
0.000767021
-8.12503e-09
0.000766678
-7.51797e-09
0.000766333
-6.91278e-09
0.000765985
-6.30983e-09
0.000765635
-5.70922e-09
0.000765282
-5.10594e-09
0.000764926
-4.50115e-09
0.000764569
-3.89887e-09
0.000764208
-3.29883e-09
0.000763846
-2.70066e-09
0.000763481
-2.1048e-09
0.000763113
-1.51104e-09
0.000762743
-9.19322e-10
0.000762371
-3.28842e-10
0.000761996
2.6038e-10
0.000761618
8.48172e-10
0.000761239
1.43441e-09
0.000760857
2.01894e-09
0.000760472
2.6014e-09
0.000760085
3.18109e-09
0.000759696
3.75657e-09
0.000759305
4.32591e-09
0.000758911
4.88867e-09
0.000758514
5.48065e-09
0.000758116
6.06409e-09
0.000757715
6.64129e-09
0.000757311
7.21431e-09
0.000756906
7.78454e-09
0.000756498
8.35267e-09
0.000756087
8.91901e-09
0.000755675
9.48383e-09
0.00075526
1.00472e-08
0.000754843
1.06084e-08
0.000754423
1.11674e-08
0.000754001
1.17242e-08
0.000753577
1.22797e-08
0.000753151
1.28337e-08
0.000752722
1.33861e-08
0.000752292
1.39368e-08
0.000751859
1.44858e-08
0.000751423
1.50332e-08
0.000750986
1.55788e-08
0.000750546
1.61222e-08
0.000750104
1.66631e-08
0.00074966
1.7201e-08
0.000749214
1.77347e-08
0.000748765
1.826e-08
0.000748315
1.87628e-08
0.000747862
1.92621e-08
0.000747407
1.98507e-08
0.00074695
2.03995e-08
0.000746491
2.09347e-08
0.000746029
2.14639e-08
0.000745565
2.19896e-08
0.0007451
2.25127e-08
0.000744632
2.30336e-08
0.000744162
2.35524e-08
0.00074369
2.40692e-08
0.000743216
2.45841e-08
0.00074274
2.5097e-08
0.000742261
2.56081e-08
0.000741781
2.61172e-08
0.000741299
2.66245e-08
0.000740814
2.71301e-08
0.000740328
2.7634e-08
0.000739839
2.81355e-08
0.000739348
2.86346e-08
0.000738856
2.91313e-08
0.000738361
2.96263e-08
0.000737865
3.01196e-08
0.000737366
3.06109e-08
0.000736865
3.11002e-08
0.000736363
3.15875e-08
0.000735858
3.20729e-08
0.000735352
3.25562e-08
0.000734843
3.30375e-08
0.000734333
3.35168e-08
0.000733821
3.39941e-08
0.000733307
3.44693e-08
0.00073279
3.49424e-08
0.000732272
3.54135e-08
0.000731752
3.58825e-08
0.000731231
3.63495e-08
0.000730707
3.68144e-08
0.000730181
3.72772e-08
0.000729654
3.77378e-08
0.000729124
3.81964e-08
0.000728593
3.86528e-08
0.00072806
3.9107e-08
0.000727525
3.95591e-08
0.000726989
4.0009e-08
0.00072645
4.04567e-08
0.00072591
4.09023e-08
0.000725368
4.13458e-08
0.000724824
4.1787e-08
0.000724279
4.22261e-08
0.000723731
4.2663e-08
0.000723182
4.30977e-08
0.000722631
4.35302e-08
0.000722079
4.39605e-08
0.000721524
4.43886e-08
0.000720968
4.48144e-08
0.00072041
4.5238e-08
0.000719851
4.56592e-08
0.00071929
4.60782e-08
0.000718727
4.64949e-08
0.000718162
4.69094e-08
0.000717596
4.73215e-08
0.000717028
4.77313e-08
0.000716459
4.81388e-08
0.000715888
4.85441e-08
0.000715315
4.8947e-08
0.000714741
4.93476e-08
0.000714165
4.97459e-08
0.000713587
5.01418e-08
0.000713008
5.05355e-08
0.000712427
5.0927e-08
0.000711845
5.13162e-08
0.000711261
5.17028e-08
0.000710676
5.20866e-08
0.000710089
5.24677e-08
0.0007095
5.28466e-08
0.00070891
5.32233e-08
0.000708319
5.35975e-08
0.000707726
5.39693e-08
0.000707131
5.43386e-08
0.000706535
5.47055e-08
0.000705938
5.50698e-08
0.000705339
5.54317e-08
0.000704738
5.57911e-08
0.000704136
5.6148e-08
0.000703533
5.65024e-08
0.000702929
5.68542e-08
0.000702322
5.72036e-08
0.000701715
5.75503e-08
0.000701106
5.78946e-08
0.000700496
5.82363e-08
0.000699884
5.85752e-08
0.000699271
5.89114e-08
0.000698657
5.92449e-08
0.000698041
5.95757e-08
0.000697424
5.99039e-08
0.000696806
6.02294e-08
0.000696186
6.05522e-08
0.000695565
6.08723e-08
0.000694943
6.11896e-08
0.000694319
6.15041e-08
0.000693695
6.18158e-08
0.000693069
6.21247e-08
0.000692441
6.24306e-08
0.000691813
6.27337e-08
0.000691183
6.30339e-08
0.000690552
6.33312e-08
0.00068992
6.36255e-08
0.000689287
6.39168e-08
0.000688652
6.4205e-08
0.000688016
6.44902e-08
0.000687379
6.47722e-08
0.000686741
6.50511e-08
0.000686102
6.53267e-08
0.000685462
6.5599e-08
0.00068482
6.5868e-08
0.000684178
6.61336e-08
0.000683534
6.63958e-08
0.00068289
6.66545e-08
0.000682244
6.69097e-08
0.000681597
6.71613e-08
0.000680949
6.74093e-08
0.0006803
6.76535e-08
0.00067965
6.78939e-08
0.000678999
6.81304e-08
0.000678347
6.8363e-08
0.000677694
6.85914e-08
0.00067704
6.88157e-08
0.000676386
6.90357e-08
0.00067573
6.92513e-08
0.000675073
6.94623e-08
0.000674415
6.96688e-08
0.000673757
6.98705e-08
0.000673097
7.00673e-08
0.000672437
7.0259e-08
0.000671775
7.04456e-08
0.000671113
7.06267e-08
0.00067045
7.08024e-08
0.000669786
7.09722e-08
0.000669122
7.11361e-08
0.000668456
7.12939e-08
0.00066779
7.14453e-08
0.000667123
7.159e-08
0.000666455
7.17278e-08
0.000665786
7.18585e-08
0.000665117
7.19817e-08
0.000664447
7.20972e-08
0.000663776
7.22046e-08
0.000663105
7.23035e-08
0.000662433
7.23936e-08
0.00066176
7.24745e-08
0.000661087
7.25458e-08
0.000660413
7.2607e-08
0.000659738
7.26576e-08
0.000659063
7.26971e-08
0.000658387
7.2725e-08
0.000657711
7.27408e-08
0.000657034
7.27437e-08
0.000656357
7.27331e-08
0.000655679
7.27084e-08
0.000655001
7.26688e-08
0.000654322
7.26134e-08
0.000653643
7.25415e-08
0.000652964
7.24522e-08
0.000652284
7.23444e-08
0.000651604
7.22172e-08
0.000650924
7.20694e-08
0.000650243
7.18999e-08
0.000649562
7.17074e-08
0.000648881
7.14907e-08
0.0006482
7.12482e-08
0.000647519
7.09784e-08
0.000646837
7.06798e-08
0.000646156
7.03506e-08
0.000645474
6.99889e-08
0.000644793
6.95928e-08
0.000644111
6.91601e-08
0.00064343
6.86888e-08
0.000642748
6.81763e-08
0.000642068
6.76203e-08
0.000641387
6.70181e-08
0.000640706
6.63671e-08
0.000640026
6.56643e-08
0.000639347
6.49066e-08
0.000638668
6.40906e-08
0.000637989
6.32128e-08
0.000637311
6.2269e-08
0.000636634
6.12552e-08
0.000635958
6.01667e-08
0.000635283
5.89984e-08
0.000634608
5.77445e-08
0.000633935
5.63994e-08
0.000633263
5.49575e-08
0.000632592
5.34132e-08
0.000631923
5.176e-08
0.000631255
4.99901e-08
0.000630589
4.80937e-08
0.000629924
4.60622e-08
0.000629262
4.38873e-08
0.000628602
4.15611e-08
0.000627944
3.90724e-08
0.000627288
3.64077e-08
0.000626636
3.35469e-08
0.000625986
3.04497e-08
0.000625339
2.70023e-08
0.000624696
2.3207e-08
0.000624056
1.99414e-08
0.00062342
1.62088e-08
0.000622788
1.21873e-08
0.000622159
7.94139e-09
0.000621535
3.85834e-09
0.000620915
-1.69903e-10
0.000620298
-3.90052e-09
0.000619684
-6.87276e-09
0.000619071
-8.56222e-09
0.000618459
-8.19853e-09
0.000617842
-4.91867e-09
0.000617219
1.76711e-09
0.000616587
1.10025e-08
0.000615947
1.84431e-08
0.00061532
5.14259e-09
-3.00904e-08
0.0019622
0.000443676
0.00179027
0.000584526
0.00157559
0.000475032
0.00139375
0.000343067
0.00125595
0.000238139
0.00115596
0.000163369
0.00108437
0.000112797
0.00103288
7.94071e-05
0.000995243
5.74551e-05
0.000967133
4.28729e-05
0.00094564
3.29799e-05
0.000928841
2.60757e-05
0.000915457
2.11033e-05
0.000904627
1.74089e-05
0.000895755
1.45848e-05
0.000888421
1.2372e-05
0.000882316
1.06016e-05
0.000877214
9.16012e-06
0.00087294
7.96888e-06
0.000869359
6.97196e-06
0.000866364
6.12853e-06
0.000863869
5.40815e-06
0.000861805
4.7877e-06
0.000860115
4.24936e-06
0.000858752
3.77918e-06
0.000857675
3.36613e-06
0.000856852
3.00132e-06
0.000856253
2.67754e-06
0.000855854
2.38887e-06
0.000855634
2.13039e-06
0.000855576
1.89799e-06
0.000855663
1.6882e-06
0.000855882
1.49815e-06
0.00085622
1.32571e-06
0.000856667
1.16875e-06
0.000857214
1.02529e-06
0.000857852
8.93908e-07
0.000858576
7.73552e-07
0.000859378
6.60942e-07
0.000860247
5.55544e-07
0.000861183
4.5957e-07
0.00086218
3.71988e-07
0.000863235
2.90082e-07
0.000864341
2.14431e-07
0.000865497
1.42609e-07
0.0008667
7.27172e-08
0.000867942
1.59143e-08
0.000869214
-2.92397e-08
0.000870522
-7.87707e-08
0.000871863
-1.2762e-07
0.000873237
-1.7382e-07
0.000874639
-2.16871e-07
0.00087607
-2.571e-07
0.000877525
-2.94803e-07
0.000879005
-3.30215e-07
0.000880508
-3.63529e-07
0.000882032
-3.94899e-07
0.000883576
-4.2446e-07
0.000885139
-4.52331e-07
0.000886719
-4.78612e-07
0.000888316
-5.03384e-07
0.000889929
-5.2671e-07
0.000891556
-5.48625e-07
0.000893197
-5.69136e-07
0.00089485
-5.88198e-07
0.000896515
-6.05705e-07
0.00089819
-6.2146e-07
0.000899874
-6.35155e-07
0.000901564
-6.46351e-07
0.00090326
-6.54502e-07
0.000904957
-6.59027e-07
0.000906654
-6.59437e-07
0.000908348
-6.55514e-07
0.000910035
-6.4746e-07
0.000911713
-6.35964e-07
0.000913381
-6.2212e-07
0.000915038
-6.07216e-07
0.000916684
-5.92479e-07
0.00091832
-5.78852e-07
0.000919946
-5.66896e-07
0.000921564
-5.56803e-07
0.000923176
-5.48497e-07
0.000924782
-5.41752e-07
0.000926383
-5.36296e-07
0.00092798
-5.31874e-07
0.000929573
-5.28278e-07
0.000931163
-5.25349e-07
0.000932751
-5.22975e-07
0.000934336
-5.21078e-07
0.000935919
-5.19605e-07
0.000937501
-5.18518e-07
0.000939081
-5.17793e-07
0.000940659
-5.1741e-07
0.000942237
-5.17354e-07
0.000943814
-5.17613e-07
0.00094539
-5.18176e-07
0.000946965
-5.19034e-07
0.000948541
-5.20179e-07
0.000950116
-5.21601e-07
0.000951692
-5.23292e-07
0.000953268
-5.25242e-07
0.000954844
-5.27443e-07
0.000956421
-5.29883e-07
0.000957999
-5.32544e-07
0.000959577
-5.35404e-07
0.000961157
-5.38419e-07
0.000962738
-5.41519e-07
0.00096432
-5.44589e-07
0.000965902
-5.47457e-07
0.000967485
-5.49888e-07
0.000969068
-5.51598e-07
0.000970651
-5.52299e-07
0.000972231
-5.51762e-07
0.00097381
-5.49884e-07
0.000975385
-5.4674e-07
0.000976956
-5.42579e-07
0.000978522
-5.37777e-07
0.000980084
-5.32749e-07
0.000981642
-5.27859e-07
0.000983195
-5.23368e-07
0.000984744
-5.19413e-07
0.000986289
-5.16029e-07
0.000987831
-5.13186e-07
0.00098937
-5.10824e-07
0.000990907
-5.08876e-07
0.000992441
-5.07285e-07
0.000993973
-5.06005e-07
0.000995503
-5.05004e-07
0.000997031
-5.04257e-07
0.000998557
-5.03747e-07
0.00100008
-5.0346e-07
0.00100161
-5.03385e-07
0.00100313
-5.03516e-07
0.00100465
-5.03842e-07
0.00100617
-5.04357e-07
0.00100769
-5.05049e-07
0.00100921
-5.05907e-07
0.00101072
-5.06914e-07
0.00101224
-5.08051e-07
0.00101376
-5.09295e-07
0.00101527
-5.10617e-07
0.00101679
-5.11982e-07
0.0010183
-5.13344e-07
0.00101982
-5.14646e-07
0.00102133
-5.15817e-07
0.00102285
-5.16781e-07
0.00102436
-5.17466e-07
0.00102587
-5.17817e-07
0.00102738
-5.17814e-07
0.00102889
-5.17484e-07
0.00103039
-5.16895e-07
0.0010319
-5.16145e-07
0.0010334
-5.15337e-07
0.0010349
-5.14557e-07
0.0010364
-5.13857e-07
0.00103789
-5.13261e-07
0.00103939
-5.12769e-07
0.00104088
-5.1237e-07
0.00104237
-5.12051e-07
0.00104386
-5.11803e-07
0.00104534
-5.1162e-07
0.00104683
-5.11503e-07
0.00104831
-5.1145e-07
0.00104979
-5.11462e-07
0.00105127
-5.11541e-07
0.00105275
-5.11687e-07
0.00105423
-5.11898e-07
0.00105571
-5.12175e-07
0.00105718
-5.12515e-07
0.00105865
-5.12916e-07
0.00106013
-5.13372e-07
0.0010616
-5.13876e-07
0.00106307
-5.14416e-07
0.00106453
-5.14975e-07
0.001066
-5.15528e-07
0.00106746
-5.16046e-07
0.00106893
-5.1649e-07
0.00107039
-5.16822e-07
0.00107185
-5.17002e-07
0.00107331
-5.17001e-07
0.00107477
-5.16803e-07
0.00107622
-5.16421e-07
0.00107767
-5.15889e-07
0.00107912
-5.15264e-07
0.00108057
-5.14614e-07
0.00108202
-5.14002e-07
0.00108346
-5.13483e-07
0.0010849
-5.13091e-07
0.00108634
-5.12848e-07
0.00108778
-5.12759e-07