/*--------------------------------*- C++ -*----------------------------------*\
| =========                 |                                                 |
| \\      /  F ield         | OpenFOAM: The Open Source CFD Toolbox           |
|  \\    /   O peration     | Version:  2512                                  |
|   \\  /    A nd           | Website:  www.openfoam.com                      |
|    \\/     M anipulation  |                                                 |
\*---------------------------------------------------------------------------*/
FoamFile
{
    version     2.0;
    format      ascii;
    arch        "LSB;label=32;scalar=64";
    class       surfaceScalarField;
    location    "0.002";
    object      phiB;
}
// * * * * * * * * * * * * * * * * * * * * * * * * * * * * * * * * * * * * * //

dimensions      [1 2 -2 0 0 -1 0];

oriented        oriented;

internalField   nonuniform List<scalar> 
198900
(
0.000434504
0.0400494
0.000406355
0.0400281
0.000364347
0.040042
0.000324795
0.0400396
0.000293574
0.0400312
0.000270535
0.040023
0.000254117
0.0400164
0.000242629
0.0400115
0.000234619
0.040008
0.000228981
0.0400056
0.000224937
0.040004
0.000221962
0.040003
0.000219715
0.0400022
0.000217969
0.0400017
0.000216579
0.0400014
0.000215449
0.0400011
0.000214512
0.0400009
0.000213724
0.0400008
0.000213051
0.0400007
0.000212472
0.0400006
0.000211969
0.0400005
0.000211528
0.0400004
0.000211141
0.0400004
0.000210798
0.0400003
0.000210495
0.0400003
0.000210224
0.0400003
0.000209984
0.0400002
0.000209769
0.0400002
0.000209577
0.0400002
0.000209406
0.0400002
0.000209253
0.0400002
0.000209117
0.0400001
0.000208997
0.0400001
0.000208892
0.0400001
0.000208799
0.0400001
0.000208719
0.0400001
0.00020865
0.0400001
0.000208591
0.0400001
0.000208543
0.04
0.000208504
0.04
0.000208475
0.04
0.000208454
0.04
0.00020844
0.04
0.000208432
0.04
0.000208431
0.04
0.000208436
0.04
0.000208446
0.04
0.000208462
0.04
0.000208483
0.04
0.000208508
0.04
0.000208538
0.04
0.000208573
0.04
0.000208612
0.04
0.000208654
0.04
0.000208701
0.04
0.000208752
0.0399999
0.000208806
0.0399999
0.000208864
0.0399999
0.000208926
0.0399999
0.000208991
0.0399999
0.000209059
0.0399999
0.000209131
0.0399999
0.000209206
0.0399999
0.000209284
0.0399999
0.000209365
0.0399999
0.000209449
0.0399999
0.000209536
0.0399999
0.000209625
0.0399999
0.000209715
0.0399999
0.000209807
0.0399999
0.000209897
0.0399999
0.000209986
0.0399999
0.000210072
0.0399999
0.000210153
0.0399999
0.000210228
0.0399999
0.000210296
0.0399999
0.000210358
0.0399999
0.000210413
0.0399999
0.000210461
0.04
0.000210505
0.04
0.000210544
0.04
0.00021058
0.04
0.000210614
0.04
0.000210645
0.04
0.000210674
0.04
0.000210702
0.04
0.000210729
0.04
0.000210755
0.04
0.00021078
0.04
0.000210805
0.04
0.000210829
0.04
0.000210853
0.04
0.000210877
0.04
0.0002109
0.04
0.000210924
0.04
0.000210947
0.04
0.000210971
0.04
0.000210995
0.04
0.000211019
0.04
0.000211044
0.04
0.000211069
0.04
0.000211095
0.04
0.000211122
0.04
0.000211149
0.04
0.000211178
0.04
0.000211208
0.04
0.000211238
0.04
0.00021127
0.04
0.000211303
0.04
0.000211337
0.04
0.000211371
0.04
0.000211406
0.04
0.000211441
0.04
0.000211475
0.04
0.000211507
0.04
0.000211538
0.04
0.000211567
0.04
0.000211595
0.04
0.00021162
0.04
0.000211644
0.04
0.000211666
0.04
0.000211687
0.04
0.000211707
0.04
0.000211726
0.04
0.000211745
0.04
0.000211763
0.04
0.000211781
0.04
0.000211798
0.04
0.000211816
0.04
0.000211833
0.04
0.00021185
0.04
0.000211867
0.04
0.000211884
0.04
0.000211901
0.04
0.000211919
0.04
0.000211936
0.04
0.000211954
0.04
0.000211972
0.04
0.000211991
0.04
0.00021201
0.04
0.000212029
0.04
0.000212049
0.04
0.000212069
0.04
0.00021209
0.04
0.000212111
0.04
0.000212133
0.04
0.000212154
0.04
0.000212176
0.04
0.000212197
0.04
0.000212219
0.04
0.00021224
0.04
0.000212261
0.04
0.000212281
0.04
0.000212301
0.04
0.00021232
0.04
0.000212339
0.04
0.000212358
0.04
0.000212377
0.04
0.000212396
0.04
0.000212414
0.04
0.000212432
0.04
0.000212451
0.04
0.000212469
0.04
0.000212487
0.04
0.000212505
0.04
0.000212522
0.04
0.00021254
0.04
0.000212558
0.04
0.000212576
0.04
0.000212594
0.04
0.000212612
0.04
0.000212631
0.04
0.000212649
0.04
0.000212668
0.04
0.000212686
0.04
0.000212705
0.04
0.000212724
0.04
0.000212743
0.04
0.000212762
0.04
0.00021278
0.04
0.000212799
0.04
0.000212818
0.04
0.000212836
0.04
0.000212853
0.04
0.000212871
0.04
0.000212888
0.04
0.000212905
0.04
0.000212921
0.04
0.000212938
0.04
0.000212954
0.04
0.00021297
0.04
0.000212986
0.04
0.000213002
0.04
0.000213019
0.04
0.000213035
0.04
0.000213051
0.04
0.000213068
0.04
0.000213085
0.04
0.000213102
0.04
0.000213119
0.04
0.000213136
0.04
0.000213154
0.04
0.000213171
0.04
0.000213189
0.04
0.000213206
0.04
0.000213224
0.04
0.000213242
0.04
0.000213259
0.04
0.000213277
0.04
0.000213294
0.04
0.000213311
0.04
0.000213329
0.04
0.000213346
0.04
0.000213362
0.04
0.000213379
0.04
0.000213395
0.04
0.000213411
0.04
0.000213427
0.04
0.000213443
0.04
0.000213458
0.04
0.000213474
0.04
0.000213489
0.04
0.000213504
0.04
0.000213519
0.04
0.000213534
0.04
0.000213549
0.04
0.000213564
0.04
0.000213579
0.04
0.000213593
0.04
0.000213608
0.04
0.000213623
0.04
0.000213638
0.04
0.000213652
0.04
0.000213667
0.04
0.000213682
0.04
0.000213696
0.04
0.000213711
0.04
0.000213725
0.04
0.00021374
0.04
0.000213754
0.04
0.000213769
0.04
0.000213783
0.04
0.000213797
0.04
0.000213811
0.04
0.000213825
0.04
0.000213839
0.04
0.000213853
0.04
0.000213867
0.04
0.000213881
0.04
0.000213894
0.04
0.000213908
0.04
0.000213922
0.04
0.000213935
0.04
0.000213949
0.04
0.000213962
0.04
0.000213976
0.04
0.000213989
0.04
0.000214002
0.04
0.000214016
0.04
0.000214029
0.04
0.000214042
0.04
0.000214055
0.04
0.000214068
0.04
0.000214081
0.04
0.000214094
0.04
0.000214106
0.04
0.000214119
0.04
0.000214132
0.04
0.000214144
0.04
0.000214157
0.04
0.000214169
0.04
0.000214181
0.04
0.000214193
0.04
0.000214205
0.04
0.000214217
0.04
0.000214229
0.04
0.000214241
0.04
0.000214252
0.04
0.000214264
0.04
0.000214276
0.04
0.000214287
0.04
0.000214298
0.04
0.00021431
0.04
0.000214321
0.04
0.000214332
0.04
0.000214343
0.04
0.000214354
0.04
0.000214365
0.04
0.000214376
0.04
0.000214386
0.04
0.000214397
0.04
0.000214408
0.04
0.000214418
0.04
0.000214428
0.04
0.000214439
0.04
0.000214449
0.04
0.000214459
0.04
0.000214469
0.04
0.000214479
0.04
0.000214488
0.04
0.000214498
0.04
0.000214508
0.04
0.000214517
0.04
0.000214526
0.04
0.000214536
0.04
0.000214545
0.04
0.000214554
0.04
0.000214563
0.04
0.000214572
0.04
0.000214581
0.04
0.000214589
0.04
0.000214598
0.04
0.000214607
0.04
0.000214615
0.04
0.000214623
0.04
0.000214631
0.04
0.00021464
0.04
0.000214648
0.04
0.000214656
0.04
0.000214663
0.04
0.000214671
0.04
0.000214679
0.04
0.000214686
0.04
0.000214694
0.04
0.000214701
0.04
0.000214708
0.04
0.000214716
0.04
0.000214723
0.04
0.00021473
0.04
0.000214737
0.04
0.000214743
0.04
0.00021475
0.04
0.000214757
0.04
0.000214763
0.04
0.000214769
0.04
0.000214776
0.04
0.000214782
0.04
0.000214788
0.04
0.000214794
0.04
0.0002148
0.04
0.000214806
0.04
0.000214811
0.04
0.000214817
0.04
0.000214822
0.04
0.000214828
0.04
0.000214833
0.04
0.000214838
0.04
0.000214843
0.04
0.000214848
0.04
0.000214853
0.04
0.000214858
0.04
0.000214863
0.04
0.000214867
0.04
0.000214872
0.04
0.000214876
0.04
0.000214881
0.04
0.000214885
0.04
0.000214889
0.04
0.000214893
0.04
0.000214897
0.04
0.000214901
0.04
0.000214904
0.04
0.000214908
0.04
0.000214911
0.04
0.000214915
0.04
0.000214918
0.04
0.000214921
0.04
0.000214924
0.04
0.000214927
0.04
0.00021493
0.04
0.000214933
0.04
0.000214936
0.04
0.000214938
0.04
0.000214941
0.04
0.000214943
0.04
0.000214945
0.04
0.000214948
0.04
0.00021495
0.04
0.000214952
0.04
0.000214953
0.04
0.000214955
0.04
0.000214957
0.04
0.000214958
0.04
0.00021496
0.04
0.000214961
0.04
0.000214962
0.04
0.000214964
0.04
0.000214965
0.04
0.000214966
0.04
0.000214966
0.04
0.000214967
0.04
0.000214968
0.04
0.000214968
0.04
0.000214969
0.04
0.000214969
0.04
0.000214969
0.04
0.00021497
0.04
0.00021497
0.04
0.000214969
0.04
0.000214969
0.04
0.000214969
0.04
0.000214969
0.04
0.000214968
0.04
0.000214968
0.04
0.000214967
0.04
0.000214966
0.04
0.000214965
0.04
0.000214964
0.04
0.000214963
0.04
0.000214962
0.04
0.00021496
0.04
0.000214959
0.04
0.000214958
0.04
0.000214956
0.04
0.000214954
0.04
0.000214952
0.04
0.00021495
0.04
0.000214948
0.04
0.000214946
0.04
0.000214944
0.04
0.000214942
0.04
0.000214939
0.04
0.000214937
0.04
0.000214934
0.04
0.000214931
0.04
0.000214928
0.04
0.000214925
0.04
0.000214922
0.04
0.000214919
0.04
0.000214916
0.04
0.000214912
0.04
0.000214909
0.04
0.000214905
0.04
0.000214901
0.04
0.000214898
0.04
0.000214894
0.04
0.00021489
0.04
0.000214886
0.04
0.000214881
0.04
0.000214877
0.04
0.000214873
0.04
0.000214868
0.04
0.000214863
0.04
0.000214859
0.04
0.000214854
0.04
0.000214849
0.04
0.000214844
0.04
0.000214839
0.04
0.000214833
0.04
0.000214828
0.04
0.000214822
0.04
0.000214817
0.04
0.000214811
0.04
0.000214805
0.04
0.000214799
0.04
0.000214793
0.04
0.000214787
0.04
0.000214781
0.04
0.000214775
0.04
0.000214768
0.04
0.000214762
0.04
0.000214755
0.04
0.000214748
0.04
0.000214742
0.04
0.000214735
0.04
0.000214728
0.04
0.00021472
0.04
0.000214713
0.04
0.000214706
0.04
0.000214698
0.04
0.000214691
0.04
0.000214683
0.04
0.000214675
0.04
0.000214668
0.04
0.00021466
0.04
0.000214651
0.04
0.000214643
0.04
0.000214635
0.04
0.000214627
0.04
0.000214618
0.04
0.000214609
0.04
0.000214601
0.04
0.000214592
0.04
0.000214583
0.04
0.000214574
0.04
0.000214565
0.04
0.000214556
0.04
0.000214546
0.04
0.000214537
0.04
0.000214527
0.04
0.000214518
0.04
0.000214508
0.04
0.000214498
0.04
0.000214488
0.04
0.000214478
0.04
0.000214468
0.04
0.000214458
0.04
0.000214447
0.04
0.000214437
0.04
0.000214426
0.04
0.000214416
0.04
0.000214405
0.04
0.000214394
0.04
0.000214383
0.04
0.000214372
0.04
0.000214361
0.04
0.000214349
0.04
0.000214338
0.04
0.000214326
0.04
0.000214315
0.04
0.000214303
0.04
0.000214291
0.04
0.000214279
0.04
0.000214267
0.04
0.000214255
0.04
0.000214243
0.04
0.000214231
0.04
0.000214218
0.04
0.000214206
0.04
0.000214193
0.04
0.000214181
0.04
0.000214168
0.04
0.000214155
0.04
0.000214142
0.04
0.000214129
0.04
0.000214115
0.04
0.000214102
0.04
0.000214089
0.04
0.000214075
0.04
0.000214062
0.04
0.000214048
0.04
0.000214034
0.04
0.00021402
0.04
0.000214006
0.04
0.000213992
0.04
0.000213978
0.04
0.000213963
0.04
0.000213949
0.04
0.000213934
0.04
0.00021392
0.04
0.000213905
0.04
0.00021389
0.04
0.000213875
0.04
0.00021386
0.04
0.000213845
0.04
0.00021383
0.04
0.000213815
0.04
0.000213799
0.04
0.000213784
0.04
0.000213768
0.04
0.000213752
0.04
0.000213736
0.04
0.00021372
0.04
0.000213704
0.04
0.000213688
0.04
0.000213672
0.04
0.000213656
0.04
0.000213639
0.04
0.000213623
0.04
0.000213606
0.04
0.00021359
0.04
0.000213573
0.04
0.000213556
0.04
0.000213539
0.04
0.000213522
0.04
0.000213505
0.04
0.000213487
0.04
0.00021347
0.04
0.000213452
0.04
0.000213435
0.04
0.000213417
0.04
0.000213399
0.04
0.000213381
0.04
0.000213364
0.04
0.000213345
0.04
0.000213327
0.04
0.000213309
0.04
0.000213291
0.04
0.000213272
0.04
0.000213254
0.04
0.000213235
0.04
0.000213216
0.04
0.000213198
0.04
0.000213179
0.04
0.00021316
0.04
0.00021314
0.04
0.000213121
0.04
0.000213102
0.04
0.000213083
0.04
0.000213063
0.04
0.000213043
0.04
0.000213024
0.04
0.000213004
0.04
0.000212984
0.04
0.000212964
0.04
0.000212944
0.04
0.000212924
0.04
0.000212904
0.04
0.000212883
0.04
0.000212863
0.04
0.000212843
0.04
0.000212822
0.04
0.000212801
0.04
0.00021278
0.04
0.00021276
0.04
0.000212739
0.04
0.000212718
0.04
0.000212696
0.04
0.000212675
0.04
0.000212654
0.04
0.000212632
0.04
0.000212611
0.04
0.000212589
0.04
0.000212568
0.04
0.000212546
0.04
0.000212524
0.04
0.000212502
0.04
0.00021248
0.04
0.000212458
0.04
0.000212435
0.04
0.000212413
0.04
0.000212391
0.04
0.000212368
0.04
0.000212346
0.04
0.000212323
0.04
0.0002123
0.04
0.000212277
0.04
0.000212254
0.04
0.000212231
0.04
0.000212208
0.04
0.000212185
0.04
0.000212162
0.04
0.000212138
0.04
0.000212115
0.04
0.000212091
0.04
0.000212068
0.04
0.000212044
0.04
0.00021202
0.04
0.000211996
0.04
0.000211972
0.04
0.000211948
0.04
0.000211924
0.04
0.0002119
0.04
0.000211875
0.04
0.000211851
0.04
0.000211826
0.04
0.000211802
0.04
0.000211777
0.04
0.000211752
0.04
0.000211727
0.04
0.000211702
0.04
0.000211677
0.04
0.000211652
0.04
0.000211627
0.04
0.000211602
0.04
0.000211577
0.04
0.000211551
0.04
0.000211526
0.04
0.0002115
0.04
0.000211474
0.04
0.000211449
0.04
0.000211423
0.04
0.000211397
0.04
0.000211371
0.04
0.000211345
0.04
0.000211319
0.04
0.000211292
0.04
0.000211266
0.04
0.00021124
0.04
0.000211213
0.04
0.000211187
0.04
0.00021116
0.04
0.000211133
0.04
0.000211106
0.04
0.000211079
0.04
0.000211053
0.04
0.000211025
0.04
0.000210998
0.04
0.000210971
0.04
0.000210944
0.04
0.000210917
0.04
0.000210889
0.04
0.000210862
0.04
0.000210834
0.04
0.000210806
0.04
0.000210779
0.04
0.000210751
0.04
0.000210723
0.04
0.000210695
0.04
0.000210667
0.04
0.000210639
0.04
0.00021061
0.04
0.000210582
0.04
0.000210554
0.04
0.000210525
0.04
0.000210497
0.04
0.000210468
0.04
0.00021044
0.04
0.000210411
0.04
0.000210382
0.04
0.000210353
0.04
0.000210324
0.04
0.000210295
0.04
0.000210266
0.04
0.000210237
0.04
0.000210208
0.04
0.000210178
0.04
0.000210149
0.04
0.00021012
0.04
0.00021009
0.04
0.00021006
0.04
0.000210031
0.04
0.000210001
0.04
0.000209971
0.04
0.000209941
0.04
0.000209911
0.04
0.000209881
0.04
0.000209851
0.04
0.000209821
0.04
0.000209791
0.04
0.00020976
0.04
0.00020973
0.04
0.0002097
0.04
0.000209669
0.04
0.000209638
0.04
0.000209608
0.04
0.000209577
0.04
0.000209546
0.04
0.000209515
0.04
0.000209484
0.04
0.000209453
0.04
0.000209422
0.04
0.000209391
0.04
0.00020936
0.04
0.000209329
0.04
0.000209297
0.04
0.000209266
0.04
0.000209235
0.04
0.000209203
0.04
0.000209171
0.04
0.00020914
0.04
0.000209108
0.04
0.000209076
0.04
0.000209044
0.04
0.000209012
0.04
0.00020898
0.04
0.000208948
0.04
0.000208916
0.04
0.000208884
0.04
0.000208852
0.04
0.00020882
0.04
0.000208787
0.04
0.000208755
0.04
0.000208722
0.04
0.00020869
0.04
0.000208657
0.04
0.000208624
0.04
0.000208592
0.04
0.000208559
0.04
0.000208526
0.04
0.000208493
0.04
0.00020846
0.04
0.000208427
0.04
0.000208394
0.04
0.000208361
0.04
0.000208327
0.04
0.000208294
0.04
0.000208261
0.04
0.000208227
0.04
0.000208194
0.04
0.00020816
0.04
0.000208127
0.04
0.000208093
0.04
0.000208059
0.04
0.000208026
0.04
0.000207992
0.04
0.000207958
0.04
0.000207924
0.04
0.00020789
0.04
0.000207856
0.04
0.000207822
0.04
0.000207787
0.04
0.000207753
0.04
0.000207719
0.04
0.000207684
0.04
0.00020765
0.04
0.000207616
0.04
0.000207581
0.04
0.000207546
0.04
0.000207512
0.04
0.000207477
0.04
0.000207442
0.04
0.000207407
0.04
0.000207373
0.04
0.000207338
0.04
0.000207303
0.04
0.000207268
0.04
0.000207232
0.04
0.000207197
0.04
0.000207162
0.04
0.000207127
0.04
0.000207091
0.04
0.000207056
0.04
0.000207021
0.04
0.000206985
0.04
0.00020695
0.04
0.000206914
0.04
0.000206878
0.04
0.000206842
0.04
0.000206807
0.04
0.000206771
0.04
0.000206735
0.04
0.000206699
0.04
0.000206663
0.04
0.000206627
0.04
0.000206591
0.04
0.000206555
0.04
0.000206518
0.04
0.000206482
0.04
0.000206446
0.04
0.000206409
0.04
0.000206373
0.04
0.000206336
0.04
0.0002063
0.04
0.000206263
0.04
0.000206226
0.04
0.000206189
0.04
0.000206153
0.04
0.000206116
0.04
0.000206079
0.04
0.000206042
0.04
0.000206005
0.04
0.000205968
0.04
0.00020593
0.04
0.000205893
0.04
0.000205856
0.04
0.000205818
0.04
0.000205781
0.04
0.000205744
0.04
0.000205706
0.04
0.000205668
0.04
0.000205631
0.04
0.000205593
0.04
0.000205555
0.04
0.000205517
0.04
0.000205479
0.04
0.000205441
0.04
0.000205403
0.04
0.000205365
0.04
0.000205327
0.04
0.000205288
0.04
0.00020525
0.04
0.000205211
0.04
0.000205173
0.04
0.000205134
0.04
0.000205096
0.04
0.000205057
0.04
0.000205018
0.04
0.000204979
0.04
0.00020494
0.04
0.000204901
0.04
0.000204862
0.04
0.000204823
0.04
0.000204783
0.04
0.000204744
0.04
0.000204704
0.04
0.000204665
0.04
0.000204625
0.04
0.000204585
0.04
0.000204545
0.04
0.000204505
0.04
0.000204465
0.04
0.000204425
0.04
0.000204385
0.04
0.000204345
0.04
0.000204304
0.04
0.000204263
0.04
0.000204223
0.04
0.000204182
0.04
0.000204141
0.04
0.0002041
0.04
0.000204059
0.04
0.000204017
0.04
0.000203976
0.04
0.000203935
0.04
0.000203893
0.04
0.000203851
0.04
0.000203809
0.04
0.000203767
0.04
0.000203725
0.04
0.000203682
0.04
0.00020364
0.04
0.000203597
0.04
0.000203554
0.04
0.000203511
0.04
0.000203468
0.04
0.000203425
0.04
0.000203381
0.04
0.000203337
0.04
0.000203293
0.04
0.000203249
0.04
0.000203205
0.04
0.00020316
0.04
0.000203116
0.04
0.000203071
0.04
0.000203025
0.04
0.00020298
0.04
0.000202934
0.04
0.000202889
0.04
0.000202842
0.04
0.000202796
0.04
0.000202749
0.04
0.000202702
0.04
0.000202655
0.04
0.000202608
0.04
0.00020256
0.04
0.000202512
0.04
0.000202464
0.04
0.000202415
0.04
0.000202366
0.04
0.000202316
0.04
0.000202267
0.04
0.000202216
0.0400001
0.000202166
0.0400001
0.000202115
0.0400001
0.000202064
0.0400001
0.000202012
0.0400001
0.00020196
0.0400001
0.000201907
0.0400001
0.000201854
0.0400001
0.000201801
0.0400001
0.000201747
0.0400001
0.000201692
0.0400001
0.000201637
0.0400001
0.000201581
0.0400001
0.000201525
0.0400001
0.000201469
0.0400001
0.000201411
0.0400001
0.000201353
0.0400001
0.000201295
0.0400001
0.000201235
0.0400001
0.000201175
0.0400001
0.000201115
0.0400001
0.000201053
0.0400001
0.000200991
0.0400001
0.000200928
0.0400001
0.000200864
0.0400001
0.000200799
0.0400001
0.000200733
0.0400001
0.000200667
0.0400001
0.000200599
0.0400001
0.000200531
0.0400001
0.000200461
0.0400001
0.00020039
0.0400001
0.000200318
0.0400001
0.000200245
0.0400001
0.00020017
0.0400001
0.000200094
0.0400001
0.000200017
0.0400001
0.000199938
0.0400001
0.000199858
0.0400001
0.000199776
0.0400001
0.000199692
0.0400001
0.000199606
0.0400001
0.000199519
0.0400001
0.000199429
0.0400001
0.000199337
0.0400001
0.000199243
0.0400001
0.000199147
0.0400001
0.000199047
0.0400001
0.000198945
0.0400001
0.00019884
0.0400001
0.000198732
0.0400001
0.00019862
0.0400001
0.000198504
0.0400001
0.000198384
0.0400001
0.00019826
0.0400001
0.00019813
0.0400001
0.000197995
0.0400001
0.000197855
0.0400001
0.000197707
0.0400001
0.000197552
0.0400002
0.000197389
0.0400002
0.000197216
0.0400002
0.000197033
0.0400002
0.000196837
0.0400002
0.000196627
0.0400002
0.0001964
0.0400002
0.000196154
0.0400002
0.000195884
0.0400003
0.000195585
0.0400003
0.00019525
0.0400003
0.000194871
0.0400004
0.000194435
0.0400004
0.000193926
0.0400005
0.000193324
0.0400006
0.000192603
0.0400007
0.000191728
0.0400009
0.000190646
0.0400011
0.0400013
0.000467244
0.0400211
0.000481292
0.0400141
0.0004888
0.0400345
0.000485685
0.0400427
0.00047639
0.0400405
0.000465267
0.0400342
0.000454626
0.0400271
0.000445376
0.0400207
0.000437692
0.0400157
0.000431429
0.0400119
0.00042634
0.0400091
0.000422178
0.0400071
0.000418737
0.0400057
0.000415853
0.0400046
0.000413402
0.0400038
0.000411294
0.0400032
0.00040946
0.0400028
0.000407846
0.0400024
0.000406415
0.0400021
0.000405135
0.0400019
0.000403982
0.0400017
0.000402937
0.0400015
0.000401985
0.0400013
0.000401114
0.0400012
0.000400313
0.0400011
0.000399574
0.040001
0.000398889
0.0400009
0.000398252
0.0400009
0.000397658
0.0400008
0.000397102
0.0400007
0.000396582
0.0400007
0.000396093
0.0400006
0.000395633
0.0400006
0.0003952
0.0400005
0.00039479
0.0400005
0.000394403
0.0400005
0.000394037
0.0400004
0.00039369
0.0400004
0.000393361
0.0400004
0.000393048
0.0400004
0.00039275
0.0400003
0.000392466
0.0400003
0.000392196
0.0400003
0.000391937
0.0400003
0.000391689
0.0400002
0.000391452
0.0400002
0.000391224
0.0400002
0.000391006
0.0400002
0.000390797
0.0400002
0.000390596
0.0400002
0.000390402
0.0400002
0.000390216
0.0400002
0.000390037
0.0400001
0.000389865
0.0400001
0.000389699
0.0400001
0.00038954
0.0400001
0.000389386
0.0400001
0.000389237
0.0400001
0.000389094
0.0400001
0.000388956
0.0400001
0.000388823
0.0400001
0.000388694
0.0400001
0.00038857
0.04
0.00038845
0.04
0.000388334
0.04
0.000388222
0.04
0.000388113
0.04
0.000388006
0.04
0.000387903
0.04
0.0003878
0.04
0.000387698
0.04
0.000387595
0.04
0.000387491
0.04
0.000387382
0.04
0.00038727
0.04
0.000387152
0.04
0.000387028
0.0400001
0.000386899
0.0400001
0.000386764
0.0400001
0.000386625
0.0400001
0.000386482
0.0400001
0.000386335
0.0400001
0.000386186
0.0400001
0.000386034
0.0400001
0.00038588
0.0400001
0.000385725
0.0400001
0.000385569
0.0400001
0.000385412
0.0400001
0.000385254
0.0400001
0.000385095
0.0400001
0.000384936
0.0400001
0.000384776
0.0400001
0.000384616
0.0400001
0.000384457
0.0400001
0.000384297
0.0400001
0.000384137
0.0400001
0.000383977
0.0400001
0.000383818
0.0400001
0.000383659
0.0400001
0.0003835
0.0400001
0.000383343
0.0400001
0.000383186
0.0400001
0.000383029
0.0400001
0.000382874
0.0400001
0.000382719
0.0400001
0.000382566
0.0400001
0.000382414
0.0400001
0.000382263
0.0400001
0.000382113
0.0400001
0.000381964
0.0400001
0.000381816
0.0400001
0.000381669
0.0400001
0.000381521
0.0400001
0.000381373
0.0400001
0.000381224
0.0400001
0.000381074
0.0400001
0.000380922
0.0400001
0.000380769
0.0400001
0.000380613
0.0400001
0.000380457
0.0400001
0.000380298
0.0400001
0.000380138
0.0400001
0.000379977
0.0400001
0.000379816
0.0400001
0.000379653
0.0400001
0.00037949
0.0400001
0.000379327
0.0400001
0.000379163
0.0400001
0.000378998
0.0400001
0.000378834
0.0400001
0.00037867
0.0400001
0.000378505
0.0400001
0.000378341
0.0400001
0.000378176
0.0400001
0.000378012
0.0400001
0.000377848
0.0400001
0.000377685
0.0400001
0.000377522
0.0400001
0.000377359
0.0400001
0.000377197
0.0400001
0.000377035
0.0400001
0.000376874
0.0400001
0.000376714
0.0400001
0.000376554
0.0400001
0.000376395
0.0400001
0.000376236
0.0400001
0.000376077
0.0400001
0.000375919
0.0400001
0.000375761
0.0400001
0.000375603
0.0400001
0.000375444
0.0400001
0.000375285
0.0400001
0.000375126
0.0400001
0.000374967
0.0400001
0.000374808
0.0400001
0.000374648
0.0400001
0.000374488
0.0400001
0.000374328
0.0400001
0.000374168
0.0400001
0.000374008
0.0400001
0.000373848
0.0400001
0.000373687
0.0400001
0.000373527
0.0400001
0.000373367
0.0400001
0.000373206
0.0400001
0.000373046
0.0400001
0.000372886
0.0400001
0.000372726
0.0400001
0.000372566
0.0400001
0.000372406
0.0400001
0.000372246
0.0400001
0.000372087
0.0400001
0.000371928
0.0400001
0.000371768
0.0400001
0.00037161
0.0400001
0.000371451
0.0400001
0.000371292
0.0400001
0.000371134
0.0400001
0.000370976
0.0400001
0.000370817
0.0400001
0.000370659
0.0400001
0.000370501
0.0400001
0.000370342
0.0400001
0.000370183
0.0400001
0.000370024
0.0400001
0.000369865
0.0400001
0.000369705
0.0400001
0.000369546
0.0400001
0.000369386
0.0400001
0.000369226
0.0400001
0.000369067
0.0400001
0.000368907
0.0400001
0.000368748
0.0400001
0.000368588
0.0400001
0.000368429
0.0400001
0.000368271
0.0400001
0.000368112
0.0400001
0.000367954
0.0400001
0.000367796
0.0400001
0.000367639
0.0400001
0.000367482
0.0400001
0.000367325
0.0400001
0.000367168
0.0400001
0.000367011
0.0400001
0.000366855
0.0400001
0.000366699
0.0400001
0.000366542
0.0400001
0.000366386
0.0400001
0.00036623
0.0400001
0.000366074
0.0400001
0.000365918
0.0400001
0.000365762
0.0400001
0.000365606
0.0400001
0.00036545
0.0400001
0.000365294
0.0400001
0.000365137
0.0400001
0.00036498
0.0400001
0.000364824
0.0400001
0.000364667
0.0400001
0.00036451
0.0400001
0.000364353
0.0400001
0.000364196
0.0400001
0.00036404
0.0400001
0.000363883
0.0400001
0.000363726
0.0400001
0.000363569
0.0400001
0.000363412
0.0400001
0.000363256
0.0400001
0.000363099
0.0400001
0.000362943
0.0400001
0.000362786
0.0400001
0.00036263
0.0400001
0.000362474
0.0400001
0.000362318
0.0400001
0.000362162
0.0400001
0.000362006
0.0400001
0.00036185
0.0400001
0.000361695
0.0400001
0.000361539
0.0400001
0.000361384
0.0400001
0.000361228
0.0400001
0.000361073
0.0400001
0.000360918
0.0400001
0.000360762
0.0400001
0.000360607
0.0400001
0.000360452
0.0400001
0.000360297
0.0400001
0.000360142
0.0400001
0.000359987
0.0400001
0.000359833
0.0400001
0.000359678
0.0400001
0.000359523
0.0400001
0.000359369
0.0400001
0.000359215
0.0400001
0.00035906
0.0400001
0.000358906
0.0400001
0.000358752
0.0400001
0.000358598
0.0400001
0.000358444
0.0400001
0.00035829
0.0400001
0.000358136
0.0400001
0.000357983
0.0400001
0.000357829
0.0400001
0.000357675
0.0400001
0.000357522
0.0400001
0.000357368
0.0400001
0.000357215
0.0400001
0.000357062
0.0400001
0.000356908
0.0400001
0.000356755
0.0400001
0.000356602
0.0400001
0.000356448
0.0400001
0.000356295
0.0400001
0.000356142
0.0400001
0.000355989
0.0400001
0.000355836
0.0400001
0.000355683
0.0400001
0.00035553
0.0400001
0.000355378
0.0400001
0.000355225
0.0400001
0.000355072
0.0400001
0.00035492
0.0400001
0.000354767
0.0400001
0.000354615
0.0400001
0.000354463
0.0400001
0.00035431
0.0400001
0.000354158
0.0400001
0.000354006
0.0400001
0.000353854
0.0400001
0.000353702
0.0400001
0.00035355
0.0400001
0.000353398
0.0400001
0.000353246
0.0400001
0.000353094
0.0400001
0.000352942
0.0400001
0.00035279
0.0400001
0.000352638
0.0400001
0.000352487
0.0400001
0.000352335
0.0400001
0.000352184
0.0400001
0.000352032
0.0400001
0.000351881
0.0400001
0.000351729
0.0400001
0.000351578
0.0400001
0.000351427
0.0400001
0.000351275
0.0400001
0.000351124
0.0400001
0.000350973
0.0400001
0.000350822
0.0400001
0.000350671
0.0400001
0.00035052
0.0400001
0.000350369
0.0400001
0.000350218
0.0400001
0.000350067
0.0400001
0.000349917
0.0400001
0.000349766
0.0400001
0.000349615
0.0400001
0.000349465
0.0400001
0.000349314
0.0400001
0.000349164
0.0400001
0.000349013
0.0400001
0.000348863
0.0400001
0.000348713
0.0400001
0.000348562
0.0400001
0.000348412
0.0400001
0.000348262
0.0400001
0.000348112
0.0400001
0.000347962
0.0400001
0.000347812
0.0400001
0.000347662
0.0400001
0.000347512
0.0400001
0.000347363
0.0400001
0.000347213
0.0400001
0.000347063
0.0400001
0.000346914
0.0400001
0.000346764
0.0400001
0.000346615
0.0400001
0.000346465
0.0400001
0.000346316
0.0400001
0.000346166
0.0400001
0.000346017
0.0400001
0.000345868
0.0400001
0.000345719
0.0400001
0.00034557
0.0400001
0.000345421
0.0400001
0.000345272
0.0400001
0.000345123
0.0400001
0.000344974
0.0400001
0.000344826
0.0400001
0.000344677
0.0400001
0.000344528
0.0400001
0.00034438
0.0400001
0.000344231
0.0400001
0.000344083
0.0400001
0.000343935
0.0400001
0.000343786
0.0400001
0.000343638
0.0400001
0.00034349
0.0400001
0.000343342
0.0400001
0.000343194
0.0400001
0.000343046
0.0400001
0.000342898
0.0400001
0.00034275
0.0400001
0.000342602
0.0400001
0.000342455
0.0400001
0.000342307
0.0400001
0.000342159
0.0400001
0.000342012
0.0400001
0.000341864
0.0400001
0.000341717
0.0400001
0.00034157
0.0400001
0.000341422
0.0400001
0.000341275
0.0400001
0.000341128
0.0400001
0.000340981
0.0400001
0.000340834
0.0400001
0.000340687
0.0400001
0.00034054
0.0400001
0.000340393
0.0400001
0.000340247
0.0400001
0.0003401
0.0400001
0.000339954
0.0400001
0.000339807
0.0400001
0.000339661
0.0400001
0.000339514
0.0400001
0.000339368
0.0400001
0.000339222
0.0400001
0.000339075
0.0400001
0.000338929
0.0400001
0.000338783
0.0400001
0.000338637
0.0400001
0.000338491
0.0400001
0.000338346
0.0400001
0.0003382
0.0400001
0.000338054
0.0400001
0.000337909
0.0400001
0.000337763
0.0400001
0.000337618
0.0400001
0.000337472
0.0400001
0.000337327
0.0400001
0.000337182
0.0400001
0.000337036
0.0400001
0.000336891
0.0400001
0.000336746
0.0400001
0.000336601
0.0400001
0.000336456
0.0400001
0.000336311
0.0400001
0.000336167
0.0400001
0.000336022
0.0400001
0.000335877
0.0400001
0.000335733
0.0400001
0.000335588
0.0400001
0.000335444
0.0400001
0.0003353
0.0400001
0.000335155
0.0400001
0.000335011
0.0400001
0.000334867
0.0400001
0.000334723
0.0400001
0.000334579
0.0400001
0.000334435
0.0400001
0.000334291
0.0400001
0.000334147
0.0400001
0.000334004
0.0400001
0.00033386
0.0400001
0.000333717
0.0400001
0.000333573
0.0400001
0.00033343
0.0400001
0.000333286
0.0400001
0.000333143
0.0400001
0.000333
0.0400001
0.000332857
0.0400001
0.000332714
0.0400001
0.000332571
0.0400001
0.000332428
0.0400001
0.000332285
0.0400001
0.000332142
0.0400001
0.000332
0.0400001
0.000331857
0.0400001
0.000331715
0.0400001
0.000331572
0.0400001
0.00033143
0.0400001
0.000331288
0.0400001
0.000331145
0.0400001
0.000331003
0.0400001
0.000330861
0.0400001
0.000330719
0.0400001
0.000330577
0.0400001
0.000330435
0.0400001
0.000330294
0.0400001
0.000330152
0.0400001
0.00033001
0.0400001
0.000329869
0.0400001
0.000329727
0.0400001
0.000329586
0.0400001
0.000329445
0.0400001
0.000329303
0.0400001
0.000329162
0.0400001
0.000329021
0.0400001
0.00032888
0.0400001
0.000328739
0.0400001
0.000328598
0.0400001
0.000328458
0.0400001
0.000328317
0.0400001
0.000328176
0.0400001
0.000328036
0.0400001
0.000327895
0.0400001
0.000327755
0.0400001
0.000327615
0.0400001
0.000327474
0.0400001
0.000327334
0.0400001
0.000327194
0.0400001
0.000327054
0.0400001
0.000326914
0.0400001
0.000326774
0.0400001
0.000326634
0.0400001
0.000326495
0.0400001
0.000326355
0.0400001
0.000326215
0.0400001
0.000326076
0.0400001
0.000325937
0.0400001
0.000325797
0.0400001
0.000325658
0.0400001
0.000325519
0.0400001
0.00032538
0.0400001
0.000325241
0.0400001
0.000325102
0.0400001
0.000324963
0.0400001
0.000324824
0.0400001
0.000324685
0.0400001
0.000324547
0.0400001
0.000324408
0.0400001
0.00032427
0.0400001
0.000324131
0.0400001
0.000323993
0.0400001
0.000323855
0.0400001
0.000323717
0.0400001
0.000323579
0.0400001
0.000323441
0.0400001
0.000323303
0.0400001
0.000323165
0.0400001
0.000323027
0.0400001
0.000322889
0.0400001
0.000322752
0.0400001
0.000322614
0.0400001
0.000322477
0.0400001
0.000322339
0.0400001
0.000322202
0.0400001
0.000322065
0.0400001
0.000321928
0.0400001
0.000321791
0.0400001
0.000321654
0.0400001
0.000321517
0.0400001
0.00032138
0.0400001
0.000321243
0.0400001
0.000321107
0.0400001
0.00032097
0.0400001
0.000320833
0.0400001
0.000320697
0.0400001
0.000320561
0.0400001
0.000320424
0.0400001
0.000320288
0.0400001
0.000320152
0.0400001
0.000320016
0.0400001
0.00031988
0.0400001
0.000319744
0.0400001
0.000319608
0.0400001
0.000319473
0.0400001
0.000319337
0.0400001