/*--------------------------------*- C++ -*----------------------------------*\
| =========                 |                                                 |
| \\      /  F ield         | OpenFOAM: The Open Source CFD Toolbox           |
|  \\    /   O peration     | Version:  2512                                  |
|   \\  /    A nd           | Website:  www.openfoam.com                      |
|    \\/     M anipulation  |                                                 |
\*---------------------------------------------------------------------------*/
FoamFile
{
    version     2.0;
    format      ascii;
    arch        "LSB;label=32;scalar=64";
    class       volScalarField;
    location    "0.002";
    object      Ux;
}
// * * * * * * * * * * * * * * * * * * * * * * * * * * * * * * * * * * * * * //

dimensions      [0 1 -1 0 0 0 0];

internalField   nonuniform List<scalar> 
100000
(
0.755555
0.650662
0.480066
0.369488
0.304876
0.265648
0.240969
0.225006
0.214315
0.206864
0.201468
0.197428
0.194323
0.191892
0.189964
0.188425
0.187191
0.186206
0.185424
0.184811
0.18434
0.183991
0.183745
0.183589
0.183512
0.183503
0.183555
0.18366
0.183812
0.184007
0.18424
0.184507
0.184806
0.185132
0.185484
0.185858
0.186254
0.186669
0.187101
0.187551
0.188017
0.188498
0.188991
0.189497
0.190013
0.190541
0.191078
0.191623
0.192176
0.192735
0.193301
0.193874
0.194453
0.195038
0.195629
0.196224
0.196825
0.19743
0.198039
0.198652
0.199268
0.199888
0.200512
0.201138
0.201768
0.2024
0.203034
0.203671
0.204309
0.204948
0.205589
0.206229
0.206869
0.207508
0.208145
0.208779
0.209411
0.21004
0.210667
0.211291
0.211913
0.212534
0.213153
0.213771
0.214388
0.215004
0.215619
0.216234
0.216848
0.217461
0.218074
0.218686
0.219298
0.21991
0.220521
0.221132
0.221742
0.222353
0.222963
0.223573
0.224183
0.224793
0.225403
0.226012
0.226622
0.227232
0.227842
0.228452
0.229062
0.229672
0.230282
0.230892
0.231501
0.23211
0.232718
0.233325
0.23393
0.234535
0.235138
0.235739
0.23634
0.23694
0.237538
0.238136
0.238733
0.239329
0.239925
0.240519
0.241113
0.241707
0.2423
0.242892
0.243484
0.244075
0.244666
0.245257
0.245847
0.246436
0.247026
0.247614
0.248203
0.248791
0.249379
0.249966
0.250553
0.25114
0.251726
0.252312
0.252897
0.253481
0.254065
0.254648
0.25523
0.255812
0.256393
0.256973
0.257552
0.258131
0.258709
0.259286
0.259862
0.260438
0.261014
0.261588
0.262162
0.262735
0.263308
0.26388
0.264452
0.265022
0.265593
0.266162
0.266731
0.267299
0.267867
0.268434
0.269001
0.269567
0.270132
0.270696
0.27126
0.271823
0.272385
0.272947
0.273507
0.274067
0.274626
0.275184
0.275741
0.276297
0.276853
0.277408
0.277962
0.278516
0.279068
0.279621
0.280172
0.280723
0.281273
0.281823
0.282371
0.282919
0.283467
0.284013
0.284559
0.285104
0.285649
0.286192
0.286735
0.287277
0.287818
0.288358
0.288898
0.289436
0.289974
0.290511
0.291046
0.291581
0.292115
0.292648
0.29318
0.293712
0.294242
0.294772
0.2953
0.295828
0.296355
0.296881
0.297406
0.297931
0.298454
0.298977
0.299498
0.300019
0.300539
0.301058
0.301576
0.302093
0.30261
0.303125
0.30364
0.304153
0.304666
0.305177
0.305688
0.306198
0.306707
0.307215
0.307722
0.308228
0.308733
0.309237
0.30974
0.310242
0.310744
0.311244
0.311743
0.312241
0.312739
0.313235
0.313731
0.314225
0.314718
0.315211
0.315702
0.316192
0.316682
0.31717
0.317657
0.318144
0.318629
0.319113
0.319596
0.320078
0.320559
0.321039
0.321518
0.321996
0.322473
0.322949
0.323423
0.323897
0.32437
0.324841
0.325312
0.325781
0.326249
0.326716
0.327183
0.327648
0.328111
0.328574
0.329036
0.329496
0.329956
0.330414
0.330871
0.331327
0.331782
0.332236
0.332689
0.33314
0.333591
0.33404
0.334488
0.334935
0.335381
0.335826
0.336269
0.336711
0.337153
0.337593
0.338031
0.338469
0.338906
0.339341
0.339775
0.340208
0.34064
0.34107
0.3415
0.341928
0.342355
0.34278
0.343205
0.343628
0.34405
0.344471
0.344891
0.345309
0.345727
0.346143
0.346557
0.346971
0.347383
0.347794
0.348204
0.348612
0.34902
0.349426
0.349831
0.350234
0.350636
0.351037
0.351437
0.351836
0.352233
0.352629
0.353024
0.353417
0.353809
0.3542
0.354589
0.354978
0.355365
0.35575
0.356135
0.356518
0.356899
0.35728
0.357659
0.358037
0.358413
0.358788
0.359162
0.359535
0.359906
0.360276
0.360645
0.361012
0.361378
0.361742
0.362106
0.362467
0.362828
0.363187
0.363545
0.363901
0.364257
0.36461
0.364963
0.365314
0.365664
0.366012
0.366359
0.366704
0.367049
0.367391
0.367733
0.368073
0.368412
0.368749
0.369085
0.369419
0.369752
0.370084
0.370415
0.370743
0.371071
0.371397
0.371722
0.372045
0.372367
0.372688
0.373007
0.373324
0.373641
0.373955
0.374269
0.374581
0.374891
0.3752
0.375508
0.375814
0.376119
0.376423
0.376724
0.377025
0.377324
0.377622
0.377918
0.378213
0.378506
0.378798
0.379088
0.379377
0.379664
0.37995
0.380235
0.380518
0.380799
0.381079
0.381358
0.381635
0.381911
0.382185
0.382458
0.382729
0.382999
0.383267
0.383534
0.383799
0.384063
0.384325
0.384586
0.384846
0.385103
0.38536
0.385615
0.385868
0.38612
0.38637
0.386619
0.386866
0.387112
0.387357
0.387599
0.387841
0.38808
0.388319
0.388556
0.388791
0.389024
0.389257
0.389487
0.389717
0.389944
0.39017
0.390395
0.390618
0.390839
0.391059
0.391278
0.391495
0.39171
0.391924
0.392136
0.392347
0.392556
0.392764
0.39297
0.393175
0.393378
0.393579
0.393779
0.393978
0.394175
0.39437
0.394564
0.394756
0.394947
0.395136
0.395323
0.395509
0.395694
0.395876
0.396058
0.396238
0.396416
0.396592
0.396767
0.396941
0.397113
0.397283
0.397452
0.397619
0.397785
0.397949
0.398112
0.398273
0.398432
0.39859
0.398746
0.398901
0.399054
0.399206
0.399355
0.399504
0.399651
0.399796
0.39994
0.400082
0.400222
0.400361
0.400498
0.400634
0.400768
0.400901
0.401032
0.401162
0.401289
0.401416
0.40154
0.401664
0.401785
0.401905
0.402023
0.40214
0.402255
0.402369
0.402481
0.402592
0.4027
0.402808
0.402913
0.403018
0.40312
0.403221
0.40332
0.403418
0.403514
0.403609
0.403702
0.403793
0.403883
0.403972
0.404058
0.404143
0.404227
0.404309
0.404389
0.404468
0.404545
0.404621
0.404695
0.404767
0.404838
0.404907
0.404975
0.405041
0.405106
0.405168
0.40523
0.40529
0.405348
0.405404
0.405459
0.405513
0.405565
0.405615
0.405664
0.405711
0.405756
0.4058
0.405843
0.405884
0.405923
0.40596
0.405997
0.406031
0.406064
0.406095
0.406125
0.406154
0.40618
0.406205
0.406229
0.406251
0.406271
0.40629
0.406307
0.406323
0.406337
0.40635
0.406361
0.40637
0.406378
0.406384
0.406389
0.406392
0.406394
0.406394
0.406393
0.40639
0.406385
0.406379
0.406372
0.406362
0.406352
0.406339
0.406326
0.40631
0.406293
0.406275
0.406255
0.406233
0.40621
0.406186
0.406159
0.406132
0.406103
0.406072
0.40604
0.406006
0.405971
0.405934
0.405895
0.405855
0.405814
0.405771
0.405727
0.405681
0.405633
0.405584
0.405534
0.405482
0.405428
0.405373
0.405317
0.405259
0.405199
0.405138
0.405076
0.405012
0.404946
0.404879
0.404811
0.404741
0.404669
0.404597
0.404522
0.404446
0.404369
0.40429
0.40421
0.404128
0.404045
0.40396
0.403874
0.403786
0.403697
0.403606
0.403514
0.403421
0.403326
0.40323
0.403132
0.403032
0.402932
0.40283
0.402726
0.402621
0.402514
0.402407
0.402297
0.402186
0.402074
0.401961
0.401846
0.401729
0.401611
0.401492
0.401371
0.401249
0.401126
0.401001
0.400875
0.400747
0.400618
0.400488
0.400356
0.400222
0.400088
0.399952
0.399814
0.399676
0.399536
0.399394
0.399251
0.399107
0.398961
0.398814
0.398666
0.398516
0.398365
0.398213
0.398059
0.397904
0.397748
0.39759
0.397431
0.397271
0.397109
0.396946
0.396781
0.396616
0.396449
0.39628
0.396111
0.39594
0.395768
0.395594
0.395419
0.395243
0.395066
0.394887
0.394707
0.394526
0.394344
0.39416
0.393975
0.393788
0.393601
0.393412
0.393222
0.393031
0.392838
0.392644
0.392449
0.392253
0.392055
0.391856
0.391657
0.391455
0.391253
0.391049
0.390844
0.390638
0.390431
0.390222
0.390013
0.389802
0.38959
0.389377
0.389162
0.388947
0.38873
0.388512
0.388293
0.388072
0.387851
0.387628
0.387404
0.38718
0.386954
0.386726
0.386498
0.386269
0.386038
0.385806
0.385573
0.385339
0.385104
0.384868
0.384631
0.384393
0.384153
0.383912
0.383671
0.383428
0.383184
0.382939
0.382693
0.382446
0.382198
0.381949
0.381699
0.381447
0.381195
0.380942
0.380687
0.380432
0.380175
0.379918
0.379659
0.3794
0.379139
0.378878
0.378615
0.378352
0.378087
0.377822
0.377555
0.377288
0.377019
0.37675
0.376479
0.376208
0.375936
0.375662
0.375388
0.375113
0.374837
0.37456
0.374282
0.374003
0.373723
0.373442
0.37316
0.372878
0.372594
0.37231
0.372025
0.371739
0.371452
0.371164
0.370875
0.370585
0.370295
0.370003
0.369711
0.369418
0.369124
0.368829
0.368534
0.368237
0.36794
0.367642
0.367343
0.367043
0.366743
0.366441
0.366139
0.365836
0.365532
0.365228
0.364923
0.364617
0.36431
0.364002
0.363694
0.363385
0.363075
0.362765
0.362453
0.362141
0.361828
0.361515
0.361201
0.360886
0.36057
0.360254
0.359937
0.359619
0.359301
0.358982
0.358662
0.358342
0.358021
0.357699
0.357377
0.357054
0.35673
0.356406
0.356081
0.355756
0.355429
0.355103
0.354775
0.354447
0.354119
0.35379
0.35346
0.35313
0.352799
0.352467
0.352135
0.351803
0.35147
0.351136
0.350802
0.350467
0.350132
0.349796
0.34946
0.349123
0.348786
0.348448
0.34811
0.347771
0.347432
0.347092
0.346752
0.346411
0.34607
0.345728
0.345387
0.345044
0.344701
0.344358
0.344015
0.343671
0.343326
0.342981
0.342636
0.342291
0.341945
0.341599
0.341252
0.340905
0.340558
0.34021
0.339863
0.339514
0.339166
0.338817
0.338468
0.338119
0.33777
0.33742
0.33707
0.33672
0.33637
0.336019
0.335669
0.335318
0.334967
0.334616
0.334265
0.333914
0.333563
0.333212
0.33286
0.332509
0.332158
0.331806
0.331455
0.331104
0.330753
0.330403
0.330052
0.329702
0.329352
0.329002
0.328652
0.328303
0.327954
0.327606
0.327258
0.326911
0.326564
0.326218
0.325873
0.325528
0.325184
0.324841
0.324499
0.324158
0.323819
0.32348
0.323143
0.322807
0.322473
0.322141
0.32181
0.321482
0.321155
0.32083
0.320507
0.320186
0.319868
0.319551
0.319235
0.318919
0.318603
0.318284
0.317962
0.317635
0.317293
0.316863
0.997392
0.97747
0.86847
0.761358
0.678426
0.617982
0.574706
0.543755
0.521352
0.504803
0.492286
0.482597
0.474939
0.468782
0.463763
0.459629
0.456197
0.453333
0.450934
0.448924
0.447241
0.445836
0.444668
0.443707
0.442926
0.442301
0.441815
0.441452
0.441197
0.44104
0.440971
0.44098
0.44106
0.441205
0.441409
0.441666
0.441972
0.442324
0.442718
0.443149
0.443615
0.444114
0.444643
0.445201
0.445784
0.446392
0.447023
0.447671
0.448336
0.449019
0.449719
0.450435
0.451165
0.451909
0.452666
0.453434
0.454215
0.455005
0.455806
0.456616
0.457435
0.458263
0.459098
0.45994
0.460789
0.461644
0.462505
0.463371
0.464241
0.465113
0.465988
0.466863
0.467737
0.468609
0.469476
0.470339
0.471196
0.472047
0.472893
0.473733
0.474569
0.475401
0.47623
0.477057
0.477881
0.478703
0.479523
0.480342
0.48116
0.481976
0.482792
0.483606
0.48442
0.485234
0.486046
0.486859
0.487671
0.488483
0.489295
0.490107
0.490919
0.491732
0.492544
0.493357
0.494171
0.494985
0.495799
0.496614
0.497429
0.498245
0.499061
0.499877
0.500692
0.501507
0.502319
0.50313
0.503939
0.504745
0.505549
0.50635
0.50715
0.507947
0.508743
0.509537
0.510329
0.511121
0.511911
0.5127
0.513488
0.514275
0.515061
0.515847
0.516632
0.517416
0.5182
0.518983
0.519766
0.520548
0.52133
0.522112
0.522893
0.523675
0.524456
0.525237
0.526017
0.526797
0.527577
0.528356
0.529135
0.529912
0.530689
0.531465
0.532239
0.533013
0.533785
0.534557
0.535327
0.536097
0.536865
0.537633
0.5384
0.539166
0.539931
0.540695
0.541458
0.542221
0.542982
0.543743
0.544504
0.545263
0.546022
0.54678
0.547538
0.548295
0.549051
0.549806
0.550561
0.551315
0.552068
0.55282
0.553572
0.554322
0.555071
0.555819
0.556566
0.557312
0.558057
0.5588
0.559543
0.560284
0.561025
0.561764
0.562503
0.563241
0.563978
0.564714
0.56545
0.566185
0.566919
0.567653
0.568386
0.569118
0.569849
0.570579
0.571309
0.572037
0.572765
0.573492
0.574217
0.574942
0.575666
0.576388
0.57711
0.57783
0.578549
0.579267
0.579984
0.580699
0.581414
0.582127
0.582839
0.58355
0.58426
0.584968
0.585676
0.586383
0.587088
0.587793
0.588496
0.589198
0.589899
0.590599
0.591298
0.591996
0.592693
0.593389
0.594084
0.594778
0.59547
0.596162
0.596852
0.597541
0.598229
0.598916
0.599602
0.600287
0.60097
0.601652
0.602333
0.603013
0.603692
0.60437
0.605046
0.605722
0.606396
0.607069
0.607741
0.608411
0.609081
0.609749
0.610416
0.611082
0.611746
0.612409
0.613071
0.613732
0.614392
0.61505
0.615707
0.616363
0.617017
0.617671
0.618323
0.618973
0.619623
0.620271
0.620917
0.621563
0.622207
0.62285
0.623491
0.624132
0.624771
0.625408
0.626045
0.62668
0.627313
0.627946
0.628577
0.629206
0.629834
0.630461
0.631087
0.631711
0.632334
0.632955
0.633575
0.634194
0.634811
0.635427
0.636041
0.636654
0.637266
0.637876
0.638485
0.639092
0.639698
0.640303
0.640906
0.641508
0.642108
0.642707
0.643304
0.6439
0.644495
0.645088
0.645679
0.646269
0.646858
0.647445
0.648031
0.648615
0.649198
0.649779
0.650359
0.650938
0.651514
0.65209
0.652664
0.653236
0.653807
0.654376
0.654944
0.65551
0.656075
0.656638
0.6572
0.65776
0.658319
0.658876
0.659432
0.659986
0.660538
0.661089
0.661639
0.662187
0.662733
0.663278
0.663821
0.664363
0.664903
0.665441
0.665978
0.666514
0.667048
0.66758
0.66811
0.668639
0.669167
0.669693
0.670217
0.67074
0.671261
0.67178
0.672298
0.672814
0.673329
0.673842
0.674353
0.674863
0.675371
0.675878
0.676382
0.676886
0.677387
0.677887
0.678385
0.678882
0.679377
0.67987
0.680362
0.680852
0.681341
0.681827
0.682312
0.682796
0.683277
0.683757
0.684236
0.684713
0.685188
0.685661
0.686133
0.686602
0.687071
0.687537
0.688002
0.688465
0.688927
0.689387
0.689845
0.690301
0.690756
0.691209
0.69166
0.692109
0.692557
0.693003
0.693448
0.69389
0.694331
0.69477
0.695208
0.695643
0.696077
0.696509
0.69694
0.697369
0.697796
0.698221
0.698644
0.699066
0.699486
0.699904
0.700321
0.700735
0.701148
0.701559
0.701969
0.702377
0.702782
0.703186
0.703589
0.703989
0.704388
0.704785
0.70518
0.705574
0.705965
0.706355
0.706743
0.707129
0.707514
0.707897
0.708278
0.708657
0.709034
0.709409
0.709783
0.710155
0.710525
0.710893
0.71126
0.711624
0.711987
0.712348
0.712707
0.713065
0.71342
0.713774
0.714126
0.714476
0.714824
0.715171
0.715515
0.715858
0.716199
0.716538
0.716876
0.717211
0.717545
0.717876
0.718206
0.718535
0.718861
0.719185
0.719508
0.719829
0.720147
0.720465
0.72078
0.721093
0.721405
0.721714
0.722022
0.722328
0.722632
0.722934
0.723235
0.723533
0.72383
0.724125
0.724418
0.724709
0.724998
0.725286
0.725571
0.725855
0.726137
0.726416
0.726695
0.726971
0.727245
0.727518
0.727788
0.728057
0.728324
0.728589
0.728852
0.729113
0.729372
0.72963
0.729886
0.730139
0.730391
0.730641
0.730889
0.731136
0.73138
0.731623
0.731863
0.732102
0.732339
0.732574
0.732807
0.733038
0.733268
0.733495
0.733721
0.733944
0.734166
0.734386
0.734604
0.734821
0.735035
0.735247
0.735458
0.735667
0.735874
0.736079
0.736282
0.736483
0.736682
0.73688
0.737075
0.737269
0.737461
0.73765
0.737839
0.738025
0.738209
0.738391
0.738572
0.738751
0.738927
0.739102
0.739275
0.739446
0.739616
0.739783
0.739949
0.740112
0.740274
0.740434
0.740592
0.740748
0.740902
0.741055
0.741205
0.741354
0.741501
0.741646
0.741789
0.74193
0.74207
0.742207
0.742343
0.742476
0.742608
0.742738
0.742866
0.742993
0.743117
0.74324
0.74336
0.743479
0.743596
0.743712
0.743825
0.743936
0.744046
0.744154
0.74426
0.744364
0.744466
0.744566
0.744665
0.744761
0.744856
0.744949
0.74504
0.74513
0.745217
0.745303
0.745386
0.745468
0.745549
0.745627
0.745703
0.745778
0.745851
0.745922
0.745991
0.746058
0.746124
0.746187
0.746249
0.746309
0.746368
0.746424
0.746479
0.746531
0.746583
0.746632
0.746679
0.746725
0.746768
0.74681
0.746851
0.746889
0.746926
0.746961
0.746994
0.747025
0.747054
0.747082
0.747108
0.747132
0.747154
0.747175
0.747194
0.747211
0.747226
0.747239
0.747251
0.747261
0.747269
0.747276
0.74728
0.747283
0.747284
0.747284
0.747281
0.747277
0.747271
0.747264
0.747255
0.747244
0.747231
0.747216
0.7472
0.747182
0.747162
0.747141
0.747118
0.747093
0.747067
0.747038
0.747008
0.746977
0.746943
0.746908
0.746871
0.746833
0.746793
0.746751
0.746707
0.746662
0.746615
0.746567
0.746517
0.746465
0.746411
0.746356
0.746299
0.74624
0.74618
0.746118
0.746055
0.74599
0.745923
0.745854
0.745784
0.745712
0.745639
0.745564
0.745487
0.745409
0.745329
0.745248
0.745165
0.74508
0.744994
0.744906
0.744816
0.744725
0.744633
0.744538
0.744443
0.744345
0.744246
0.744145
0.744043
0.74394
0.743834
0.743727
0.743619
0.743509
0.743397
0.743284
0.74317
0.743054
0.742936
0.742817
0.742696
0.742574
0.74245
0.742325
0.742198
0.742069
0.74194
0.741808
0.741675
0.741541
0.741405
0.741268
0.741129
0.740989
0.740847
0.740704
0.740559
0.740413
0.740266
0.740117
0.739966
0.739814
0.739661
0.739506
0.73935
0.739192
0.739033
0.738872
0.738711
0.738547
0.738382
0.738216
0.738049
0.73788
0.737709
0.737538
0.737365
0.73719
0.737014
0.736837
0.736659
0.736479
0.736297
0.736115
0.735931
0.735745
0.735559
0.735371
0.735181
0.734991
0.734799
0.734606
0.734411
0.734215
0.734018
0.733819
0.73362
0.733419
0.733216
0.733013
0.732808
0.732602
0.732394
0.732186
0.731976
0.731765
0.731552
0.731339
0.731124
0.730908
0.73069
0.730472
0.730252
0.730031
0.729809
0.729586
0.729361
0.729135
0.728909
0.728681
0.728451
0.728221
0.727989
0.727757
0.727523
0.727288
0.727052
0.726814
0.726576
0.726336
0.726096
0.725854
0.725611
0.725367
0.725122
0.724876
0.724628
0.72438
0.724131
0.72388
0.723629
0.723376
0.723122
0.722868
0.722612
0.722355
0.722097
0.721838
0.721578
0.721318
0.721056
0.720793
0.720529
0.720264
0.719998
0.719731
0.719463
0.719194
0.718925
0.718654
0.718382
0.71811
0.717836
0.717561
0.717286
0.71701
0.716732
0.716454
0.716175
0.715895
0.715614
0.715332
0.715049
0.714766
0.714481
0.714196
0.71391
0.713623
0.713335
0.713046
0.712757
0.712466
0.712175
0.711883
0.71159
0.711296
0.711002
0.710707
0.710411
0.710114
0.709816
0.709518
0.709219
0.708919
0.708618
0.708317
0.708014
0.707712
0.707408
0.707104
0.706799
0.706493
0.706186
0.705879
0.705571
0.705263
0.704954
0.704644
0.704333
0.704022
0.70371
0.703398
0.703085
0.702771
0.702457
0.702142
0.701826
0.70151
0.701193
0.700876
0.700558
0.700239
0.69992
0.699601
0.699281
0.69896
0.698639
0.698317
0.697995
0.697672
0.697349
0.697025
0.6967
0.696376
0.69605
0.695725
0.695399
0.695072
0.694745
0.694418
0.69409
0.693762
0.693433
0.693104
0.692775
0.692445
0.692115
0.691784
0.691453
0.691122
0.690791
0.690459
0.690127
0.689795
0.689463
0.68913
0.688797
0.688464
0.688131
0.687797
0.687463
0.68713
0.686796
0.686462
0.686128
0.685794
0.685459
0.685125
0.684791
0.684457
0.684123
0.683789
0.683455
0.683121
0.682788
0.682454
0.682121
0.681789
0.681456
0.681124
0.680792
0.680461
0.68013
0.6798
0.679471
0.679142
0.678813
0.678486
0.678159
0.677833
0.677508
0.677184
0.676861
0.676539
0.676219
0.675899
0.675581
0.675265
0.674949
0.674635
0.674323
0.674011
0.673701
0.673392
0.673084
0.672776
0.672468
0.672158
0.671844
0.671525
0.671197
0.670855
0.670496
0.670115
0.669691
0.66916
1.01397
1.05063
1.01752
0.958798
0.89804
0.845038
0.80214
0.768567
0.742559
0.722345
0.706465
0.693817
0.683598
0.675232
0.668304
0.662512
0.657632
0.653495
0.649973
0.646964
0.644389
0.642185
0.640299
0.638689
0.63732
0.636162
0.63519
0.634383
0.633723
0.633195
0.632785
0.632481
0.632273
0.632152
0.632111
0.632143
0.632241
0.632401
0.632617
0.632885
0.6332
0.63356
0.633959
0.634396
0.634867
0.635368
0.635898
0.636456
0.637042
0.637653
0.638287
0.638941
0.639614
0.640306
0.641016
0.641742
0.642483
0.643238
0.644007
0.644789
0.645583
0.646388
0.647204
0.648029
0.648863
0.649706
0.650556
0.651413
0.652275
0.653141
0.65401
0.654879
0.655748
0.656613
0.657474
0.658329
0.659177
0.660019
0.660853
0.661682
0.662504
0.663322
0.664136
0.664946
0.665753
0.666557
0.667359
0.66816
0.668958
0.669755
0.670551
0.671346
0.67214
0.672934
0.673727
0.674519
0.675312
0.676104
0.676896
0.677688
0.678481
0.679274
0.680068
0.680862
0.681657
0.682453
0.68325
0.684047
0.684845
0.685644
0.686443
0.687242
0.68804
0.688838
0.689633
0.690427
0.691218
0.692006
0.692791
0.693573
0.694353
0.695131
0.695906
0.696679
0.697451
0.698221
0.69899
0.699757
0.700524
0.701289
0.702054
0.702817
0.70358
0.704343
0.705105
0.705866
0.706628
0.707389
0.708149
0.70891
0.70967
0.710431
0.711191
0.711951
0.712711
0.713471
0.714231
0.71499
0.715748
0.716506
0.717263
0.718018
0.718773
0.719526
0.720279
0.72103
0.721781
0.72253
0.723278
0.724026
0.724773
0.725518
0.726263
0.727007
0.727751
0.728493
0.729235
0.729976
0.730717
0.731456
0.732196
0.732934
0.733672
0.734409
0.735146
0.735882
0.736618
0.737352
0.738086
0.73882
0.739552
0.740283
0.741013
0.741742
0.74247
0.743197
0.743922
0.744647
0.74537
0.746093
0.746814
0.747535
0.748255
0.748974
0.749693
0.75041
0.751128
0.751844
0.75256
0.753276
0.753991
0.754705
0.755418
0.756131
0.756843
0.757554
0.758264
0.758973
0.759682
0.760389
0.761096
0.761801
0.762506
0.763209
0.763911
0.764612
0.765311
0.76601
0.766707
0.767403
0.768098
0.768792
0.769485
0.770177
0.770868
0.771558
0.772247
0.772934
0.773621
0.774307
0.774991
0.775675
0.776358
0.77704
0.77772
0.7784
0.779079
0.779757
0.780433
0.781109
0.781784
0.782457
0.78313
0.783801
0.784471
0.78514
0.785808
0.786475
0.787141
0.787806
0.78847
0.789132
0.789794
0.790455
0.791114
0.791772
0.792429
0.793086
0.79374
0.794394
0.795047
0.795698
0.796349
0.796998
0.797646
0.798293
0.798938
0.799583
0.800226
0.800868
0.801509
0.802148
0.802787
0.803424
0.80406
0.804694
0.805328
0.80596
0.806591
0.807221
0.807849
0.808477
0.809103
0.809728
0.810351
0.810973
0.811594
0.812214
0.812833
0.81345
0.814066
0.81468
0.815293
0.815905
0.816516
0.817125
0.817733
0.81834
0.818946
0.81955
0.820152
0.820754
0.821354
0.821952
0.82255
0.823146
0.82374
0.824334
0.824926
0.825516
0.826105
0.826693
0.82728
0.827865
0.828449
0.829031
0.829612
0.830191
0.83077
0.831346
0.831922
0.832496
0.833068
0.833639
0.834209
0.834777
0.835344
0.835909
0.836474
0.837036
0.837597
0.838157
0.838715
0.839272
0.839827
0.840381
0.840934
0.841485
0.842035
0.842583
0.843129
0.843674
0.844218
0.84476
0.845301
0.84584
0.846378
0.846915
0.847449
0.847983
0.848515
0.849045
0.849574
0.850101
0.850627
0.851151
0.851674
0.852195
0.852715
0.853233
0.85375
0.854265
0.854779
0.855291
0.855802
0.856311
0.856818
0.857324
0.857829
0.858332
0.858833
0.859333
0.859831
0.860328
0.860823
0.861316
0.861808
0.862299
0.862788
0.863275
0.863761
0.864245
0.864727
0.865208
0.865688
0.866165
0.866642
0.867116
0.867589
0.868061
0.86853
0.868999
0.869465
0.86993
0.870393
0.870855
0.871315
0.871774
0.872231
0.872686
0.87314
0.873592
0.874042
0.874491
0.874938
0.875383
0.875827
0.876269
0.87671
0.877149
0.877586
0.878022
0.878456
0.878888
0.879319
0.879748
0.880175
0.880601
0.881025
0.881447
0.881868
0.882287
0.882704
0.88312
0.883534
0.883946
0.884357
0.884766
0.885173
0.885578
0.885982
0.886384
0.886785
0.887184
0.887581
0.887976
0.88837
0.888762
0.889152
0.889541
0.889928
0.890313
0.890697
0.891078
0.891458
0.891837
0.892213
0.892588
0.892962
0.893333
0.893703
0.894071
0.894437
0.894802
0.895165
0.895526
0.895885
0.896243
0.896599
0.896953
0.897305
0.897656
0.898005
0.898352
0.898698
0.899042
0.899384
0.899724
0.900062
0.900399
0.900734
0.901068
0.901399
0.901729
0.902057
0.902383
0.902708
0.90303
0.903351
0.903671
0.903988
0.904304
0.904618
0.90493
0.90524
0.905549
0.905856
0.906161
0.906464
0.906766
0.907066
0.907364
0.90766
0.907955
0.908247
0.908538
0.908827
0.909115
0.9094
0.909684
0.909966
0.910247
0.910525
0.910802
0.911077
0.91135
0.911621
0.911891
0.912159
0.912425
0.912689
0.912951
0.913212
0.913471
0.913728
0.913984
0.914237
0.914489
0.914739
0.914987
0.915233
0.915478
0.915721
0.915962
0.916201
0.916438
0.916674
0.916908
0.91714
0.91737
0.917599
0.917825
0.91805
0.918273
0.918495
0.918714
0.918932
0.919148
0.919362
0.919575
0.919785
0.919994
0.920201
0.920406
0.920609
0.920811
0.921011
0.921209
0.921405
0.9216
0.921792
0.921983
0.922172
0.92236
0.922545
0.922729
0.922911
0.923091
0.923269
0.923446
0.923621
0.923794
0.923965
0.924134
0.924302
0.924468
0.924632
0.924794
0.924955
0.925113
0.92527
0.925425
0.925579
0.92573
0.92588
0.926028
0.926175
0.926319
0.926462
0.926603
0.926742
0.926879
0.927015
0.927149
0.927281
0.927411
0.92754
0.927666
0.927791
0.927915
0.928036
0.928156
0.928274
0.92839
0.928504
0.928617
0.928728
0.928837
0.928944
0.92905
0.929154
0.929256
0.929356
0.929455
0.929552
0.929647
0.92974
0.929832
0.929922
0.93001
0.930096
0.930181
0.930264
0.930345
0.930424
0.930502
0.930578
0.930652
0.930725
0.930796
0.930865
0.930932
0.930998
0.931061
0.931124
0.931184
0.931243
0.9313
0.931355
0.931409
0.931461
0.931511
0.931559
0.931606
0.931651
0.931694
0.931736
0.931776
0.931814
0.931851
0.931886
0.931919
0.93195
0.93198
0.932008
0.932035
0.93206
0.932083
0.932104
0.932124
0.932142
0.932158
0.932173
0.932186
0.932198
0.932207
0.932216
0.932222
0.932227
0.93223
0.932231
0.932231
0.932229
0.932226
0.932221
0.932214
0.932206
0.932196
0.932184
0.932171
0.932156
0.93214
0.932122
0.932102
0.932081
0.932058
0.932033
0.932007
0.93198
0.93195
0.931919
0.931887
0.931853
0.931817
0.93178
0.931741
0.9317
0.931658
0.931615
0.93157
0.931523
0.931475
0.931425
0.931373
0.93132
0.931266
0.93121
0.931152
0.931093
0.931032
0.93097
0.930906
0.930841
0.930774
0.930706
0.930636
0.930565
0.930492
0.930417
0.930341
0.930264
0.930185
0.930104
0.930023
0.929939
0.929854
0.929768
0.92968
0.929591
0.9295
0.929407
0.929314
0.929218
0.929122
0.929024
0.928924
0.928823
0.928721
0.928617
0.928511
0.928404
0.928296
0.928187
0.928075
0.927963
0.927849
0.927734
0.927617
0.927499
0.927379
0.927258
0.927136
0.927012
0.926887
0.926761
0.926633
0.926503
0.926373
0.926241
0.926107
0.925973
0.925837
0.925699
0.925561
0.92542
0.925279
0.925136
0.924992
0.924847
0.9247
0.924552
0.924403
0.924252
0.9241
0.923947
0.923792
0.923636
0.923479
0.923321
0.923161
0.923
0.922838
0.922674
0.922509
0.922343
0.922176
0.922008
0.921838
0.921667
0.921494
0.921321
0.921146
0.92097
0.920793
0.920615
0.920435
0.920255
0.920073
0.919889
0.919705
0.91952
0.919333
0.919145
0.918956
0.918766
0.918574
0.918382
0.918188
0.917993
0.917798
0.9176
0.917402
0.917203
0.917002
0.916801
0.916598
0.916394
0.916189
0.915983
0.915776
0.915568
0.915359
0.915149
0.914937
0.914725
0.914511
0.914297
0.914081
0.913864
0.913647
0.913428
0.913208
0.912987
0.912765
0.912542
0.912319
0.912094
0.911868
0.911641
0.911413
0.911184
0.910954
0.910724
0.910492
0.910259
0.910026
0.909791
0.909555
0.909319
0.909081
0.908843
0.908604
0.908363
0.908122
0.90788
0.907637
0.907393
0.907149
0.906903
0.906656
0.906409
0.906161
0.905912
0.905662
0.905411
0.905159
0.904906
0.904653
0.904399
0.904144
0.903888
0.903631
0.903374
0.903115
0.902856
0.902596
0.902336
0.902074
0.901812
0.901549
0.901285
0.901021
0.900756
0.90049
0.900223
0.899955
0.899687
0.899418
0.899148
0.898878
0.898607
0.898335
0.898063
0.89779
0.897516
0.897241
0.896966
0.89669
0.896414
0.896137
0.895859
0.89558
0.895301
0.895022
0.894741
0.89446
0.894179
0.893897
0.893614
0.893331
0.893047
0.892762
0.892477
0.892192
0.891906
0.891619
0.891332
0.891044
0.890756
0.890467
0.890178
0.889888
0.889597
0.889307
0.889015
0.888724
0.888431
0.888139
0.887846
0.887552
0.887258
0.886964
0.886669
0.886373
0.886078
0.885782
0.885485
0.885189
0.884891
0.884594
0.884296
0.883998
0.883699
0.8834
0.883101
0.882802
0.882502
0.882202
0.881902
0.881601
0.8813
0.881
0.880698
0.880397
0.880095
0.879794
0.879492
0.87919
0.878888
0.878585
0.878283
0.877981
0.877678
0.877376
0.877073
0.876771
0.876468
0.876166
0.875864
0.875561
0.875259
0.874957
0.874655
0.874354
0.874052
0.873751
0.87345
0.873149
0.872849
0.872549
0.872249
0.87195
0.871651
0.871352
0.871054
0.870756
0.870459
0.870162
0.869865
0.869569
0.869273
0.868978
0.868682
0.868387
0.868091
0.867795
0.867498
0.8672
0.866899
0.866596
0.866289
0.865976
0.865654
0.865322
0.864976
0.864611
0.864225
0.863818
0.863373
0.862825
1.01168
1.05956
1.06829
1.05037
1.01867
0.983605
0.950741
0.922226
0.898376
0.878729
0.862599
0.849311
0.838292
0.829086
0.821336
0.814764
0.809159
0.804353
0.800217
0.796645
0.793553
0.790875
0.788553
0.786542
0.784803
0.783303
0.782015
0.780914
0.779981
0.779199
0.778551
0.778024
0.777608
0.777292
0.777068
0.776927
0.776862
0.776868
0.776938
0.777067
0.77725
0.777484
0.777764
0.778086
0.778449
0.778847
0.77928
0.779746
0.780242
0.780764
0.781313
0.781887
0.782483
0.7831
0.783738
0.784393
0.785067
0.785757
0.786462
0.787182
0.787916
0.788662
0.78942
0.790189
0.790968
0.791757
0.792554
0.793358
0.794168
0.794983
0.7958
0.796619
0.797438
0.798254
0.799066
0.799873
0.800674
0.801468
0.802256
0.803037
0.803813
0.804583
0.80535
0.806112
0.806871
0.807628
0.808382
0.809134
0.809884
0.810632
0.81138
0.812126
0.812871
0.813616
0.81436
0.815103
0.815847
0.81659
0.817334
0.818077
0.818821
0.819566
0.820311
0.821056
0.821803
0.82255
0.823298
0.824047
0.824796
0.825547
0.826297
0.827048
0.827797
0.828546
0.829294
0.830039
0.830781
0.831521
0.832258
0.832992
0.833724
0.834453
0.835179
0.835904
0.836627
0.837348
0.838068
0.838786
0.839503
0.840219
0.840934
0.841648
0.842362
0.843075
0.843787
0.844499
0.845211
0.845923
0.846634
0.847345
0.848056
0.848767
0.849478
0.850189
0.8509
0.85161
0.852321
0.853031
0.85374
0.854448
0.855156
0.855863
0.856569
0.857273
0.857977
0.85868
0.859381
0.860082
0.860781
0.86148
0.862178
0.862875
0.863571
0.864266
0.86496
0.865654
0.866347
0.86704
0.867731
0.868422
0.869113
0.869802
0.870491
0.87118
0.871868
0.872555
0.873242
0.873928
0.874613
0.875298
0.875981
0.876664
0.877346
0.878026
0.878705
0.879383
0.88006
0.880736
0.881411
0.882085
0.882758
0.883431
0.884102
0.884773
0.885443
0.886113
0.886781
0.88745
0.888118
0.888785
0.889452
0.890118
0.890783
0.891448
0.892111
0.892775
0.893437
0.894098
0.894759
0.895418
0.896077
0.896735
0.897391
0.898046
0.898701
0.899354
0.900006
0.900656
0.901306
0.901954
0.902602
0.903248
0.903893
0.904537
0.905181
0.905823
0.906464
0.907104
0.907743
0.908381
0.909018
0.909654
0.91029
0.910924
0.911557
0.912189
0.912821
0.913451
0.91408
0.914709
0.915336
0.915962
0.916587
0.917212
0.917835
0.918457
0.919078
0.919697
0.920316
0.920934
0.921551
0.922166
0.922781
0.923395
0.924007
0.924619
0.925229
0.925838
0.926446
0.927053
0.927659
0.928264
0.928868
0.92947
0.930071
0.930672
0.931271
0.931868
0.932465
0.933061
0.933655
0.934248
0.93484
0.935431