/*--------------------------------*- C++ -*----------------------------------*\
| =========                 |                                                 |
| \\      /  F ield         | OpenFOAM: The Open Source CFD Toolbox           |
|  \\    /   O peration     | Version:  2512                                  |
|   \\  /    A nd           | Website:  www.openfoam.com                      |
|    \\/     M anipulation  |                                                 |
\*---------------------------------------------------------------------------*/
FoamFile
{
    version     2.0;
    format      ascii;
    arch        "LSB;label=32;scalar=64";
    class       volScalarField;
    location    "0.002";
    object      Uy;
}
// * * * * * * * * * * * * * * * * * * * * * * * * * * * * * * * * * * * * * //

dimensions      [0 1 -1 0 0 0 0];

internalField   nonuniform List<scalar> 
100000
(
0.130369
0.100162
0.0495344
0.0260175
0.0144718
0.00816627
0.00472938
0.00287619
0.00185826
0.00127708
0.000927983
0.000705457
0.000554549
0.000446239
0.000364792
0.000301307
0.000250475
0.000208952
0.000174508
0.000145582
0.000121028
9.9982e-05
8.17815e-05
6.59086e-05
5.19531e-05
3.95846e-05
2.85313e-05
1.85642e-05
9.48831e-06
1.13225e-06
-6.66286e-06
-1.39851e-05
-2.07482e-05
-2.69401e-05
-3.256e-05
-3.77028e-05
-4.23239e-05
-4.6145e-05
-4.76608e-05
-4.73551e-05
-4.77444e-05
-4.87427e-05
-5.00312e-05
-5.12399e-05
-5.2183e-05
-5.2779e-05
-5.26227e-05
-5.21275e-05
-5.23114e-05
-5.29455e-05
-5.3753e-05
-5.45858e-05
-5.54e-05
-5.61838e-05
-5.69353e-05
-5.7655e-05
-5.83432e-05
-5.90003e-05
-5.96278e-05
-6.02273e-05
-6.08002e-05
-6.13475e-05
-6.18703e-05
-6.23692e-05
-6.2844e-05
-6.32929e-05
-6.3712e-05
-6.40938e-05
-6.44253e-05
-6.46882e-05
-6.48606e-05
-6.49222e-05
-6.48607e-05
-6.46786e-05
-6.43965e-05
-6.40497e-05
-6.36802e-05
-6.33263e-05
-6.30155e-05
-6.2761e-05
-6.25633e-05
-6.24146e-05
-6.23039e-05
-6.22208e-05
-6.21568e-05
-6.21058e-05
-6.2064e-05
-6.20289e-05
-6.19995e-05
-6.19749e-05
-6.19549e-05
-6.19394e-05
-6.19284e-05
-6.19218e-05
-6.19196e-05
-6.1922e-05
-6.19288e-05
-6.19402e-05
-6.19563e-05
-6.19772e-05
-6.20029e-05
-6.20338e-05
-6.20701e-05
-6.21121e-05
-6.21602e-05
-6.22143e-05
-6.22737e-05
-6.23362e-05
-6.23976e-05
-6.24514e-05
-6.24886e-05
-6.24991e-05
-6.24744e-05
-6.24098e-05
-6.23072e-05
-6.21744e-05
-6.20241e-05
-6.18698e-05
-6.17229e-05
-6.15907e-05
-6.14757e-05
-6.13775e-05
-6.12936e-05
-6.12211e-05
-6.11575e-05
-6.11009e-05
-6.10501e-05
-6.10043e-05
-6.09629e-05
-6.09258e-05
-6.08926e-05
-6.08634e-05
-6.08381e-05
-6.08167e-05
-6.07991e-05
-6.07852e-05
-6.0775e-05
-6.07682e-05
-6.07646e-05
-6.07637e-05
-6.0765e-05
-6.0768e-05
-6.07715e-05
-6.07741e-05
-6.07738e-05
-6.07682e-05
-6.07549e-05
-6.07319e-05
-6.06982e-05
-6.06546e-05
-6.06035e-05
-6.05481e-05
-6.0492e-05
-6.04377e-05
-6.03867e-05
-6.03392e-05
-6.02948e-05
-6.02527e-05
-6.02123e-05
-6.01732e-05
-6.01354e-05
-6.00987e-05
-6.00633e-05
-6.00292e-05
-5.99965e-05
-5.99651e-05
-5.99351e-05
-5.99065e-05
-5.98794e-05
-5.98537e-05
-5.98294e-05
-5.98065e-05
-5.97847e-05
-5.97638e-05
-5.9743e-05
-5.97217e-05
-5.96988e-05
-5.96729e-05
-5.96427e-05
-5.96071e-05
-5.95656e-05
-5.95181e-05
-5.94658e-05
-5.94106e-05
-5.93546e-05
-5.92999e-05
-5.9248e-05
-5.92e-05
-5.91561e-05
-5.91163e-05
-5.90805e-05
-5.90485e-05
-5.90199e-05
-5.89945e-05
-5.8972e-05
-5.89515e-05
-5.89323e-05
-5.89134e-05
-5.88941e-05
-5.88735e-05
-5.88512e-05
-5.88272e-05
-5.88014e-05
-5.8774e-05
-5.87451e-05
-5.87147e-05
-5.86826e-05
-5.86486e-05
-5.86121e-05
-5.8573e-05
-5.8531e-05
-5.84864e-05
-5.84395e-05
-5.83913e-05
-5.83424e-05
-5.82938e-05
-5.8246e-05
-5.81994e-05
-5.81542e-05
-5.81103e-05
-5.80676e-05
-5.80259e-05
-5.79852e-05
-5.79453e-05
-5.79061e-05
-5.78677e-05
-5.78299e-05
-5.77927e-05
-5.77562e-05
-5.77202e-05
-5.76846e-05
-5.76495e-05
-5.76146e-05
-5.75798e-05
-5.75449e-05
-5.75096e-05
-5.74736e-05
-5.74368e-05
-5.7399e-05
-5.73603e-05
-5.7321e-05
-5.72811e-05
-5.72411e-05
-5.72011e-05
-5.71614e-05
-5.71221e-05
-5.70833e-05
-5.7045e-05
-5.70072e-05
-5.69698e-05
-5.69325e-05
-5.68952e-05
-5.68578e-05
-5.682e-05
-5.67818e-05
-5.67432e-05
-5.67042e-05
-5.66649e-05
-5.66254e-05
-5.65858e-05
-5.6546e-05
-5.6506e-05
-5.64659e-05
-5.64255e-05
-5.63848e-05
-5.63438e-05
-5.63026e-05
-5.6261e-05
-5.62192e-05
-5.61772e-05
-5.61352e-05
-5.60932e-05
-5.60513e-05
-5.60096e-05
-5.59682e-05
-5.5927e-05
-5.5886e-05
-5.58452e-05
-5.58044e-05
-5.57636e-05
-5.57227e-05
-5.56816e-05
-5.56402e-05
-5.55987e-05
-5.55569e-05
-5.55149e-05
-5.54728e-05
-5.54306e-05
-5.53882e-05
-5.53458e-05
-5.53033e-05
-5.52608e-05
-5.52182e-05
-5.51756e-05
-5.51329e-05
-5.50903e-05
-5.50476e-05
-5.50049e-05
-5.49621e-05
-5.49194e-05
-5.48766e-05
-5.48337e-05
-5.47909e-05
-5.4748e-05
-5.47051e-05
-5.46622e-05
-5.46193e-05
-5.45763e-05
-5.45334e-05
-5.44904e-05
-5.44475e-05
-5.44045e-05
-5.43615e-05
-5.43185e-05
-5.42756e-05
-5.42326e-05
-5.41896e-05
-5.41465e-05
-5.41035e-05
-5.40604e-05
-5.40173e-05
-5.39741e-05
-5.3931e-05
-5.38878e-05
-5.38446e-05
-5.38014e-05
-5.37581e-05
-5.37149e-05
-5.36716e-05
-5.36283e-05
-5.3585e-05
-5.35416e-05
-5.34981e-05
-5.34546e-05
-5.3411e-05
-5.33673e-05
-5.33237e-05
-5.328e-05
-5.32362e-05
-5.31924e-05
-5.31485e-05
-5.31044e-05
-5.30603e-05
-5.30161e-05
-5.29717e-05
-5.29272e-05
-5.28826e-05
-5.28379e-05
-5.2793e-05
-5.2748e-05
-5.27028e-05
-5.26574e-05
-5.26117e-05
-5.25659e-05
-5.25198e-05
-5.24736e-05
-5.2427e-05
-5.23801e-05
-5.23329e-05
-5.22853e-05
-5.22374e-05
-5.2189e-05
-5.21402e-05
-5.20908e-05
-5.20408e-05
-5.199e-05
-5.19384e-05
-5.1886e-05
-5.18326e-05
-5.17784e-05
-5.17234e-05
-5.16675e-05
-5.16108e-05
-5.15532e-05
-5.14947e-05
-5.14353e-05
-5.13751e-05
-5.1314e-05
-5.12521e-05
-5.11892e-05
-5.11255e-05
-5.10609e-05
-5.09955e-05
-5.09291e-05
-5.08619e-05
-5.07938e-05
-5.07248e-05
-5.06549e-05
-5.05841e-05
-5.05125e-05
-5.04399e-05
-5.03665e-05
-5.02922e-05
-5.0217e-05
-5.01409e-05
-5.00639e-05
-4.9986e-05
-4.99072e-05
-4.98276e-05
-4.9747e-05
-4.96655e-05
-4.9583e-05
-4.94997e-05
-4.94155e-05
-4.93304e-05
-4.92444e-05
-4.91575e-05
-4.90697e-05
-4.8981e-05
-4.88914e-05
-4.88009e-05
-4.87094e-05
-4.86171e-05
-4.85238e-05
-4.84296e-05
-4.83345e-05
-4.82385e-05
-4.81416e-05
-4.80438e-05
-4.7945e-05
-4.78454e-05
-4.77448e-05
-4.76433e-05
-4.75409e-05
-4.74375e-05
-4.73333e-05
-4.72281e-05
-4.7122e-05
-4.7015e-05
-4.69071e-05
-4.67982e-05
-4.66884e-05
-4.65777e-05
-4.64661e-05
-4.63535e-05
-4.624e-05
-4.61256e-05
-4.60102e-05
-4.58939e-05
-4.57767e-05
-4.56586e-05
-4.55395e-05
-4.54195e-05
-4.52986e-05
-4.51767e-05
-4.50539e-05
-4.49302e-05
-4.48055e-05
-4.46799e-05
-4.45534e-05
-4.44259e-05
-4.42975e-05
-4.41681e-05
-4.40378e-05
-4.39066e-05
-4.37744e-05
-4.36412e-05
-4.35072e-05
-4.33721e-05
-4.32362e-05
-4.30992e-05
-4.29614e-05
-4.28225e-05
-4.26828e-05
-4.25421e-05
-4.24004e-05
-4.22577e-05
-4.21142e-05
-4.19696e-05
-4.18241e-05
-4.16776e-05
-4.15301e-05
-4.13817e-05
-4.12324e-05
-4.1082e-05
-4.09308e-05
-4.07785e-05
-4.06253e-05
-4.04711e-05
-4.03159e-05
-4.01598e-05
-4.00027e-05
-3.98446e-05
-3.96855e-05
-3.95255e-05
-3.93645e-05
-3.92025e-05
-3.90396e-05
-3.88757e-05
-3.87108e-05
-3.85449e-05
-3.8378e-05
-3.82102e-05
-3.80414e-05
-3.78716e-05
-3.77009e-05
-3.75292e-05
-3.73564e-05
-3.71828e-05
-3.70081e-05
-3.68325e-05
-3.66558e-05
-3.64782e-05
-3.62996e-05
-3.612e-05
-3.59395e-05
-3.57579e-05
-3.55753e-05
-3.53918e-05
-3.52073e-05
-3.50218e-05
-3.48354e-05
-3.46479e-05
-3.44595e-05
-3.42701e-05
-3.40796e-05
-3.38882e-05
-3.36959e-05
-3.35025e-05
-3.33081e-05
-3.31127e-05
-3.29164e-05
-3.2719e-05
-3.25207e-05
-3.23214e-05
-3.21211e-05
-3.19198e-05
-3.17175e-05
-3.15142e-05
-3.13099e-05
-3.11046e-05
-3.08983e-05
-3.0691e-05
-3.04828e-05
-3.02735e-05
-3.00633e-05
-2.9852e-05
-2.96398e-05
-2.94265e-05
-2.92123e-05
-2.8997e-05
-2.87808e-05
-2.85635e-05
-2.83453e-05
-2.8126e-05
-2.79058e-05
-2.76845e-05
-2.74623e-05
-2.7239e-05
-2.70148e-05
-2.67895e-05
-2.65632e-05
-2.6336e-05
-2.61077e-05
-2.58785e-05
-2.56483e-05
-2.5417e-05
-2.51848e-05
-2.49517e-05
-2.47175e-05
-2.44824e-05
-2.42463e-05
-2.40092e-05
-2.37712e-05
-2.35322e-05
-2.32922e-05
-2.30512e-05
-2.28093e-05
-2.25664e-05
-2.23226e-05
-2.20777e-05
-2.18319e-05
-2.15852e-05
-2.13374e-05
-2.10887e-05
-2.0839e-05
-2.05883e-05
-2.03367e-05
-2.00841e-05
-1.98305e-05
-1.95759e-05
-1.93204e-05
-1.90639e-05
-1.88064e-05
-1.85479e-05
-1.82885e-05
-1.80281e-05
-1.77666e-05
-1.75042e-05
-1.72408e-05
-1.69764e-05
-1.6711e-05
-1.64447e-05
-1.61773e-05
-1.59089e-05
-1.56395e-05
-1.53691e-05
-1.50977e-05
-1.48253e-05
-1.45519e-05
-1.42775e-05
-1.4002e-05
-1.37256e-05
-1.34481e-05
-1.31695e-05
-1.289e-05
-1.26094e-05
-1.23278e-05
-1.20451e-05
-1.17614e-05
-1.14766e-05
-1.11908e-05
-1.09039e-05
-1.06159e-05
-1.03269e-05
-1.00368e-05
-9.74565e-06
-9.45343e-06
-9.16012e-06
-8.86572e-06
-8.57022e-06
-8.27362e-06
-7.97591e-06
-7.67709e-06
-7.37715e-06
-7.07608e-06
-6.77388e-06
-6.47054e-06
-6.16606e-06
-5.86043e-06
-5.55363e-06
-5.24567e-06
-4.93653e-06
-4.62621e-06
-4.3147e-06
-4.00199e-06
-3.68807e-06
-3.37294e-06
-3.05657e-06
-2.73897e-06
-2.42013e-06
-2.10002e-06
-1.77865e-06
-1.45599e-06
-1.13204e-06
-8.0678e-07
-4.80193e-07
-1.5227e-07
1.77001e-07
5.07631e-07
8.39633e-07
1.17303e-06
1.50783e-06
1.84407e-06
2.18177e-06
2.52096e-06
2.86167e-06
3.20393e-06
3.54777e-06
3.89323e-06
4.24033e-06
4.58909e-06
4.93903e-06
5.28927e-06
5.63878e-06
5.98736e-06
6.33509e-06
6.68266e-06
7.03104e-06
7.3802e-06
7.72854e-06
8.07689e-06
8.42496e-06
8.77425e-06
9.12409e-06
9.47439e-06
9.82463e-06
1.01721e-05
1.05216e-05
1.08735e-05
1.1228e-05
1.15849e-05
1.19425e-05
1.22959e-05
1.26344e-05
1.29776e-05
1.33094e-05
1.36384e-05
1.39695e-05
1.43054e-05
1.46478e-05
1.49979e-05
1.53561e-05
1.5722e-05
1.60931e-05
1.64581e-05
1.6773e-05
1.70214e-05
1.7251e-05
1.74745e-05
1.76958e-05
1.7916e-05
1.81357e-05
1.8355e-05
1.85737e-05
1.87918e-05
1.90093e-05
1.92265e-05
1.94433e-05
1.96593e-05
1.98729e-05
2.00832e-05
2.029e-05
2.04949e-05
2.06988e-05
2.0902e-05
2.11035e-05
2.13028e-05
2.14997e-05
2.16957e-05
2.1891e-05
2.20862e-05
2.2281e-05
2.24752e-05
2.26669e-05
2.28553e-05
2.30408e-05
2.32247e-05
2.34078e-05
2.35904e-05
2.37727e-05
2.39549e-05
2.4137e-05
2.43189e-05
2.45004e-05
2.46806e-05
2.48574e-05
2.5028e-05
2.5193e-05
2.53551e-05
2.55164e-05
2.56777e-05
2.58385e-05
2.59992e-05
2.61596e-05
2.63202e-05
2.6481e-05
2.6642e-05
2.68029e-05
2.69639e-05
2.71247e-05
2.7285e-05
2.74442e-05
2.76003e-05
2.77472e-05
2.7878e-05
2.80008e-05
2.81213e-05
2.82414e-05
2.83617e-05
2.84823e-05
2.86034e-05
2.8725e-05
2.88472e-05
2.89694e-05
2.90917e-05
2.92141e-05
2.9337e-05
2.94601e-05
2.95836e-05
2.97073e-05
2.98312e-05
2.99553e-05
3.00796e-05
3.02038e-05
3.0328e-05
3.0452e-05
3.05754e-05
3.06972e-05
3.08138e-05
3.09123e-05
3.09775e-05
3.10343e-05
3.10892e-05
3.11441e-05
3.11997e-05
3.12561e-05
3.13133e-05
3.13714e-05
3.14303e-05
3.14899e-05
3.15504e-05
3.16115e-05
3.16733e-05
3.17358e-05
3.1799e-05
3.18628e-05
3.1927e-05
3.19916e-05
3.20565e-05
3.2122e-05
3.2188e-05
3.22545e-05
3.23213e-05
3.23885e-05
3.2456e-05
3.25238e-05
3.25919e-05
3.26603e-05
3.2729e-05
3.27979e-05
3.2867e-05
3.29363e-05
3.30058e-05
3.30754e-05
3.31452e-05
3.32151e-05
3.32851e-05
3.33553e-05
3.34255e-05
3.34958e-05
3.35661e-05
3.36365e-05
3.37068e-05
3.37773e-05
3.38477e-05
3.39181e-05
3.39884e-05
3.40588e-05
3.41291e-05
3.41993e-05
3.42695e-05
3.43396e-05
3.44096e-05
3.44795e-05
3.45493e-05
3.4619e-05
3.46885e-05
3.4758e-05
3.48272e-05
3.48963e-05
3.49653e-05
3.50341e-05
3.51027e-05
3.51711e-05
3.52393e-05
3.53073e-05
3.53752e-05
3.54428e-05
3.55104e-05
3.55775e-05
3.56444e-05
3.57108e-05
3.57771e-05
3.58433e-05
3.59091e-05
3.59747e-05
3.604e-05
3.6105e-05
3.61697e-05
3.62342e-05
3.62983e-05
3.63621e-05
3.64256e-05
3.64887e-05
3.65516e-05
3.66141e-05
3.66763e-05
3.67381e-05
3.67996e-05
3.68607e-05
3.69214e-05
3.69817e-05
3.70417e-05
3.71013e-05
3.71606e-05
3.72194e-05
3.72779e-05
3.73359e-05
3.73936e-05
3.74508e-05
3.75077e-05
3.75641e-05
3.76201e-05
3.76756e-05
3.77307e-05
3.77854e-05
3.78396e-05
3.78934e-05
3.79467e-05
3.79996e-05
3.8052e-05
3.81039e-05
3.81553e-05
3.82063e-05
3.82568e-05
3.83067e-05
3.83562e-05
3.84052e-05
3.84536e-05
3.85015e-05
3.85489e-05
3.85958e-05
3.86421e-05
3.86879e-05
3.87331e-05
3.87777e-05
3.88218e-05
3.88652e-05
3.89081e-05
3.89504e-05
3.89921e-05
3.90332e-05
3.90736e-05
3.91134e-05
3.91525e-05
3.91909e-05
3.92287e-05
3.92658e-05
3.93022e-05
3.93378e-05
3.93727e-05
3.94069e-05
3.94403e-05
3.94729e-05
3.95046e-05
3.95356e-05
3.95657e-05
3.95949e-05
3.96232e-05
3.96507e-05
3.96771e-05
3.97026e-05
3.97271e-05
3.97505e-05
3.97729e-05
3.97942e-05
3.98144e-05
3.98334e-05
3.98512e-05
3.98677e-05
3.9883e-05
3.9897e-05
3.99096e-05
3.99208e-05
3.99305e-05
3.99387e-05
3.99454e-05
3.99506e-05
3.99541e-05
3.99559e-05
3.99559e-05
3.99542e-05
3.99508e-05
3.99454e-05
3.99382e-05
3.9929e-05
3.99179e-05
3.99049e-05
3.98899e-05
3.98729e-05
3.98541e-05
3.98333e-05
3.98108e-05
3.97865e-05
3.97608e-05
3.97337e-05
3.97056e-05
3.96764e-05
3.96468e-05
3.96172e-05
3.95885e-05
3.95618e-05
3.95376e-05
3.95167e-05
3.95005e-05
3.94909e-05
3.94906e-05
3.95019e-05
3.95272e-05
3.95686e-05
3.96238e-05
3.96735e-05
3.9629e-05
3.9328e-05
3.89314e-05
3.84688e-05
3.78972e-05
3.71389e-05
3.62237e-05
3.51674e-05
3.39665e-05
3.26452e-05
3.12382e-05
2.97578e-05
2.81132e-05
2.58851e-05
2.14307e-05
8.28174e-06
-3.28618e-07
0.269312
0.292133
0.210209
0.139093
0.0899021
0.0580961
0.0381857
0.0258491
0.0181521
0.0132525
0.0100385
0.00785127
0.0063036
0.00516689
0.00430411
0.00363089
0.00309352
0.00265656
0.00229574
0.00199394
0.00173868
0.00152069
0.00133293
0.00116998
0.0010276
0.000902431
0.000791766
0.000693408
0.000605554
0.000526719
0.000455676
0.000391428
0.000333237
0.000280448
0.000232381
0.000188474
0.000148494
0.000112629
8.18645e-05
5.56371e-05
3.17966e-05
9.96665e-06
-9.87195e-06
-2.79278e-05
-4.46835e-05
-6.09467e-05
-7.84686e-05
-9.70982e-05
-0.00011555
-0.000132011
-0.000146985
-0.000160626
-0.000173176
-0.000184807
-0.000195643
-0.000205777
-0.000215277
-0.000224197
-0.000232586
-0.00024048
-0.000247912
-0.000254905
-0.000261476
-0.000267629
-0.000273358
-0.000278632
-0.000283395
-0.000287553
-0.000290966
-0.00029346
-0.000294841
-0.000294944
-0.000293692
-0.000291141
-0.000287512
-0.000283156
-0.00027849
-0.000273905
-0.0002697
-0.000266045
-0.000262991
-0.000260501
-0.000258493
-0.000256877
-0.000255567
-0.000254496
-0.000253617
-0.000252894
-0.000252306
-0.000251836
-0.000251475
-0.000251216
-0.000251054
-0.000250985
-0.000251007
-0.000251115
-0.000251309
-0.000251585
-0.000251941
-0.000252376
-0.000252888
-0.000253474
-0.000254132
-0.000254857
-0.000255645
-0.000256484
-0.000257354
-0.000258221
-0.000259031
-0.000259711
-0.000260168
-0.000260311
-0.000260062
-0.000259389
-0.000258313
-0.000256918
-0.000255326
-0.00025367
-0.000252067
-0.000250599
-0.000249306
-0.000248194
-0.000247251
-0.000246455
-0.000245783
-0.000245216
-0.00024474
-0.000244344
-0.000244022
-0.000243769
-0.00024358
-0.000243453
-0.000243386
-0.000243375
-0.00024342
-0.000243518
-0.000243664
-0.000243854
-0.000244082
-0.000244343
-0.000244627
-0.000244923
-0.00024522
-0.000245498
-0.000245735
-0.000245909
-0.000245994
-0.000245972
-0.000245838
-0.0002456
-0.00024528
-0.00024491
-0.000244524
-0.000244149
-0.000243802
-0.000243488
-0.000243208
-0.000242957
-0.000242729
-0.000242522
-0.000242334
-0.000242164
-0.000242013
-0.000241881
-0.000241767
-0.000241673
-0.000241598
-0.000241543
-0.000241505
-0.000241486
-0.000241483
-0.000241495
-0.000241518
-0.000241547
-0.000241574
-0.00024159
-0.000241583
-0.000241541
-0.000241451
-0.000241302
-0.000241091
-0.00024082
-0.000240502
-0.000240153
-0.000239796
-0.000239451
-0.000239135
-0.00023886
-0.000238629
-0.000238446
-0.000238309
-0.000238217
-0.000238166
-0.000238153
-0.000238173
-0.000238217
-0.000238277
-0.000238343
-0.000238405
-0.000238457
-0.000238492
-0.000238508
-0.000238503
-0.000238479
-0.000238434
-0.000238369
-0.000238281
-0.000238168
-0.000238028
-0.000237857
-0.000237655
-0.000237426
-0.000237173
-0.000236906
-0.000236631
-0.000236357
-0.00023609
-0.000235836
-0.000235594
-0.000235367
-0.000235153
-0.000234953
-0.000234763
-0.000234585
-0.000234417
-0.000234257
-0.000234107
-0.000233964
-0.000233829
-0.000233699
-0.000233576
-0.000233457
-0.00023334
-0.000233224
-0.000233107
-0.000232985
-0.000232856
-0.00023272
-0.000232575
-0.000232421
-0.00023226
-0.000232095
-0.000231927
-0.00023176
-0.000231595
-0.000231434
-0.000231278
-0.000231127
-0.000230979
-0.000230835
-0.000230693
-0.000230551
-0.000230406
-0.000230259
-0.000230108
-0.000229952
-0.000229793
-0.00022963
-0.000229465
-0.000229298
-0.000229128
-0.000228956
-0.000228782
-0.000228604
-0.000228424
-0.00022824
-0.000228053
-0.000227862
-0.00022767
-0.000227475
-0.000227279
-0.000227084
-0.000226889
-0.000226696
-0.000226505
-0.000226315
-0.000226127
-0.000225941
-0.000225754
-0.000225567
-0.000225378
-0.000225188
-0.000224994
-0.000224799
-0.000224601
-0.000224401
-0.000224199
-0.000223995
-0.00022379
-0.000223584
-0.000223376
-0.000223167
-0.000222958
-0.000222747
-0.000222536
-0.000222324
-0.000222111
-0.000221897
-0.000221683
-0.000221468
-0.000221252
-0.000221036
-0.000220819
-0.000220601
-0.000220383
-0.000220164
-0.000219945
-0.000219725
-0.000219505
-0.000219284
-0.000219063
-0.000218841
-0.000218618
-0.000218395
-0.000218172
-0.000217948
-0.000217723
-0.000217498
-0.000217272
-0.000217046
-0.000216819
-0.000216592
-0.000216364
-0.000216136
-0.000215907
-0.000215677
-0.000215447
-0.000215217
-0.000214986
-0.000214754
-0.000214522
-0.000214289
-0.000214056
-0.000213822
-0.000213588
-0.000213353
-0.000213118
-0.000212882
-0.000212646
-0.000212409
-0.000212172
-0.000211934
-0.000211695
-0.000211456
-0.000211216
-0.000210976
-0.000210735
-0.000210493
-0.000210251
-0.000210009
-0.000209765
-0.000209521
-0.000209276
-0.000209031
-0.000208785
-0.000208538
-0.000208291
-0.000208043
-0.000207794
-0.000207544
-0.000207293
-0.000207042
-0.00020679
-0.000206536
-0.000206282
-0.000206026
-0.00020577
-0.000205511
-0.000205252
-0.000204991
-0.000204729
-0.000204465
-0.000204201
-0.000203935
-0.000203668
-0.000203399
-0.000203129
-0.000202858
-0.000202586
-0.000202312
-0.000202037
-0.000201761
-0.000201483
-0.000201204
-0.000200924
-0.000200643
-0.00020036
-0.000200075
-0.00019979
-0.000199503
-0.000199215
-0.000198926
-0.000198635
-0.000198344
-0.00019805
-0.000197756
-0.00019746
-0.000197163
-0.000196864
-0.000196565
-0.000196263
-0.000195961
-0.000195657
-0.000195352
-0.000195046
-0.000194738
-0.000194429
-0.000194119
-0.000193807
-0.000193494
-0.00019318
-0.000192865
-0.000192548
-0.00019223
-0.00019191
-0.000191589
-0.000191267
-0.000190944
-0.000190619
-0.000190293
-0.000189966
-0.000189638
-0.000189308
-0.000188977
-0.000188645
-0.000188311
-0.000187976
-0.00018764
-0.000187303
-0.000186964
-0.000186624
-0.000186282
-0.00018594
-0.000185596
-0.000185251
-0.000184904
-0.000184556
-0.000184207
-0.000183857
-0.000183505
-0.000183152
-0.000182798
-0.000182443
-0.000182087
-0.000181729
-0.00018137
-0.00018101
-0.000180648
-0.000180286
-0.000179922
-0.000179557
-0.000179191
-0.000178823
-0.000178454
-0.000178085
-0.000177714
-0.000177341
-0.000176968
-0.000176593
-0.000176218
-0.000175841
-0.000175463
-0.000175084
-0.000174704
-0.000174322
-0.00017394
-0.000173557
-0.000173172
-0.000172787
-0.0001724
-0.000172013
-0.000171624
-0.000171234
-0.000170844
-0.000170452
-0.00017006
-0.000169667
-0.000169273
-0.000168878
-0.000168483
-0.000168086
-0.000167689
-0.000167291
-0.000166892
-0.000166493
-0.000166092
-0.000165691
-0.000165289
-0.000164886
-0.000164483
-0.000164078
-0.000163673
-0.000163267
-0.00016286
-0.000162453
-0.000162045
-0.000161636
-0.000161226
-0.000160816
-0.000160405
-0.000159993
-0.00015958
-0.000159167
-0.000158753
-0.000158338
-0.000157922
-0.000157506
-0.000157088
-0.000156671
-0.000156252
-0.000155833
-0.000155413
-0.000154993
-0.000154571
-0.000154149
-0.000153727
-0.000153304
-0.00015288
-0.000152455
-0.000152029
-0.000151603
-0.000151177
-0.000150749
-0.000150321
-0.000149893
-0.000149463
-0.000149033
-0.000148603
-0.000148171
-0.00014774
-0.000147307
-0.000146874
-0.00014644
-0.000146006
-0.000145571
-0.000145135
-0.000144699
-0.000144262
-0.000143825
-0.000143386
-0.000142948
-0.000142508
-0.000142068
-0.000141628
-0.000141187
-0.000140745
-0.000140303
-0.00013986
-0.000139417
-0.000138973
-0.000138529
-0.000138084
-0.000137638
-0.000137192
-0.000136745
-0.000136298
-0.00013585
-0.000135402
-0.000134953
-0.000134503
-0.000134053
-0.000133603
-0.000133152
-0.0001327
-0.000132248
-0.000131795
-0.000131342
-0.000130888
-0.000130434
-0.000129979
-0.000129524
-0.000129068
-0.000128611
-0.000128154
-0.000127697
-0.000127239
-0.00012678
-0.000126321
-0.000125862
-0.000125402
-0.000124941
-0.000124481
-0.000124019
-0.000123557
-0.000123095
-0.000122632
-0.000122169
-0.000121705
-0.000121241
-0.000120777
-0.000120311
-0.000119846
-0.00011938
-0.000118913
-0.000118447
-0.000117979
-0.000117511
-0.000117043
-0.000116575
-0.000116106
-0.000115636
-0.000115166
-0.000114696
-0.000114225
-0.000113754
-0.000113283
-0.000112811
-0.000112339
-0.000111866
-0.000111393
-0.00011092
-0.000110446
-0.000109971
-0.000109497
-0.000109022
-0.000108546
-0.000108071
-0.000107595
-0.000107118
-0.000106642
-0.000106165
-0.000105687
-0.00010521
-0.000104732
-0.000104253
-0.000103774
-0.000103295
-0.000102816
-0.000102336
-0.000101856
-0.000101376
-0.000100895
-0.000100414
-9.99325e-05
-9.94509e-05
-9.8969e-05
-9.84868e-05
-9.80043e-05
-9.75215e-05
-9.70384e-05
-9.65551e-05
-9.60714e-05
-9.55875e-05
-9.51034e-05
-9.46189e-05
-9.41342e-05
-9.36492e-05
-9.31639e-05
-9.26784e-05
-9.21926e-05
-9.17067e-05
-9.12205e-05
-9.07341e-05
-9.02475e-05
-8.97606e-05
-8.92735e-05
-8.8786e-05
-8.82982e-05
-8.78101e-05
-8.73215e-05
-8.68324e-05
-8.63425e-05
-8.58519e-05
-8.53605e-05
-8.48686e-05
-8.43762e-05
-8.3883e-05
-8.33888e-05
-8.28931e-05
-8.23962e-05
-8.18987e-05
-8.13998e-05
-8.09005e-05
-8.04004e-05
-7.99e-05
-7.93988e-05
-7.88962e-05
-7.83937e-05
-7.78884e-05
-7.73812e-05
-7.68723e-05
-7.63624e-05
-7.58534e-05
-7.53488e-05
-7.48539e-05
-7.43537e-05
-7.38597e-05
-7.33676e-05
-7.28738e-05
-7.2376e-05
-7.18723e-05
-7.1362e-05
-7.08449e-05
-7.03221e-05
-6.97978e-05
-6.92838e-05
-6.88142e-05
-6.84011e-05
-6.801e-05
-6.76281e-05
-6.72505e-05
-6.68753e-05
-6.65015e-05
-6.61289e-05
-6.57574e-05
-6.53871e-05
-6.50177e-05
-6.4649e-05
-6.42807e-05
-6.39129e-05
-6.35457e-05
-6.31793e-05
-6.28137e-05
-6.24488e-05
-6.20845e-05
-6.17207e-05
-6.13577e-05
-6.09955e-05
-6.06346e-05
-6.02747e-05
-5.99157e-05
-5.95576e-05
-5.92003e-05
-5.88442e-05
-5.84897e-05
-5.81369e-05
-5.77858e-05
-5.7436e-05
-5.70874e-05
-5.67399e-05
-5.63932e-05
-5.60476e-05
-5.5703e-05
-5.53594e-05
-5.50171e-05
-5.46765e-05
-5.43388e-05
-5.40051e-05
-5.36752e-05
-5.33479e-05
-5.3022e-05
-5.2697e-05
-5.2373e-05
-5.20501e-05
-5.17279e-05
-5.14063e-05
-5.10852e-05
-5.07648e-05
-5.0445e-05
-5.01261e-05
-4.98082e-05
-4.94917e-05
-4.91775e-05
-4.88671e-05
-4.85645e-05
-4.82739e-05
-4.79903e-05
-4.77099e-05
-4.7431e-05
-4.71529e-05
-4.68753e-05
-4.65981e-05
-4.63211e-05
-4.60443e-05
-4.57681e-05
-4.54926e-05
-4.52175e-05
-4.49428e-05
-4.46684e-05
-4.43945e-05
-4.4121e-05
-4.3848e-05
-4.35755e-05
-4.33036e-05
-4.30325e-05
-4.27625e-05
-4.24938e-05
-4.22269e-05
-4.19634e-05
-4.17071e-05
-4.14686e-05
-4.12583e-05
-4.10584e-05
-4.08624e-05
-4.06679e-05
-4.04738e-05
-4.02798e-05
-4.00857e-05
-3.98915e-05
-3.96971e-05
-3.95026e-05
-3.9308e-05
-3.91133e-05
-3.89185e-05
-3.87236e-05
-3.85287e-05
-3.83337e-05
-3.8139e-05
-3.79445e-05
-3.77503e-05
-3.75562e-05
-3.73622e-05
-3.71683e-05
-3.69747e-05
-3.67814e-05
-3.65883e-05
-3.63955e-05
-3.6203e-05
-3.60108e-05
-3.5819e-05
-3.56276e-05
-3.54365e-05
-3.52458e-05
-3.50556e-05
-3.48658e-05
-3.46765e-05
-3.44876e-05
-3.42992e-05
-3.41113e-05
-3.3924e-05
-3.37373e-05
-3.35511e-05
-3.33655e-05
-3.31804e-05
-3.2996e-05
-3.28121e-05
-3.26289e-05
-3.24463e-05
-3.22643e-05
-3.2083e-05
-3.19023e-05
-3.17223e-05
-3.1543e-05
-3.13644e-05
-3.11865e-05
-3.10093e-05
-3.08329e-05
-3.06572e-05
-3.04823e-05
-3.03082e-05
-3.01348e-05
-2.99622e-05
-2.97904e-05
-2.96194e-05
-2.94492e-05
-2.92797e-05
-2.91111e-05
-2.89433e-05
-2.87763e-05
-2.86101e-05
-2.84449e-05
-2.82808e-05
-2.81176e-05
-2.79553e-05
-2.77938e-05
-2.76333e-05
-2.74736e-05
-2.73149e-05
-2.71572e-05
-2.70004e-05
-2.68445e-05
-2.66896e-05
-2.65357e-05
-2.63827e-05
-2.62307e-05
-2.60797e-05
-2.59297e-05
-2.57807e-05
-2.56328e-05
-2.54859e-05
-2.53403e-05
-2.51957e-05
-2.50522e-05
-2.49099e-05
-2.47686e-05
-2.46284e-05
-2.44894e-05
-2.43516e-05
-2.42149e-05
-2.40795e-05
-2.39453e-05
-2.38123e-05
-2.36806e-05
-2.35501e-05
-2.3421e-05
-2.32931e-05
-2.31666e-05
-2.30415e-05
-2.29177e-05
-2.27954e-05
-2.26746e-05
-2.25553e-05
-2.24375e-05
-2.23213e-05
-2.22067e-05
-2.20937e-05
-2.19824e-05
-2.18729e-05
-2.1765e-05
-2.1659e-05
-2.15549e-05
-2.14527e-05
-2.13525e-05
-2.12543e-05
-2.11582e-05
-2.10643e-05
-2.09727e-05
-2.08834e-05
-2.07965e-05
-2.07121e-05
-2.06303e-05
-2.05512e-05
-2.04749e-05
-2.04015e-05
-2.03312e-05
-2.0264e-05
-2.02001e-05
-2.01397e-05
-2.00828e-05
-2.00297e-05
-1.99806e-05
-1.99356e-05
-1.98948e-05
-1.98586e-05
-1.98271e-05
-1.98006e-05
-1.97793e-05
-1.97635e-05
-1.97534e-05
-1.97494e-05
-1.97518e-05
-1.97609e-05
-1.97771e-05
-1.98008e-05
-1.98323e-05
-1.98721e-05
-1.99207e-05
-1.99786e-05
-2.00463e-05
-2.01243e-05
-2.02132e-05
-2.03137e-05
-2.04265e-05
-2.05523e-05
-2.06918e-05
-2.08458e-05
-2.10153e-05
-2.12011e-05
-2.14043e-05
-2.16258e-05
-2.18669e-05
-2.21287e-05
-2.24125e-05
-2.27196e-05
-2.30515e-05
-2.34096e-05
-2.37955e-05
-2.4211e-05
-2.46576e-05
-2.51372e-05
-2.56517e-05
-2.62031e-05
-2.67935e-05
-2.74253e-05
-2.8101e-05
-2.88233e-05
-2.9595e-05
-3.04192e-05
-3.12992e-05
-3.22383e-05
-3.32397e-05
-3.43066e-05
-3.54425e-05
-3.66511e-05
-3.7937e-05
-3.93038e-05
-4.07546e-05
-4.22919e-05
-4.39187e-05
-4.56378e-05
-4.74533e-05
-4.93734e-05
-5.14222e-05
-5.36727e-05
-5.6234e-05
-5.89783e-05
-6.18451e-05
-6.4801e-05
-6.77985e-05
-7.06684e-05
-7.3152e-05
-7.48706e-05
-7.52668e-05
-7.35888e-05
-6.89893e-05
-6.09192e-05
-4.9826e-05
-3.84704e-05
-3.64658e-05
-5.79254e-05
0.219244
0.317591
0.2811
0.215912
0.15649
0.110882
0.078464
0.0562542
0.0412353
0.0310427
0.0240163
0.0190561
0.0154558
0.0127674
0.0107062
0.00908835
0.00779273
0.00673723
0.0058647
0.00513433
0.0045163
0.00398834
0.00353355
0.00313889
0.00279414
0.00249123
0.00222366
0.00198616
0.00177441
0.00158484
0.00141449
0.00126083
0.00112171
0.000995381
0.000880202
0.000774915
0.000678645
0.000590814
0.000510292
0.000436467
0.000369405
0.000308063
0.000251554
0.00019905
0.000149981
0.00010337
5.75016e-05
1.2996e-05
-2.74422e-05
-6.49101e-05
-0.000100185
-0.00013267
-0.000162885
-0.000191114
-0.000217558
-0.000242378
-0.000265706
-0.000287653
-0.000308315
-0.000327771
-0.000346085
-0.000363305
-0.00037946
-0.000394555
-0.000408557
-0.000421388
-0.000432906
-0.000442885
-0.000451015
-0.000456908
-0.000460156
-0.000460421
-0.000457555
-0.00045171
-0.000443377
-0.000433333
-0.000422497
-0.000411746
-0.000401759
-0.00039295
-0.000385469
-0.000379275
-0.000374215
-0.000370102
-0.000366754
-0.000364023
-0.000361793
-0.000359982
-0.000358531
-0.000357401
-0.000356564
-0.000355999
-0.000355691
-0.00035563
-0.000355805
-0.000356209
-0.000356833
-0.000357671
-0.000358716
-0.00035996
-0.000361397
-0.000363019
-0.000364815
-0.000366773
-0.000368872
-0.00037108
-0.000373344
-0.00037558
-0.00037766
-0.000379416
-0.000380645
-0.000381143
-0.000380746
-0.000379383
-0.000377107
-0.000374095
-0.000370615
-0.000366963
-0.000363399
-0.000360114
-0.00035721
-0.000354716
-0.000352615
-0.000350865
-0.00034942
-0.00034824
-0.000347292
-0.000346552
-0.000346002
-0.000345628
-0.000345421
-0.000345373
-0.000345477
-0.000345726
-0.000346116
-0.000346636
-0.000347279
-0.000348032
-0.000348881
-0.000349808
-0.000350792
-0.000351807
-0.000352818
-0.000353784
-0.000354654
-0.000355374
-0.000355891
-0.000356167
-0.000356189
-0.000355974
-0.000355572
-0.000355053
-0.000354489
-0.000353941
-0.000353449
-0.00035303
-0.000352685
-0.000352407
-0.000352188
-0.000352021
-0.000351903
-0.000351833
-0.000351811
-0.000351837
-0.000351912
-0.000352037
-0.00035221
-0.000352431
-0.000352699
-0.00035301
-0.000353362
-0.000353749
-0.000354161
-0.000354586
-0.000355006
-0.000355399
-0.000355739
-0.000355998
-0.000356146
-0.000356163
-0.00035604
-0.000355784
-0.000355421
-0.000354991
-0.000354541
-0.000354119
-0.000353763
-0.0003535
-0.000353343
-0.000353299
-0.000353366
-0.000353542
-0.000353819
-0.000354189
-0.000354637
-0.000355146
-0.000355695
-0.000356261
-0.000356821
-0.000357358
-0.000357858
-0.000358315
-0.000358726
-0.000359089
-0.000359405
-0.000359671
-0.000359884
-0.000360037
-0.000360125
-0.000360144
-0.000360092
-0.000359976
-0.000359807
-0.000359602
-0.000359381
-0.000359161
-0.000358958
-0.000358782
-0.000358638
-0.000358529
-0.000358453
-0.000358409
-0.000358395
-0.000358409
-0.000358449
-0.000358514
-0.000358602
-0.00035871
-0.000358838
-0.000358984
-0.000359144
-0.000359317
-0.000359496
-0.000359679
-0.00035986
-0.000360032
-0.000360191
-0.000360333
-0.000360457
-0.000360563
-0.000360654
-0.000360736
-0.000360814
-0.000360894
-0.000360981
-0.000361077
-0.000361186
-0.000361306
-0.000361438
-0.000361578
-0.000361723
-0.00036187
-0.000362014
-0.000362151
-0.000362282
-0.000362403
-0.000362517
-0.000362625
-0.000362727
-0.000362824
-0.000362918
-0.000363007
-0.000363091
-0.00036317
-0.000363243
-0.000363308
-0.000363368
-0.000363421
-0.000363469
-0.000363515
-0.000363559
-0.000363605
-0.000363654
-0.000363707
-0.000363765
-0.000363829
-0.000363898
-0.000363971
-0.000364045
-0.000364119
-0.000364191
-0.00036426
-0.000364324
-0.000364383
-0.000364438
-0.000364489
-0.000364536
-0.000364581
-0.000364623
-0.000364662
-0.0003647
-0.000364737
-0.000364772
-0.000364807
-0.00036484
-0.000364873
-0.000364904
-0.000364936
-0.000364966
-0.000364996
-0.000365025
-0.000365054
-0.000365083