/*--------------------------------*- C++ -*----------------------------------*\
| =========                 |                                                 |
| \\      /  F ield         | OpenFOAM: The Open Source CFD Toolbox           |
|  \\    /   O peration     | Version:  2512                                  |
|   \\  /    A nd           | Website:  www.openfoam.com                      |
|    \\/     M anipulation  |                                                 |
\*---------------------------------------------------------------------------*/
FoamFile
{
    version     2.0;
    format      ascii;
    arch        "LSB;label=32;scalar=64";
    class       volVectorField;
    location    "1e-05";
    object      B;
}
// * * * * * * * * * * * * * * * * * * * * * * * * * * * * * * * * * * * * * //

dimensions      [1 0 -2 0 0 -1 0];

internalField   nonuniform List<vector> 
100000
(
(0.00701806 20.0012 0)
(0.0110231 19.998 0)
(0.00907741 20.0013 0)
(0.00970516 19.9995 0)
(0.00959029 20.0001 0)
(0.00958538 20 0)
(0.00957665 20 0)
(0.00956792 20 0)
(0.00955917 20 0)
(0.00955043 20 0)
(0.00954168 20 0)
(0.00953294 20 0)
(0.00952419 20 0)
(0.00951544 20 0)
(0.00950669 20 0)
(0.00949795 20 0)
(0.0094892 20 0)
(0.00948045 20 0)
(0.0094717 20 0)
(0.00946295 20 0)
(0.0094542 20 0)
(0.00944545 20 0)
(0.0094367 20 0)
(0.00942794 20 0)
(0.00941919 20 0)
(0.00941044 20 0)
(0.00940169 20 0)
(0.00939294 20 0)
(0.00938419 20 0)
(0.00937544 20 0)
(0.00936669 20 0)
(0.00935793 20 0)
(0.00934918 20 0)
(0.00934043 20 0)
(0.00933168 20 0)
(0.00932292 20 0)
(0.00931417 20 0)
(0.00930542 20 0)
(0.00929667 20 0)
(0.00928791 20 0)
(0.00927916 20 0)
(0.00927041 20 0)
(0.00926165 20 0)
(0.0092529 20 0)
(0.00924415 20 0)
(0.00923539 20 0)
(0.00922664 20 0)
(0.00921788 20 0)
(0.00920913 20 0)
(0.00920038 20 0)
(0.00919162 20 0)
(0.00918287 20 0)
(0.00917411 20 0)
(0.00916536 20 0)
(0.0091566 20 0)
(0.00914785 20 0)
(0.00913909 20 0)
(0.00913033 20 0)
(0.00912158 20 0)
(0.00911282 20 0)
(0.00910407 20 0)
(0.00909531 20 0)
(0.00908655 20 0)
(0.0090778 20 0)
(0.00906904 20 0)
(0.00906028 20 0)
(0.00905152 20 0)
(0.00904277 20 0)
(0.00903401 20 0)
(0.00902525 20 0)
(0.00901649 20 0)
(0.00900773 20 0)
(0.00899897 20 0)
(0.00899022 20 0)
(0.00898146 20 0)
(0.0089727 20 0)
(0.00896394 20 0)
(0.00895518 20 0)
(0.00894642 20 0)
(0.00893766 20 0)
(0.0089289 20 0)
(0.00892014 20 0)
(0.00891138 20 0)
(0.00890261 20 0)
(0.00889385 20 0)
(0.00888509 20 0)
(0.00887633 20 0)
(0.00886757 20 0)
(0.00885881 20 0)
(0.00885004 20 0)
(0.00884128 20 0)
(0.00883252 20 0)
(0.00882375 20 0)
(0.00881499 20 0)
(0.00880623 20 0)
(0.00879746 20 0)
(0.0087887 20 0)
(0.00877993 20 0)
(0.00877117 20 0)
(0.0087624 20 0)
(0.00875364 20 0)
(0.00874487 20 0)
(0.00873611 20 0)
(0.00872734 20 0)
(0.00871857 20 0)
(0.00870981 20 0)
(0.00870104 20 0)
(0.00869227 20 0)
(0.0086835 20 0)
(0.00867474 20 0)
(0.00866597 20 0)
(0.0086572 20 0)
(0.00864843 20 0)
(0.00863966 20 0)
(0.00863089 20 0)
(0.00862212 20 0)
(0.00861335 20 0)
(0.00860458 20 0)
(0.00859581 20 0)
(0.00858704 20 0)
(0.00857827 20 0)
(0.0085695 20 0)
(0.00856073 20 0)
(0.00855195 20 0)
(0.00854318 20 0)
(0.00853441 20 0)
(0.00852564 20 0)
(0.00851686 20 0)
(0.00850809 20 0)
(0.00849931 20 0)
(0.00849054 20 0)
(0.00848176 20 0)
(0.00847299 20 0)
(0.00846421 20 0)
(0.00845544 20 0)
(0.00844666 20 0)
(0.00843788 20 0)
(0.00842911 20 0)
(0.00842033 20 0)
(0.00841155 20 0)
(0.00840277 20 0)
(0.008394 20 0)
(0.00838522 20 0)
(0.00837644 20 0)
(0.00836766 20 0)
(0.00835888 20 0)
(0.0083501 20 0)
(0.00834132 20 0)
(0.00833254 20 0)
(0.00832376 20 0)
(0.00831497 20 0)
(0.00830619 20 0)
(0.00829741 20 0)
(0.00828863 20 0)
(0.00827984 20 0)
(0.00827106 20 0)
(0.00826227 20 0)
(0.00825349 20 0)
(0.0082447 20 0)
(0.00823592 20 0)
(0.00822713 20 0)
(0.00821835 20 0)
(0.00820956 20 0)
(0.00820077 20 0)
(0.00819199 20 0)
(0.0081832 20 0)
(0.00817441 20 0)
(0.00816562 20 0)
(0.00815683 20 0)
(0.00814804 20 0)
(0.00813925 20 0)
(0.00813046 20 0)
(0.00812167 20 0)
(0.00811288 20 0)
(0.00810409 20 0)
(0.00809529 20 0)
(0.0080865 20 0)
(0.00807771 20 0)
(0.00806891 20 0)
(0.00806012 20 0)
(0.00805133 20 0)
(0.00804253 20 0)
(0.00803373 20 0)
(0.00802494 20 0)
(0.00801614 20 0)
(0.00800734 20 0)
(0.00799855 20 0)
(0.00798975 20 0)
(0.00798095 20 0)
(0.00797215 20 0)
(0.00796335 20 0)
(0.00795455 20 0)
(0.00794575 20 0)
(0.00793695 20 0)
(0.00792815 20 0)
(0.00791935 20 0)
(0.00791054 20 0)
(0.00790174 20 0)
(0.00789294 20 0)
(0.00788413 20 0)
(0.00787533 20 0)
(0.00786652 20 0)
(0.00785772 20 0)
(0.00784891 20 0)
(0.0078401 20 0)
(0.0078313 20 0)
(0.00782249 20 0)
(0.00781368 20 0)
(0.00780487 20 0)
(0.00779606 20 0)
(0.00778725 20 0)
(0.00777844 20 0)
(0.00776963 20 0)
(0.00776082 20 0)
(0.00775201 20 0)
(0.00774319 20 0)
(0.00773438 20 0)
(0.00772557 20 0)
(0.00771675 20 0)
(0.00770794 20 0)
(0.00769912 20 0)
(0.0076903 20 0)
(0.00768149 20 0)
(0.00767267 20 0)
(0.00766385 20 0)
(0.00765503 20 0)
(0.00764621 20 0)
(0.00763739 20 0)
(0.00762857 20 0)
(0.00761975 20 0)
(0.00761093 20 0)
(0.00760211 20 0)
(0.00759328 20 0)
(0.00758446 20 0)
(0.00757564 20 0)
(0.00756681 20 0)
(0.00755798 20 0)
(0.00754916 20 0)
(0.00754033 20 0)
(0.0075315 20 0)
(0.00752268 20 0)
(0.00751385 20 0)
(0.00750502 20 0)
(0.00749619 20 0)
(0.00748736 20 0)
(0.00747852 20 0)
(0.00746969 20 0)
(0.00746086 20 0)
(0.00745203 20 0)
(0.00744319 20 0)
(0.00743436 20 0)
(0.00742552 20 0)
(0.00741668 20 0)
(0.00740785 20 0)
(0.00739901 20 0)
(0.00739017 20 0)
(0.00738133 20 0)
(0.00737249 20 0)
(0.00736365 20 0)
(0.00735481 20 0)
(0.00734597 20 0)
(0.00733713 20 0)
(0.00732828 20 0)
(0.00731944 20 0)
(0.00731059 20 0)
(0.00730175 20 0)
(0.0072929 20 0)
(0.00728405 20 0)
(0.00727521 20 0)
(0.00726636 20 0)
(0.00725751 20 0)
(0.00724866 20 0)
(0.00723981 20 0)
(0.00723096 20 0)
(0.0072221 20 0)
(0.00721325 20 0)
(0.0072044 20 0)
(0.00719554 20 0)
(0.00718668 20 0)
(0.00717783 20 0)
(0.00716897 20 0)
(0.00716011 20 0)
(0.00715125 20 0)
(0.0071424 20 0)
(0.00713353 20 0)
(0.00712467 20 0)
(0.00711581 20 0)
(0.00710695 20 0)
(0.00709808 20 0)
(0.00708922 20 0)
(0.00708035 20 0)
(0.00707149 20 0)
(0.00706262 20 0)
(0.00705375 20 0)
(0.00704489 20 0)
(0.00703602 20 0)
(0.00702715 20 0)
(0.00701827 20 0)
(0.0070094 20 0)
(0.00700053 20 0)
(0.00699166 20 0)
(0.00698278 20 0)
(0.0069739 20 0)
(0.00696503 20 0)
(0.00695615 20 0)
(0.00694727 20 0)
(0.00693839 20 0)
(0.00692951 20 0)
(0.00692063 20 0)
(0.00691175 20 0)
(0.00690287 20 0)
(0.00689398 20 0)
(0.0068851 20 0)
(0.00687621 20 0)
(0.00686733 20 0)
(0.00685844 20 0)
(0.00684955 20 0)
(0.00684066 20 0)
(0.00683177 20 0)
(0.00682288 20 0)
(0.00681399 20 0)
(0.0068051 20 0)
(0.0067962 20 0)
(0.00678731 20 0)
(0.00677841 20 0)
(0.00676951 20 0)
(0.00676062 20 0)
(0.00675172 20 0)
(0.00674282 20 0)
(0.00673392 20 0)
(0.00672502 20 0)
(0.00671611 20 0)
(0.00670721 20 0)
(0.0066983 20 0)
(0.0066894 20 0)
(0.00668049 20 0)
(0.00667158 20 0)
(0.00666267 20 0)
(0.00665376 20 0)
(0.00664485 20 0)
(0.00663594 20 0)
(0.00662703 20 0)
(0.00661812 20 0)
(0.0066092 20 0)
(0.00660028 20 0)
(0.00659137 20 0)
(0.00658245 20 0)
(0.00657353 20 0)
(0.00656461 20 0)
(0.00655569 20 0)
(0.00654677 20 0)
(0.00653784 20 0)
(0.00652892 20 0)
(0.00651999 20 0)
(0.00651106 20 0)
(0.00650214 20 0)
(0.00649321 20 0)
(0.00648428 20 0)
(0.00647535 20 0)
(0.00646641 20 0)
(0.00645748 20 0)
(0.00644855 20 0)
(0.00643961 20 0)
(0.00643067 20 0)
(0.00642173 20 0)
(0.0064128 20 0)
(0.00640386 20 0)
(0.00639491 20 0)
(0.00638597 20 0)
(0.00637703 20 0)
(0.00636808 20 0)
(0.00635914 20 0)
(0.00635019 20 0)
(0.00634124 20 0)
(0.00633229 20 0)
(0.00632334 20 0)
(0.00631439 20 0)
(0.00630544 20 0)
(0.00629648 20 0)
(0.00628753 20 0)
(0.00627857 20 0)
(0.00626961 20 0)
(0.00626065 20 0)
(0.00625169 20 0)
(0.00624273 20 0)
(0.00623377 20 0)
(0.0062248 20 0)
(0.00621584 20 0)
(0.00620687 20 0)
(0.0061979 20 0)
(0.00618893 20 0)
(0.00617996 20 0)
(0.00617099 20 0)
(0.00616202 20 0)
(0.00615305 20 0)
(0.00614407 20 0)
(0.00613509 20 0)
(0.00612612 20 0)
(0.00611714 20 0)
(0.00610816 20 0)
(0.00609918 20 0)
(0.00609019 20 0)
(0.00608121 20 0)
(0.00607222 20 0)
(0.00606324 20 0)
(0.00605425 20 0)
(0.00604526 20 0)
(0.00603627 20 0)
(0.00602727 20 0)
(0.00601828 20 0)
(0.00600929 20 0)
(0.00600029 20 0)
(0.00599129 20 0)
(0.00598229 20 0)
(0.00597329 20 0)
(0.00596429 20 0)
(0.00595529 20 0)
(0.00594628 20 0)
(0.00593728 20 0)
(0.00592827 20 0)
(0.00591926 20 0)
(0.00591025 20 0)
(0.00590124 20 0)
(0.00589223 20 0)
(0.00588321 20 0)
(0.0058742 20 0)
(0.00586518 20 0)
(0.00585616 20 0)
(0.00584714 20 0)
(0.00583812 20 0)
(0.0058291 20 0)
(0.00582008 20 0)
(0.00581105 20 0)
(0.00580202 20 0)
(0.005793 20 0)
(0.00578397 20 0)
(0.00577493 20 0)
(0.0057659 20 0)
(0.00575687 20 0)
(0.00574783 20 0)
(0.0057388 20 0)
(0.00572976 20 0)
(0.00572072 20 0)
(0.00571168 20 0)
(0.00570263 20 0)
(0.00569359 20 0)
(0.00568454 20 0)
(0.00567549 20 0)
(0.00566645 20 0)
(0.0056574 20 0)
(0.00564834 20 0)
(0.00563929 20 0)
(0.00563023 20 0)
(0.00562118 20 0)
(0.00561212 20 0)
(0.00560306 20 0)
(0.005594 20 0)
(0.00558494 20 0)
(0.00557587 20 0)
(0.00556681 20 0)
(0.00555774 20 0)
(0.00554867 20 0)
(0.0055396 20 0)
(0.00553053 20 0)
(0.00552145 20 0)
(0.00551238 20 0)
(0.0055033 20 0)
(0.00549422 20 0)
(0.00548514 20 0)
(0.00547606 20 0)
(0.00546698 20 0)
(0.00545789 20 0)
(0.00544881 20 0)
(0.00543972 20 0)
(0.00543063 20 0)
(0.00542154 20 0)
(0.00541245 20 0)
(0.00540335 20 0)
(0.00539426 20 0)
(0.00538516 20 0)
(0.00537606 20 0)
(0.00536696 20 0)
(0.00535785 20 0)
(0.00534875 20 0)
(0.00533964 20 0)
(0.00533054 20 0)
(0.00532143 20 0)
(0.00531232 20 0)
(0.0053032 20 0)
(0.00529409 20 0)
(0.00528497 20 0)
(0.00527586 20 0)
(0.00526674 20 0)
(0.00525762 20 0)
(0.00524849 20 0)
(0.00523937 20 0)
(0.00523024 20 0)
(0.00522111 20 0)
(0.00521198 20 0)
(0.00520285 20 0)
(0.00519372 20 0)
(0.00518459 20 0)
(0.00517545 20 0)
(0.00516631 20 0)
(0.00515717 20 0)
(0.00514803 20 0)
(0.00513889 20 0)
(0.00512974 20 0)
(0.00512059 20 0)
(0.00511144 20 0)
(0.00510229 20 0)
(0.00509314 20 0)
(0.00508399 20 0)
(0.00507483 20 0)
(0.00506567 20 0)
(0.00505652 20 0)
(0.00504735 20 0)
(0.00503819 20 0)
(0.00502903 20 0)
(0.00501986 20 0)
(0.00501069 20 0)
(0.00500152 20 0)
(0.00499235 20 0)
(0.00498318 20 0)
(0.004974 20 0)
(0.00496482 20 0)
(0.00495564 20 0)
(0.00494646 20 0)
(0.00493728 20 0)
(0.0049281 20 0)
(0.00491891 20 0)
(0.00490972 20 0)
(0.00490053 20 0)
(0.00489134 20 0)
(0.00488215 20 0)
(0.00487295 20 0)
(0.00486375 20 0)
(0.00485455 20 0)
(0.00484535 20 0)
(0.00483615 20 0)
(0.00482694 20 0)
(0.00481774 20 0)
(0.00480853 20 0)
(0.00479932 20 0)
(0.00479011 20 0)
(0.00478089 20 0)
(0.00477168 20 0)
(0.00476246 20 0)
(0.00475324 20 0)
(0.00474402 20 0)
(0.00473479 20 0)
(0.00472557 20 0)
(0.00471634 20 0)
(0.00470711 20 0)
(0.00469788 20 0)
(0.00468865 20 0)
(0.00467941 20 0)
(0.00467017 20 0)
(0.00466093 20 0)
(0.00465169 20 0)
(0.00464245 20 0)
(0.00463321 20 0)
(0.00462396 20 0)
(0.00461471 20 0)
(0.00460546 20 0)
(0.00459621 20 0)
(0.00458695 20 0)
(0.0045777 20 0)
(0.00456844 20 0)
(0.00455918 20 0)
(0.00454992 20 0)
(0.00454065 20 0)
(0.00453139 20 0)
(0.00452212 20 0)
(0.00451285 20 0)
(0.00450358 20 0)
(0.0044943 20 0)
(0.00448503 20 0)
(0.00447575 20 0)
(0.00446647 20 0)
(0.00445719 20 0)
(0.0044479 20 0)
(0.00443862 20 0)
(0.00442933 20 0)
(0.00442004 20 0)
(0.00441075 20 0)
(0.00440145 20 0)
(0.00439216 20 0)
(0.00438286 20 0)
(0.00437356 20 0)
(0.00436426 20 0)
(0.00435495 20 0)
(0.00434565 20 0)
(0.00433634 20 0)
(0.00432703 20 0)
(0.00431772 20 0)
(0.0043084 20 0)
(0.00429909 20 0)
(0.00428977 20 0)
(0.00428045 20 0)
(0.00427113 20 0)
(0.0042618 20 0)
(0.00425248 20 0)
(0.00424315 20 0)
(0.00423382 20 0)
(0.00422449 20 0)
(0.00421515 20 0)
(0.00420582 20 0)
(0.00419648 20 0)
(0.00418714 20 0)
(0.0041778 20 0)
(0.00416845 20 0)
(0.00415911 20 0)
(0.00414976 20 0)
(0.00414041 20 0)
(0.00413105 20 0)
(0.0041217 20 0)
(0.00411234 20 0)
(0.00410298 20 0)
(0.00409362 20 0)
(0.00408426 20 0)
(0.0040749 20 0)
(0.00406553 20 0)
(0.00405616 20 0)
(0.00404679 20 0)
(0.00403742 20 0)
(0.00402804 20 0)
(0.00401867 20 0)
(0.00400929 20 0)
(0.0039999 20 0)
(0.00399052 20 0)
(0.00398114 20 0)
(0.00397175 20 0)
(0.00396236 20 0)
(0.00395297 20 0)
(0.00394357 20 0)
(0.00393418 20 0)
(0.00392478 20 0)
(0.00391538 20 0)
(0.00390598 20 0)
(0.00389658 20 0)
(0.00388717 20 0)
(0.00387776 20 0)
(0.00386835 20 0)
(0.00385894 20 0)
(0.00384953 20 0)
(0.00384011 20 0)
(0.00383069 20 0)
(0.00382127 20 0)
(0.00381185 20 0)
(0.00380242 20 0)
(0.003793 20 0)
(0.00378357 20 0)
(0.00377414 20 0)
(0.0037647 20 0)
(0.00375527 20 0)
(0.00374583 20 0)
(0.00373639 20 0)
(0.00372695 20 0)
(0.00371751 20 0)
(0.00370806 20 0)
(0.00369862 20 0)
(0.00368917 20 0)
(0.00367972 20 0)
(0.00367026 20 0)
(0.00366081 20 0)
(0.00365135 20 0)
(0.00364189 20 0)
(0.00363243 20 0)
(0.00362296 20 0)
(0.0036135 20 0)
(0.00360403 20 0)
(0.00359456 20 0)
(0.00358509 20 0)
(0.00357561 20 0)
(0.00356614 20 0)
(0.00355666 20 0)
(0.00354718 20 0)
(0.0035377 20 0)
(0.00352821 20 0)
(0.00351872 20 0)
(0.00350924 20 0)
(0.00349975 20 0)
(0.00349025 20 0)
(0.00348076 20 0)
(0.00347126 20 0)
(0.00346176 20 0)
(0.00345226 20 0)
(0.00344276 20 0)
(0.00343325 20 0)
(0.00342375 20 0)
(0.00341424 20 0)
(0.00340473 20 0)
(0.00339521 20 0)
(0.0033857 20 0)
(0.00337618 20 0)
(0.00336666 20 0)
(0.00335714 20 0)
(0.00334762 20 0)
(0.00333809 20 0)
(0.00332856 20 0)
(0.00331903 20 0)
(0.0033095 20 0)
(0.00329997 20 0)
(0.00329043 20 0)
(0.0032809 20 0)
(0.00327136 20 0)
(0.00326181 20 0)
(0.00325227 20 0)
(0.00324273 20 0)
(0.00323318 20 0)
(0.00322363 20 0)
(0.00321408 20 0)
(0.00320452 20 0)
(0.00319497 20 0)
(0.00318541 20 0)
(0.00317585 20 0)
(0.00316629 20 0)
(0.00315672 20 0)
(0.00314716 20 0)
(0.00313759 20 0)
(0.00312802 20 0)
(0.00311845 20 0)
(0.00310888 20 0)
(0.0030993 20 0)
(0.00308972 20 0)
(0.00308014 20 0)
(0.00307056 20 0)
(0.00306098 20 0)
(0.00305139 20 0)
(0.00304181 20 0)
(0.00303222 20 0)
(0.00302263 20 0)
(0.00301303 20 0)
(0.00300344 20 0)
(0.00299384 20 0)
(0.00298424 20 0)
(0.00297464 20 0)
(0.00296504 20 0)
(0.00295543 20 0)
(0.00294583 20 0)
(0.00293622 20 0)
(0.00292661 20 0)
(0.00291699 20 0)
(0.00290738 20 0)
(0.00289776 20 0)
(0.00288815 20 0)
(0.00287853 20 0)
(0.0028689 20 0)
(0.00285928 20 0)
(0.00284965 20 0)
(0.00284003 20 0)
(0.0028304 20 0)
(0.00282077 20 0)
(0.00281113 20 0)
(0.0028015 20 0)
(0.00279186 20 0)
(0.00278222 20 0)
(0.00277258 20 0)
(0.00276294 20 0)
(0.00275329 20 0)
(0.00274365 20 0)
(0.002734 20 0)
(0.00272435 20 0)
(0.0027147 20 0)
(0.00270505 20 0)
(0.00269539 20 0)
(0.00268573 20 0)
(0.00267607 20 0)
(0.00266641 20 0)
(0.00265675 20 0)
(0.00264709 20 0)
(0.00263742 20 0)
(0.00262775 20 0)
(0.00261808 20 0)
(0.00260841 20 0)
(0.00259874 20 0)
(0.00258906 20 0)
(0.00257939 20 0)
(0.00256971 20 0)
(0.00256003 20 0)
(0.00255035 20 0)
(0.00254066 20 0)
(0.00253098 20 0)
(0.00252129 20 0)
(0.0025116 20 0)
(0.00250191 20 0)
(0.00249222 20 0)
(0.00248252 20 0)
(0.00247283 20 0)
(0.00246313 20 0)
(0.00245343 20 0)
(0.00244373 20 0)
(0.00243403 20 0)
(0.00242432 20 0)
(0.00241462 20 0)
(0.00240491 20 0)
(0.0023952 20 0)
(0.00238549 20 0)
(0.00237578 20 0)
(0.00236606 20 0)
(0.00235635 20 0)
(0.00234663 20 0)
(0.00233691 20 0)
(0.00232719 20 0)
(0.00231747 20 0)
(0.00230774 20 0)
(0.00229802 20 0)
(0.00228829 20 0)
(0.00227856 20 0)
(0.00226883 20 0)
(0.0022591 20 0)
(0.00224937 20 0)
(0.00223963 20 0)
(0.0022299 20 0)
(0.00222016 20 0)
(0.00221042 20 0)
(0.00220068 20 0)
(0.00219094 20 0)
(0.00218119 20 0)
(0.00217145 20 0)
(0.0021617 20 0)
(0.00215195 20 0)
(0.0021422 20 0)
(0.00213245 20 0)
(0.0021227 20 0)
(0.00211294 20 0)
(0.00210319 20 0)
(0.00209343 20 0)
(0.00208367 20 0)
(0.00207391 20 0)
(0.00206415 20 0)
(0.00205439 20 0)
(0.00204462 20 0)
(0.00203486 20 0)
(0.00202509 20 0)
(0.00201532 20 0)
(0.00200555 20 0)
(0.00199578 20 0)
(0.00198601 20 0)
(0.00197624 20 0)
(0.00196646 20 0)
(0.00195668 20 0)
(0.00194691 20 0)
(0.00193713 20 0)
(0.00192735 20 0)
(0.00191756 20 0)
(0.00190778 20 0)
(0.001898 20 0)
(0.00188821 20 0)
(0.00187842 20 0)
(0.00186863 20 0)
(0.00185884 20 0)
(0.00184905 20 0)
(0.00183926 20 0)
(0.00182947 20 0)
(0.00181967 20 0)
(0.00180988 20 0)
(0.00180008 20 0)
(0.00179028 20 0)
(0.00178048 20 0)
(0.00177068 20 0)
(0.00176088 20 0)
(0.00175108 20 0)
(0.00174127 20 0)
(0.00173147 20 0)
(0.00172166 20 0)
(0.00171185 20 0)
(0.00170205 20 0)
(0.00169224 20 0)
(0.00168243 20 0)
(0.00167261 20 0)
(0.0016628 20 0)
(0.00165299 20 0)
(0.00164317 20 0)
(0.00163336 20 0)
(0.00162354 20 0)
(0.00161372 20 0)
(0.0016039 20 0)
(0.00159408 20 0)
(0.00158426 20 0)
(0.00157444 20 0)
(0.00156461 20 0)
(0.00155479 20 0)
(0.00154496 20 0)
(0.00153514 20 0)
(0.00152531 20 0)
(0.00151548 20 0)
(0.00150565 20 0)
(0.00149582 20 0)
(0.00148599 20 0)
(0.00147616 20 0)
(0.00146633 20 0)
(0.00145649 20 0)
(0.00144666 20 0)
(0.00143682 20 0)
(0.00142699 20 0)
(0.00141715 20 0)
(0.00140731 20 0)
(0.00139748 20 0)
(0.00138764 20 0)
(0.0013778 20 0)
(0.00136796 20 0)
(0.00135811 20 0)
(0.00134827 20 0)
(0.00133843 20 0)
(0.00132858 20 0)
(0.00131874 20 0)
(0.00130889 20 0)
(0.00129905 20 0)
(0.0012892 20 0)
(0.00127935 20 0)
(0.00126951 20 0)
(0.00125966 20 0)
(0.00124981 20 0)
(0.00123996 20 0)
(0.00123011 20 0)
(0.00122026 20 0)
(0.00121041 20 0)
(0.00120055 20 0)
(0.0011907 20 0)
(0.00118085 20 0)
(0.00117099 20 0)
(0.00116114 20 0)
(0.00115128 20 0)
(0.00114143 20 0)
(0.00113157 20 0)
(0.00112172 20 0)
(0.00111186 20 0)
(0.001102 20 0)
(0.00109215 20 0)
(0.00108229 20 0)
(0.00107243 20 0)
(0.00106257 20 0)
(0.00105271 20 0)
(0.00104285 20 0)
(0.00103299 20 0)
(0.00102313 20 0)
(0.00101327 20 0)
(0.00100341 20 0)
(0.000993551 20 0)
(0.00098369 20 0)
(0.000973829 20 0)
(0.000963968 20 0)
(0.000954107 20 0)
(0.000944245 20 0)
(0.000934383 20 0)
(0.000924522 20 0)
(0.00091466 20 0)
(0.000904798 20 0)
(0.000894936 20 0)
(0.000885074 20 0)
(0.000875212 20 0)
(0.000865351 20 0)
(0.000855489 20 0)
(0.000845628 20 0)
(0.000835766 20 0)
(0.000825905 20 0)
(0.000816044 20 0)
(0.000806184 20 0)
(0.000796324 20 0)
(0.000786464 20 0)
(0.000776605 20 0)
(0.000766746 20 0)
(0.000756887 20 0)
(0.00074703 20 0)
(0.000737173 20 0)
(0.000727316 20 0)
(0.000717461 20 0)
(0.000707606 20 0)
(0.000697753 20 0)
(0.0006879 20 0)
(0.000678049 20 0)
(0.0006682 20 0)
(0.000658351 20 0)
(0.000648505 20 0)
(0.00063866 20 0)
(0.000628817 20 0)
(0.000618977 20 0)
(0.000609139 20 0)
(0.000599304 20 0)
(0.000589472 20 0)
(0.000579643 20 0)
(0.000569819 20 0)
(0.00056 20 0)
(0.000550186 20 0)
(0.000540378 20 0)
(0.000530578 20 0)
(0.000520786 20 0)
(0.000511005 20 0)
(0.000501237 20 0)
(0.000491485 20 0)
(0.000481752 20 0)
(0.000472046 20 0)
(0.000462375 20 0)
(0.000452752 20 0)
(0.000443196 20 0)
(0.000433736 20 0)
(0.000425078 20 0)
(0.000412075 20 0)
(8.40557e-05 20.0012 0)
(0.000136417 19.9979 0)
(0.000115726 20.0014 0)
(0.000120804 19.9995 0)
(0.000120083 20.0001 0)
(0.000119954 20 0)
(0.000119821 20 0)
(0.00011969 20 0)
(0.000119561 20 0)
(0.000119432 20 0)
(0.000119304 20 0)
(0.000119177 20 0)
(0.00011905 20 0)
(0.000118922 20 0)
(0.000118795 20 0)
(0.000118668 20 0)
(0.000118541 20 0)
(0.000118415 20 0)
(0.000118288 20 0)
(0.000118161 20 0)
(0.000118034 20 0)
(0.000117907 20 0)
(0.00011778 20 0)
(0.000117653 20 0)
(0.000117527 20 0)
(0.0001174 20 0)
(0.000117273 20 0)
(0.000117146 20 0)
(0.000117019 20 0)
(0.000116893 20 0)
(0.000116766 20 0)
(0.000116639 20 0)
(0.000116513 20 0)
(0.000116386 20 0)
(0.00011626 20 0)
(0.000116133 20 0)
(0.000116006 20 0)
(0.00011588 20 0)
(0.000115753 20 0)
(0.000115627 20 0)
(0.0001155 20 0)
(0.000115374 20 0)
(0.000115247 20 0)
(0.000115121 20 0)
(0.000114994 20 0)
(0.000114868 20 0)
(0.000114741 20 0)
(0.000114615 20 0)
(0.000114488 20 0)
(0.000114362 20 0)
(0.000114235 20 0)
(0.000114109 20 0)
(0.000113983 20 0)
(0.000113856 20 0)
(0.00011373 20 0)
(0.000113604 20 0)
(0.000113478 20 0)
(0.000113352 20 0)
(0.000113225 20 0)
(0.000113099 20 0)
(0.000112973 20 0)
(0.000112847 20 0)
(0.000112721 20 0)
(0.000112595 20 0)
(0.000112469 20 0)
(0.000112342 20 0)
(0.000112216 20 0)
(0.00011209 20 0)
(0.000111964 20 0)
(0.000111838 20 0)
(0.000111712 20 0)
(0.000111586 20 0)
(0.000111461 20 0)
(0.000111335 20 0)
(0.000111209 20 0)
(0.000111083 20 0)
(0.000110957 20 0)
(0.000110831 20 0)
(0.000110706 20 0)
(0.00011058 20 0)
(0.000110454 20 0)
(0.000110328 20 0)
(0.000110203 20 0)
(0.000110077 20 0)
(0.000109951 20 0)
(0.000109826 20 0)
(0.0001097 20 0)
(0.000109575 20 0)
(0.000109449 20 0)
(0.000109323 20 0)
(0.000109198 20 0)
(0.000109072 20 0)
(0.000108947 20 0)
(0.000108821 20 0)
(0.000108696 20 0)
(0.000108571 20 0)
(0.000108445 20 0)
(0.00010832 20 0)
(0.000108195 20 0)
(0.000108069 20 0)
(0.000107944 20 0)
(0.000107819 20 0)
(0.000107694 20 0)
(0.000107568 20 0)
(0.000107443 20 0)
(0.000107318 20 0)
(0.000107193 20 0)
(0.000107068 20 0)
(0.000106942 20 0)
(0.000106817 20 0)
(0.000106692 20 0)
(0.000106567 20 0)
(0.000106442 20 0)
(0.000106317 20 0)
(0.000106192 20 0)
(0.000106067 20 0)
(0.000105942 20 0)
(0.000105817 20 0)
(0.000105692 20 0)
(0.000105568 20 0)
(0.000105443 20 0)
(0.000105318 20 0)
(0.000105193 20 0)
(0.000105068 20 0)
(0.000104944 20 0)
(0.000104819 20 0)
(0.000104694 20 0)
(0.000104569 20 0)
(0.000104445 20 0)
(0.00010432 20 0)
(0.000104195 20 0)
(0.000104071 20 0)
(0.000103946 20 0)
(0.000103822 20 0)
(0.000103697 20 0)
(0.000103572 20 0)
(0.000103448 20 0)
(0.000103324 20 0)
(0.000103199 20 0)
(0.000103075 20 0)
(0.00010295 20 0)
(0.000102826 20 0)
(0.000102702 20 0)
(0.000102577 20 0)
(0.000102453 20 0)
(0.000102329 20 0)
(0.000102204 20 0)
(0.00010208 20 0)
(0.000101956 20 0)
(0.000101832 20 0)
(0.000101707 20 0)
(0.000101583 20 0)
(0.000101459 20 0)
(0.000101335 20 0)
(0.000101211 20 0)
(0.000101087 20 0)
(0.000100963 20 0)
(0.000100839 20 0)
(0.000100715 20 0)
(0.000100591 20 0)
(0.000100467 20 0)
(0.000100343 20 0)
(0.000100219 20 0)
(0.000100095 20 0)
(9.99709e-05 20 0)
(9.98471e-05 20 0)
(9.97233e-05 20 0)
(9.95994e-05 20 0)
(9.94757e-05 20 0)
(9.93519e-05 20 0)
(9.92281e-05 20 0)
(9.91044e-05 20 0)
(9.89807e-05 20 0)
(9.8857e-05 20 0)
(9.87334e-05 20 0)
(9.86097e-05 20 0)
(9.84861e-05 20 0)
(9.83624e-05 20 0)
(9.82388e-05 20 0)
(9.81152e-05 20 0)
(9.79917e-05 20 0)
(9.78682e-05 20 0)
(9.77447e-05 20 0)
(9.76212e-05 20 0)
(9.74978e-05 20 0)
(9.73744e-05 20 0)
(9.7251e-05 20 0)
(9.71276e-05 20 0)
(9.70042e-05 20 0)
(9.68809e-05 20 0)
(9.67576e-05 20 0)
(9.66343e-05 20 0)
(9.65111e-05 20 0)
(9.63878e-05 20 0)
(9.62646e-05 20 0)
(9.61414e-05 20 0)
(9.60182e-05 20 0)
(9.58951e-05 20 0)
(9.57719e-05 20 0)
(9.56488e-05 20 0)
(9.55256e-05 20 0)
(9.54025e-05 20 0)
(9.52794e-05 20 0)
(9.51564e-05 20 0)
(9.50334e-05 20 0)
(9.49104e-05 20 0)
(9.47874e-05 20 0)
(9.46645e-05 20 0)
(9.45416e-05 20 0)
(9.44187e-05 20 0)
(9.42958e-05 20 0)
(9.4173e-05 20 0)
(9.40502e-05 20 0)
(9.39274e-05 20 0)
(9.38046e-05 20 0)
(9.36818e-05 20 0)
(9.35591e-05 20 0)
(9.34364e-05 20 0)
(9.33137e-05 20 0)
(9.3191e-05 20 0)
(9.30683e-05 20 0)
(9.29457e-05 20 0)
(9.28231e-05 20 0)
(9.27004e-05 20 0)
(9.25778e-05 20 0)
(9.24552e-05 20 0)
(9.23327e-05 20 0)
(9.22102e-05 20 0)
(9.20877e-05 20 0)
(9.19652e-05 20 0)
(9.18428e-05 20 0)
(9.17204e-05 20 0)
(9.1598e-05 20 0)
(9.14756e-05 20 0)
(9.13533e-05 20 0)
(9.1231e-05 20 0)
(9.11087e-05 20 0)
(9.09864e-05 20 0)
(9.08641e-05 20 0)
(9.07419e-05 20 0)
(9.06197e-05 20 0)
(9.04975e-05 20 0)
(9.03753e-05 20 0)
(9.02532e-05 20 0)
(9.0131e-05 20 0)
(9.00089e-05 20 0)
(8.98868e-05 20 0)
(8.97647e-05 20 0)
(8.96426e-05 20 0)
(8.95205e-05 20 0)
(8.93985e-05 20 0)
(8.92765e-05 20 0)
(8.91546e-05 20 0)
(8.90326e-05 20 0)
(8.89107e-05 20 0)
(8.87888e-05 20 0)
(8.8667e-05 20 0)
(8.85451e-05 20 0)
(8.84233e-05 20 0)
(8.83015e-05 20 0)
(8.81797e-05 20 0)
(8.8058e-05 20 0)
(8.79363e-05 20 0)
(8.78146e-05 20 0)
(8.76929e-05 20 0)
(8.75712e-05 20 0)
(8.74496e-05 20 0)
(8.73279e-05 20 0)
(8.72063e-05 20 0)
(8.70847e-05 20 0)
(8.69631e-05 20 0)
(8.68415e-05 20 0)
(8.672e-05 20 0)
(8.65985e-05 20 0)
(8.6477e-05 20 0)
(8.63555e-05 20 0)
(8.6234e-05 20 0)
(8.61126e-05 20 0)
(8.59912e-05 20 0)
(8.58699e-05 20 0)
(8.57485e-05 20 0)
(8.56272e-05 20 0)
(8.55059e-05 20 0)
(8.53847e-05 20 0)
(8.52634e-05 20 0)
(8.51422e-05 20 0)
(8.5021e-05 20 0)
(8.48998e-05 20 0)
(8.47786e-05 20 0)
(8.46575e-05 20 0)
(8.45363e-05 20 0)
(8.44152e-05 20 0)
(8.42941e-05 20 0)
(8.41731e-05 20 0)
(8.4052e-05 20 0)
(8.39309e-05 20 0)
(8.38099e-05 20 0)
(8.36889e-05 20 0)
(8.35679e-05 20 0)
(8.3447e-05 20 0)
(8.3326e-05 20 0)
(8.32051e-05 20 0)
(8.30843e-05 20 0)
(8.29634e-05 20 0)
(8.28426e-05 20 0)
(8.27218e-05 20 0)
(8.2601e-05 20 0)
(8.24803e-05 20 0)
(8.23596e-05 20 0)
(8.22388e-05 20 0)
(8.21182e-05 20 0)
(8.19975e-05 20 0)
(8.18768e-05 20 0)
(8.17562e-05 20 0)
(8.16356e-05 20 0)
(8.1515e-05 20 0)
(8.13944e-05 20 0)
(8.12739e-05 20 0)
(8.11533e-05 20 0)
(8.10328e-05 20 0)
(8.09123e-05 20 0)
(8.07918e-05 20 0)
(8.06713e-05 20 0)
(8.05509e-05 20 0)
(8.04305e-05 20 0)
(8.03101e-05 20 0)
(8.01897e-05 20 0)
(8.00694e-05 20 0)
(7.99491e-05 20 0)
(7.98288e-05 20 0)
(7.97086e-05 20 0)
(7.95883e-05 20 0)
(7.94681e-05 20 0)
(7.93479e-05 20 0)
(7.92277e-05 20 0)
(7.91076e-05 20 0)
(7.89874e-05 20 0)
(7.88673e-05 20 0)
(7.87472e-05 20 0)
(7.86272e-05 20 0)
(7.85071e-05 20 0)
(7.83871e-05 20 0)
(7.82671e-05 20 0)
(7.8147e-05 20 0)
(7.80271e-05 20 0)
(7.79071e-05 20 0)
(7.77871e-05 20 0)
(7.76672e-05 20 0)
(7.75473e-05 20 0)
(7.74274e-05 20 0)
(7.73076e-05 20 0)
(7.71878e-05 20 0)
(7.7068e-05 20 0)
(7.69482e-05 20 0)
(7.68285e-05 20 0)
(7.67087e-05 20 0)
(7.6589e-05 20 0)
(7.64694e-05 20 0)
(7.63497e-05 20 0)
(7.62301e-05 20 0)
(7.61104e-05 20 0)
(7.59908e-05 20 0)
(7.58713e-05 20 0)
(7.57517e-05 20 0)
(7.56322e-05 20 0)
(7.55126e-05 20 0)
(7.53931e-05 20 0)
(7.52736e-05 20 0)
(7.51542e-05 20 0)
(7.50347e-05 20 0)
(7.49153e-05 20 0)
(7.47958e-05 20 0)
(7.46765e-05 20 0)
(7.45571e-05 20 0)
(7.44378e-05 20 0)
(7.43185e-05 20 0)
(7.41992e-05 20 0)
(7.40799e-05 20 0)
(7.39607e-05 20 0)
(7.38415e-05 20 0)
(7.37222e-05 20 0)
(7.36031e-05 20 0)
(7.34839e-05 20 0)
(7.33648e-05 20 0)
(7.32456e-05 20 0)
(7.31266e-05 20 0)
(7.30075e-05 20 0)
(7.28884e-05 20 0)
(7.27694e-05 20 0)
(7.26504e-05 20 0)
(7.25314e-05 20 0)
(7.24124e-05 20 0)
(7.22934e-05 20 0)
(7.21745e-05 20 0)
(7.20555e-05 20 0)
(7.19366e-05 20 0)
(7.18177e-05 20 0)
(7.16988e-05 20 0)
(7.158e-05 20 0)
(7.14612e-05 20 0)
(7.13424e-05 20 0)
(7.12236e-05 20 0)
(7.11049e-05 20 0)
(7.09862e-05 20 0)
(7.08675e-05 20 0)
(7.07488e-05 20 0)
(7.06301e-05 20 0)
(7.05115e-05 20 0)
(7.03928e-05 20 0)
(7.02743e-05 20 0)
(7.01557e-05 20 0)
(7.00371e-05 20 0)
(6.99186e-05 20 0)
(6.98e-05 20 0)
(6.96815e-05 20 0)
(6.95631e-05 20 0)
(6.94446e-05 20 0)
(6.93261e-05 20 0)
(6.92077e-05 20 0)
(6.90893e-05 20 0)
(6.89709e-05 20 0)
(6.88525e-05 20 0)
(6.87341e-05 20 0)
(6.86158e-05 20 0)
(6.84975e-05 20 0)
(6.83792e-05 20 0)
(6.8261e-05 20 0)
(6.81428e-05 20 0)
(6.80245e-05 20 0)
(6.79064e-05 20 0)
(6.77882e-05 20 0)
(6.767e-05 20 0)
(6.75519e-05 20 0)
(6.74338e-05 20 0)
(6.73157e-05 20 0)
(6.71976e-05 20 0)
(6.70796e-05 20 0)
(6.69616e-05 20 0)
(6.68436e-05 20 0)
(6.67256e-05 20 0)
(6.66076e-05 20 0)
(6.64896e-05 20 0)
(6.63717e-05 20 0)
(6.62538e-05 20 0)
(6.61358e-05 20 0)
(6.60179e-05 20 0)
(6.59001e-05 20 0)
(6.57823e-05 20 0)
(6.56644e-05 20 0)
(6.55467e-05 20 0)
(6.54289e-05 20 0)
(6.53111e-05 20 0)
(6.51934e-05 20 0)
(6.50757e-05 20 0)
(6.4958e-05 20 0)
(6.48403e-05 20 0)
(6.47227e-05 20 0)
(6.46051e-05 20 0)
(6.44875e-05 20 0)
(6.43699e-05 20 0)
(6.42523e-05 20 0)
(6.41348e-05 20 0)
(6.40173e-05 20 0)
(6.38998e-05 20 0)
(6.37823e-05 20 0)
(6.36648e-05 20 0)
(6.35474e-05 20 0)
(6.343e-05 20 0)
(6.33126e-05 20 0)
(6.31952e-05 20 0)
(6.30778e-05 20 0)
(6.29604e-05 20 0)
(6.28431e-05 20 0)
(6.27258e-05 20 0)
(6.26086e-05 20 0)
(6.24913e-05 20 0)
(6.23741e-05 20 0)
(6.22569e-05 20 0)
(6.21397e-05 20 0)
(6.20226e-05 20 0)
(6.19054e-05 20 0)
(6.17883e-05 20 0)
(6.16712e-05 20 0)
(6.15541e-05 20 0)
(6.1437e-05 20 0)
(6.132e-05 20 0)
(6.1203e-05 20 0)
(6.1086e-05 20 0)
(6.0969e-05 20 0)
(6.0852e-05 20 0)
(6.07351e-05 20 0)
(6.06181e-05 20 0)
(6.05012e-05 20 0)
(6.03843e-05 20 0)
(6.02674e-05 20 0)
(6.01505e-05 20 0)
(6.00337e-05 20 0)
(5.99169e-05 20 0)
(5.98001e-05 20 0)
(5.96833e-05 20 0)
(5.95666e-05 20 0)
(5.94498e-05 20 0)
(5.93331e-05 20 0)
(5.92164e-05 20 0)
(5.90997e-05 20 0)
(5.89831e-05 20 0)
(5.88665e-05 20 0)
(5.87498e-05 20 0)
(5.86332e-05 20 0)
(5.85167e-05 20 0)
(5.84001e-05 20 0)
(5.82836e-05 20 0)
(5.81671e-05 20 0)
(5.80506e-05 20 0)
(5.79341e-05 20 0)
(5.78176e-05 20 0)
(5.77011e-05 20 0)
(5.75847e-05 20 0)
(5.74683e-05 20 0)
(5.73519e-05 20 0)
(5.72355e-05 20 0)
(5.71191e-05 20 0)
(5.70028e-05 20 0)
(5.68865e-05 20 0)
(5.67702e-05 20 0)
(5.66539e-05 20 0)
(5.65377e-05 20 0)
(5.64215e-05 20 0)
(5.63053e-05 20 0)
(5.61891e-05 20 0)
(5.60729e-05 20 0)
(5.59567e-05 20 0)
(5.58406e-05 20 0)
(5.57245e-05 20 0)
(5.56084e-05 20 0)
(5.54923e-05 20 0)
(5.53762e-05 20 0)
(5.52601e-05 20 0)
(5.51441e-05 20 0)
(5.50281e-05 20 0)
(5.49121e-05 20 0)
(5.47961e-05 20 0)
(5.46802e-05 20 0)
(5.45642e-05 20 0)
(5.44483e-05 20 0)
(5.43324e-05 20 0)
(5.42166e-05 20 0)
(5.41007e-05 20 0)
(5.39849e-05 20 0)
(5.38691e-05 20 0)
(5.37533e-05 20 0)
(5.36375e-05 20 0)
(5.35217e-05 20 0)
(5.3406e-05 20 0)
(5.32903e-05 20 0)
(5.31746e-05 20 0)
(5.30589e-05 20 0)
(5.29432e-05 20 0)
(5.28276e-05 20 0)
(5.27119e-05 20 0)
(5.25963e-05 20 0)
(5.24807e-05 20 0)
(5.23651e-05 20 0)
(5.22496e-05 20 0)
(5.2134e-05 20 0)
(5.20185e-05 20 0)
(5.1903e-05 20 0)
(5.17875e-05 20 0)
(5.16721e-05 20 0)
(5.15566e-05 20 0)
(5.14412e-05 20 0)
(5.13258e-05 20 0)
(5.12104e-05 20 0)
(5.1095e-05 20 0)
(5.09797e-05 20 0)
(5.08644e-05 20 0)
(5.0749e-05 20 0)
(5.06337e-05 20 0)
(5.05185e-05 20 0)
(5.04032e-05 20 0)
(5.0288e-05 20 0)
(5.01728e-05 20 0)
(5.00575e-05 20 0)
(4.99424e-05 20 0)
(4.98272e-05 20 0)
(4.97121e-05 20 0)
(4.95969e-05 20 0)