/*--------------------------------*- C++ -*----------------------------------*\
| =========                 |                                                 |
| \\      /  F ield         | OpenFOAM: The Open Source CFD Toolbox           |
|  \\    /   O peration     | Version:  2512                                  |
|   \\  /    A nd           | Website:  www.openfoam.com                      |
|    \\/     M anipulation  |                                                 |
\*---------------------------------------------------------------------------*/
FoamFile
{
    version     2.0;
    format      ascii;
    arch        "LSB;label=32;scalar=64";
    class       volScalarField;
    location    "1e-05";
    object      p;
}
// * * * * * * * * * * * * * * * * * * * * * * * * * * * * * * * * * * * * * //

dimensions      [1 -1 -2 0 0 0 0];

internalField   nonuniform List<scalar> 
100000
(
0
59276.7
-18657.9
29107.2
14105.4
8687.76
2061.77
-5695.58
-14589.1
-24621.5
-35794
-48106.6
-61559.5
-76153
-91887
-108761
-126774
-145927
-166220
-187655
-210230
-233948
-258809
-284815
-311965
-340260
-369703
-400293
-432031
-464919
-498957
-534148
-570491
-607988
-646641
-686450
-727418
-769544
-812831
-857280
-902892
-949669
-997611
-1.04672e+06
-1.097e+06
-1.14845e+06
-1.20107e+06
-1.25487e+06
-1.30984e+06
-1.36599e+06
-1.42332e+06
-1.48183e+06
-1.54152e+06
-1.6024e+06
-1.66446e+06
-1.72771e+06
-1.79215e+06
-1.85779e+06
-1.92462e+06
-1.99264e+06
-2.06186e+06
-2.13228e+06
-2.20391e+06
-2.27674e+06
-2.35078e+06
-2.42602e+06
-2.50248e+06
-2.58015e+06
-2.65904e+06
-2.73914e+06
-2.82047e+06
-2.90302e+06
-2.9868e+06
-3.0718e+06
-3.15804e+06
-3.24551e+06
-3.33421e+06
-3.42416e+06
-3.51534e+06
-3.60778e+06
-3.70145e+06
-3.79638e+06
-3.89256e+06
-3.98999e+06
-4.08869e+06
-4.18864e+06
-4.28986e+06
-4.39235e+06
-4.4961e+06
-4.60113e+06
-4.70743e+06
-4.81502e+06
-4.92389e+06
-5.03404e+06
-5.14548e+06
-5.25821e+06
-5.37224e+06
-5.48757e+06
-5.6042e+06
-5.72213e+06
-5.84138e+06
-5.96193e+06
-6.0838e+06
-6.20699e+06
-6.3315e+06
-6.45734e+06
-6.58451e+06
-6.71301e+06
-6.84285e+06
-6.97402e+06
-7.10655e+06
-7.24042e+06
-7.37564e+06
-7.51221e+06
-7.65015e+06
-7.78945e+06
-7.93011e+06
-8.07215e+06
-8.21556e+06
-8.36035e+06
-8.50652e+06
-8.65408e+06
-8.80303e+06
-8.95337e+06
-9.10511e+06
-9.25825e+06
-9.41281e+06
-9.56877e+06
-9.72614e+06
-9.88494e+06
-1.00452e+07
-1.02068e+07
-1.03699e+07
-1.05344e+07
-1.07004e+07
-1.08678e+07
-1.10366e+07
-1.12069e+07
-1.13787e+07
-1.15519e+07
-1.17266e+07
-1.19028e+07
-1.20804e+07
-1.22595e+07
-1.24402e+07
-1.26223e+07
-1.28059e+07
-1.2991e+07
-1.31776e+07
-1.33657e+07
-1.35553e+07
-1.37464e+07
-1.39391e+07
-1.41333e+07
-1.4329e+07
-1.45263e+07
-1.47251e+07
-1.49254e+07
-1.51273e+07
-1.53308e+07
-1.55358e+07
-1.57424e+07
-1.59506e+07
-1.61603e+07
-1.63717e+07
-1.65846e+07
-1.67991e+07
-1.70152e+07
-1.72329e+07
-1.74522e+07
-1.76731e+07
-1.78957e+07
-1.81198e+07
-1.83456e+07
-1.85731e+07
-1.88021e+07
-1.90329e+07
-1.92652e+07
-1.94992e+07
-1.97349e+07
-1.99723e+07
-2.02113e+07
-2.0452e+07
-2.06944e+07
-2.09384e+07
-2.11842e+07
-2.14316e+07
-2.16808e+07
-2.19317e+07
-2.21842e+07
-2.24385e+07
-2.26946e+07
-2.29523e+07
-2.32118e+07
-2.34731e+07
-2.3736e+07
-2.40008e+07
-2.42673e+07
-2.45355e+07
-2.48056e+07
-2.50774e+07
-2.5351e+07
-2.56263e+07
-2.59035e+07
-2.61825e+07
-2.64633e+07
-2.67458e+07
-2.70302e+07
-2.73165e+07
-2.76045e+07
-2.78944e+07
-2.81861e+07
-2.84797e+07
-2.87751e+07
-2.90723e+07
-2.93715e+07
-2.96725e+07
-2.99753e+07
-3.02801e+07
-3.05867e+07
-3.08953e+07
-3.12057e+07
-3.1518e+07
-3.18322e+07
-3.21484e+07
-3.24665e+07
-3.27864e+07
-3.31084e+07
-3.34322e+07
-3.3758e+07
-3.40858e+07
-3.44155e+07
-3.47472e+07
-3.50808e+07
-3.54164e+07
-3.5754e+07
-3.60936e+07
-3.64352e+07
-3.67787e+07
-3.71243e+07
-3.74719e+07
-3.78215e+07
-3.81731e+07
-3.85267e+07
-3.88824e+07
-3.92401e+07
-3.95998e+07
-3.99616e+07
-4.03255e+07
-4.06914e+07
-4.10594e+07
-4.14294e+07
-4.18016e+07
-4.21758e+07
-4.25521e+07
-4.29305e+07
-4.3311e+07
-4.36936e+07
-4.40784e+07
-4.44652e+07
-4.48542e+07
-4.52453e+07
-4.56385e+07
-4.60339e+07
-4.64315e+07
-4.68312e+07
-4.7233e+07
-4.7637e+07
-4.80432e+07
-4.84516e+07
-4.88622e+07
-4.92749e+07
-4.96899e+07
-5.0107e+07
-5.05264e+07
-5.09479e+07
-5.13717e+07
-5.17977e+07
-5.22259e+07
-5.26564e+07
-5.30891e+07
-5.35241e+07
-5.39613e+07
-5.44008e+07
-5.48425e+07
-5.52865e+07
-5.57328e+07
-5.61813e+07
-5.66322e+07
-5.70853e+07
-5.75407e+07
-5.79985e+07
-5.84585e+07
-5.89209e+07
-5.93855e+07
-5.98525e+07
-6.03219e+07
-6.07935e+07
-6.12675e+07
-6.17439e+07
-6.22226e+07
-6.27036e+07
-6.3187e+07
-6.36728e+07
-6.4161e+07
-6.46515e+07
-6.51444e+07
-6.56397e+07
-6.61374e+07
-6.66375e+07
-6.71399e+07
-6.76448e+07
-6.81521e+07
-6.86619e+07
-6.9174e+07
-6.96886e+07
-7.02056e+07
-7.0725e+07
-7.12469e+07
-7.17713e+07
-7.2298e+07
-7.28273e+07
-7.3359e+07
-7.38932e+07
-7.44298e+07
-7.49689e+07
-7.55105e+07
-7.60546e+07
-7.66011e+07
-7.71502e+07
-7.77018e+07
-7.82558e+07
-7.88124e+07
-7.93715e+07
-7.99331e+07
-8.04972e+07
-8.10638e+07
-8.1633e+07
-8.22047e+07
-8.27789e+07
-8.33557e+07
-8.3935e+07
-8.45168e+07
-8.51013e+07
-8.56882e+07
-8.62778e+07
-8.68699e+07
-8.74645e+07
-8.80618e+07
-8.86616e+07
-8.9264e+07
-8.9869e+07
-9.04765e+07
-9.10867e+07
-9.16995e+07
-9.23148e+07
-9.29327e+07
-9.35533e+07
-9.41765e+07
-9.48022e+07
-9.54306e+07
-9.60616e+07
-9.66952e+07
-9.73315e+07
-9.79704e+07
-9.86119e+07
-9.9256e+07
-9.99028e+07
-1.00552e+08
-1.01204e+08
-1.01859e+08
-1.02516e+08
-1.03176e+08
-1.03839e+08
-1.04504e+08
-1.05172e+08
-1.05843e+08
-1.06516e+08
-1.07192e+08
-1.07871e+08
-1.08552e+08
-1.09236e+08
-1.09923e+08
-1.10612e+08
-1.11304e+08
-1.11998e+08
-1.12696e+08
-1.13396e+08
-1.14099e+08
-1.14804e+08
-1.15512e+08
-1.16223e+08
-1.16936e+08
-1.17652e+08
-1.18371e+08
-1.19093e+08
-1.19817e+08
-1.20544e+08
-1.21274e+08
-1.22006e+08
-1.22741e+08
-1.23479e+08
-1.24219e+08
-1.24962e+08
-1.25708e+08
-1.26457e+08
-1.27208e+08
-1.27962e+08
-1.28719e+08
-1.29478e+08
-1.3024e+08
-1.31005e+08
-1.31772e+08
-1.32543e+08
-1.33316e+08
-1.34091e+08
-1.3487e+08
-1.35651e+08
-1.36434e+08
-1.37221e+08
-1.3801e+08
-1.38802e+08
-1.39597e+08
-1.40394e+08
-1.41194e+08
-1.41997e+08
-1.42802e+08
-1.4361e+08
-1.44421e+08
-1.45235e+08
-1.46051e+08
-1.4687e+08
-1.47691e+08
-1.48516e+08
-1.49343e+08
-1.50172e+08
-1.51005e+08
-1.5184e+08
-1.52678e+08
-1.53518e+08
-1.54361e+08
-1.55207e+08
-1.56056e+08
-1.56907e+08
-1.57761e+08
-1.58617e+08
-1.59477e+08
-1.60339e+08
-1.61203e+08
-1.6207e+08
-1.6294e+08
-1.63813e+08
-1.64688e+08
-1.65566e+08
-1.66446e+08
-1.6733e+08
-1.68215e+08
-1.69104e+08
-1.69995e+08
-1.70889e+08
-1.71785e+08
-1.72684e+08
-1.73586e+08
-1.7449e+08
-1.75397e+08
-1.76306e+08
-1.77218e+08
-1.78133e+08
-1.7905e+08
-1.7997e+08
-1.80892e+08
-1.81817e+08
-1.82745e+08
-1.83675e+08
-1.84608e+08
-1.85543e+08
-1.86481e+08
-1.87422e+08
-1.88365e+08
-1.8931e+08
-1.90258e+08
-1.91209e+08
-1.92162e+08
-1.93118e+08
-1.94076e+08
-1.95037e+08
-1.96e+08
-1.96966e+08
-1.97934e+08
-1.98905e+08
-1.99878e+08
-2.00853e+08
-2.01831e+08
-2.02812e+08
-2.03795e+08
-2.04781e+08
-2.05769e+08
-2.06759e+08
-2.07752e+08
-2.08747e+08
-2.09745e+08
-2.10745e+08
-2.11747e+08
-2.12752e+08
-2.13759e+08
-2.14769e+08
-2.15781e+08
-2.16795e+08
-2.17812e+08
-2.18831e+08
-2.19852e+08
-2.20876e+08
-2.21902e+08
-2.2293e+08
-2.23961e+08
-2.24993e+08
-2.26029e+08
-2.27066e+08
-2.28106e+08
-2.29148e+08
-2.30192e+08
-2.31238e+08
-2.32287e+08
-2.33338e+08
-2.34391e+08
-2.35446e+08
-2.36504e+08
-2.37564e+08
-2.38625e+08
-2.39689e+08
-2.40756e+08
-2.41824e+08
-2.42894e+08
-2.43967e+08
-2.45041e+08
-2.46118e+08
-2.47197e+08
-2.48278e+08
-2.49361e+08
-2.50446e+08
-2.51533e+08
-2.52622e+08
-2.53713e+08
-2.54806e+08
-2.55901e+08
-2.56998e+08
-2.58097e+08
-2.59198e+08
-2.60301e+08
-2.61406e+08
-2.62513e+08
-2.63622e+08
-2.64732e+08
-2.65845e+08
-2.66959e+08
-2.68075e+08
-2.69193e+08
-2.70313e+08
-2.71435e+08
-2.72558e+08
-2.73684e+08
-2.74811e+08
-2.7594e+08
-2.7707e+08
-2.78202e+08
-2.79337e+08
-2.80472e+08
-2.8161e+08
-2.82749e+08
-2.8389e+08
-2.85032e+08
-2.86176e+08
-2.87322e+08
-2.88469e+08
-2.89618e+08
-2.90768e+08
-2.9192e+08
-2.93074e+08
-2.94229e+08
-2.95386e+08
-2.96544e+08
-2.97704e+08
-2.98865e+08
-3.00027e+08
-3.01191e+08
-3.02357e+08
-3.03523e+08
-3.04692e+08
-3.05861e+08
-3.07032e+08
-3.08204e+08
-3.09378e+08
-3.10553e+08
-3.11729e+08
-3.12906e+08
-3.14085e+08
-3.15265e+08
-3.16446e+08
-3.17629e+08
-3.18812e+08
-3.19997e+08
-3.21183e+08
-3.2237e+08
-3.23558e+08
-3.24747e+08
-3.25937e+08
-3.27129e+08
-3.28321e+08
-3.29515e+08
-3.30709e+08
-3.31905e+08
-3.33101e+08
-3.34298e+08
-3.35497e+08
-3.36696e+08
-3.37896e+08
-3.39097e+08
-3.40299e+08
-3.41502e+08
-3.42705e+08
-3.43909e+08
-3.45115e+08
-3.4632e+08
-3.47527e+08
-3.48734e+08
-3.49942e+08
-3.51151e+08
-3.5236e+08
-3.5357e+08
-3.54781e+08
-3.55992e+08
-3.57204e+08
-3.58417e+08
-3.59629e+08
-3.60843e+08
-3.62057e+08
-3.63271e+08
-3.64486e+08
-3.65702e+08
-3.66917e+08
-3.68133e+08
-3.6935e+08
-3.70567e+08
-3.71784e+08
-3.73001e+08
-3.74219e+08
-3.75437e+08
-3.76656e+08
-3.77874e+08
-3.79093e+08
-3.80312e+08
-3.81531e+08
-3.8275e+08
-3.83969e+08
-3.85189e+08
-3.86408e+08
-3.87628e+08
-3.88847e+08
-3.90067e+08
-3.91287e+08
-3.92506e+08
-3.93725e+08
-3.94945e+08
-3.96164e+08
-3.97383e+08
-3.98602e+08
-3.99821e+08
-4.01039e+08
-4.02258e+08
-4.03476e+08
-4.04694e+08
-4.05911e+08
-4.07128e+08
-4.08345e+08
-4.09562e+08
-4.10778e+08
-4.11993e+08
-4.13209e+08
-4.14424e+08
-4.15638e+08
-4.16852e+08
-4.18065e+08
-4.19278e+08
-4.2049e+08
-4.21701e+08
-4.22912e+08
-4.24122e+08
-4.25332e+08
-4.26541e+08
-4.27749e+08
-4.28956e+08
-4.30163e+08
-4.31369e+08
-4.32574e+08
-4.33778e+08
-4.34981e+08
-4.36183e+08
-4.37385e+08
-4.38585e+08
-4.39785e+08
-4.40983e+08
-4.42181e+08
-4.43377e+08
-4.44573e+08
-4.45767e+08
-4.4696e+08
-4.48152e+08
-4.49343e+08
-4.50532e+08
-4.51721e+08
-4.52908e+08
-4.54094e+08
-4.55278e+08
-4.56462e+08
-4.57644e+08
-4.58824e+08
-4.60003e+08
-4.61181e+08
-4.62357e+08
-4.63532e+08
-4.64705e+08
-4.65877e+08
-4.67047e+08
-4.68216e+08
-4.69383e+08
-4.70548e+08
-4.71712e+08
-4.72874e+08
-4.74034e+08
-4.75192e+08
-4.76349e+08
-4.77504e+08
-4.78657e+08
-4.79809e+08
-4.80958e+08
-4.82106e+08
-4.83251e+08
-4.84395e+08
-4.85537e+08
-4.86676e+08
-4.87814e+08
-4.8895e+08
-4.90083e+08
-4.91215e+08
-4.92344e+08
-4.93471e+08
-4.94596e+08
-4.95719e+08
-4.9684e+08
-4.97958e+08
-4.99074e+08
-5.00188e+08
-5.01299e+08
-5.02408e+08
-5.03515e+08
-5.04619e+08
-5.05721e+08
-5.0682e+08
-5.07917e+08
-5.09012e+08
-5.10103e+08
-5.11193e+08
-5.12279e+08
-5.13363e+08
-5.14445e+08
-5.15523e+08
-5.16599e+08
-5.17672e+08
-5.18743e+08
-5.19811e+08
-5.20875e+08
-5.21938e+08
-5.22997e+08
-5.24053e+08
-5.25106e+08
-5.26157e+08
-5.27205e+08
-5.28249e+08
-5.29291e+08
-5.30329e+08
-5.31365e+08
-5.32397e+08
-5.33426e+08
-5.34452e+08
-5.35475e+08
-5.36495e+08
-5.37511e+08
-5.38525e+08
-5.39535e+08
-5.40541e+08
-5.41545e+08
-5.42545e+08
-5.43542e+08
-5.44535e+08
-5.45525e+08
-5.46511e+08
-5.47494e+08
-5.48474e+08
-5.4945e+08
-5.50422e+08
-5.51391e+08
-5.52356e+08
-5.53318e+08
-5.54276e+08
-5.5523e+08
-5.56181e+08
-5.57128e+08
-5.58071e+08
-5.5901e+08
-5.59946e+08
-5.60878e+08
-5.61806e+08
-5.6273e+08
-5.6365e+08
-5.64566e+08
-5.65479e+08
-5.66387e+08
-5.67292e+08
-5.68192e+08
-5.69089e+08
-5.69981e+08
-5.70869e+08
-5.71753e+08
-5.72633e+08
-5.73509e+08
-5.74381e+08
-5.75249e+08
-5.76112e+08
-5.76971e+08
-5.77826e+08
-5.78676e+08
-5.79522e+08
-5.80364e+08
-5.81202e+08
-5.82035e+08
-5.82864e+08
-5.83688e+08
-5.84508e+08
-5.85323e+08
-5.86134e+08
-5.86941e+08
-5.87742e+08
-5.8854e+08
-5.89332e+08
-5.90121e+08
-5.90904e+08
-5.91683e+08
-5.92457e+08
-5.93227e+08
-5.93991e+08
-5.94751e+08
-5.95507e+08
-5.96257e+08
-5.97003e+08
-5.97744e+08
-5.9848e+08
-5.99211e+08
-5.99938e+08
-6.00659e+08
-6.01376e+08
-6.02087e+08
-6.02794e+08
-6.03496e+08
-6.04192e+08
-6.04884e+08
-6.05571e+08
-6.06252e+08
-6.06929e+08
-6.076e+08
-6.08266e+08
-6.08927e+08
-6.09583e+08
-6.10234e+08
-6.1088e+08
-6.1152e+08
-6.12156e+08
-6.12786e+08
-6.1341e+08
-6.1403e+08
-6.14644e+08
-6.15253e+08
-6.15856e+08
-6.16454e+08
-6.17047e+08
-6.17634e+08
-6.18216e+08
-6.18793e+08
-6.19364e+08
-6.19929e+08
-6.2049e+08
-6.21044e+08
-6.21593e+08
-6.22137e+08
-6.22675e+08
-6.23208e+08
-6.23734e+08
-6.24256e+08
-6.24772e+08
-6.25282e+08
-6.25786e+08
-6.26285e+08
-6.26778e+08
-6.27266e+08
-6.27748e+08
-6.28224e+08
-6.28694e+08
-6.29159e+08
-6.29618e+08
-6.30071e+08
-6.30518e+08
-6.3096e+08
-6.31395e+08
-6.31825e+08
-6.32249e+08
-6.32667e+08
-6.3308e+08
-6.33486e+08
-6.33887e+08
-6.34282e+08
-6.3467e+08
-6.35053e+08
-6.3543e+08
-6.35801e+08
-6.36166e+08
-6.36525e+08
-6.36878e+08
-6.37225e+08
-6.37566e+08
-6.37901e+08
-6.3823e+08
-6.38553e+08
-6.3887e+08
-6.3918e+08
-6.39485e+08
-6.39784e+08
-6.40076e+08
-6.40363e+08
-6.40643e+08
-6.40917e+08
-6.41185e+08
-6.41447e+08
-6.41703e+08
-6.41952e+08
-6.42196e+08
-6.42433e+08
-6.42664e+08
-6.42889e+08
-6.43107e+08
-6.4332e+08
-6.43526e+08
-6.43726e+08
-6.43919e+08
-6.44107e+08
-6.44288e+08
-6.44463e+08
-6.44632e+08
-6.44794e+08
-6.4495e+08
-6.451e+08
-6.45243e+08
-6.45381e+08
-6.45511e+08
-6.45636e+08
-6.45754e+08
-6.45866e+08
-6.45972e+08
-6.46071e+08
-6.46164e+08
-6.46251e+08
-6.46331e+08
-6.46405e+08
-6.46472e+08
-6.46533e+08
-6.46588e+08
-6.46636e+08
-6.46678e+08
-6.46714e+08
-6.46743e+08
-6.46766e+08
-6.46782e+08
-6.46792e+08
-6.46796e+08
-6.46793e+08
-6.46784e+08
-6.46768e+08
-6.46746e+08
-6.46718e+08
-6.46683e+08
-6.46642e+08
-6.46594e+08
-6.4654e+08
-6.46479e+08
-6.46412e+08
-6.46339e+08
-6.46259e+08
-6.46173e+08
-6.4608e+08
-6.45981e+08
-6.45876e+08
-6.45765e+08
360.105
59672.1
-18309.6
29497.9
14519.6
9102.03
2474.35
-5278.63
-14170.1
-24202.3
-35375.6
-47688.7
-61141.7
-75735.7
-91470.3
-108344
-126357
-145510
-165803
-187237
-209812
-233530
-258391
-284395
-311545
-339840
-369282
-399872
-431610
-464498
-498535
-533725
-570068
-607565
-646217
-686026
-726993
-769119
-812405
-856854
-902465
-949241
-997184
-1.04629e+06
-1.09657e+06
-1.14802e+06
-1.20064e+06
-1.25444e+06
-1.30941e+06
-1.36556e+06
-1.42289e+06
-1.4814e+06
-1.54109e+06
-1.60196e+06
-1.66403e+06
-1.72728e+06
-1.79172e+06
-1.85735e+06
-1.92418e+06
-1.9922e+06
-2.06142e+06
-2.13184e+06
-2.20347e+06
-2.2763e+06
-2.35033e+06
-2.42558e+06
-2.50204e+06
-2.57971e+06
-2.65859e+06
-2.7387e+06
-2.82002e+06
-2.90257e+06
-2.98635e+06
-3.07135e+06
-3.15759e+06
-3.24506e+06
-3.33376e+06
-3.42371e+06
-3.51489e+06
-3.60732e+06
-3.701e+06
-3.79592e+06
-3.8921e+06
-3.98953e+06
-4.08823e+06
-4.18818e+06
-4.2894e+06
-4.39188e+06
-4.49564e+06
-4.60067e+06
-4.70697e+06
-4.81455e+06
-4.92342e+06
-5.03357e+06
-5.14501e+06
-5.25774e+06
-5.37177e+06
-5.4871e+06
-5.60372e+06
-5.72166e+06
-5.8409e+06
-5.96145e+06
-6.08332e+06
-6.20651e+06
-6.33102e+06
-6.45686e+06
-6.58402e+06
-6.71252e+06
-6.84236e+06
-6.97354e+06
-7.10606e+06
-7.23993e+06
-7.37515e+06
-7.51172e+06
-7.64966e+06
-7.78895e+06
-7.92962e+06
-8.07165e+06
-8.21506e+06
-8.35985e+06
-8.50602e+06
-8.65357e+06
-8.80252e+06
-8.95286e+06
-9.1046e+06
-9.25775e+06
-9.41229e+06
-9.56826e+06
-9.72563e+06
-9.88443e+06
-1.00446e+07
-1.02063e+07
-1.03694e+07
-1.05339e+07
-1.06998e+07
-1.08672e+07
-1.10361e+07
-1.12064e+07
-1.13782e+07
-1.15514e+07
-1.17261e+07
-1.19022e+07
-1.20799e+07
-1.2259e+07
-1.24396e+07
-1.26217e+07
-1.28053e+07
-1.29904e+07
-1.3177e+07
-1.33651e+07
-1.35547e+07
-1.37459e+07
-1.39385e+07
-1.41327e+07
-1.43285e+07
-1.45257e+07
-1.47245e+07
-1.49249e+07
-1.51268e+07
-1.53302e+07
-1.55353e+07
-1.57419e+07
-1.595e+07
-1.61598e+07
-1.63711e+07
-1.6584e+07
-1.67985e+07
-1.70146e+07
-1.72323e+07
-1.74516e+07
-1.76725e+07
-1.78951e+07
-1.81193e+07
-1.83451e+07
-1.85725e+07
-1.88016e+07
-1.90323e+07
-1.92646e+07
-1.94986e+07
-1.97343e+07
-1.99717e+07
-2.02107e+07
-2.04514e+07
-2.06938e+07
-2.09378e+07
-2.11836e+07
-2.1431e+07
-2.16802e+07
-2.1931e+07
-2.21836e+07
-2.24379e+07
-2.26939e+07
-2.29517e+07
-2.32112e+07
-2.34724e+07
-2.37354e+07
-2.40002e+07
-2.42666e+07
-2.45349e+07
-2.48049e+07
-2.50767e+07
-2.53503e+07
-2.56257e+07
-2.59029e+07
-2.61818e+07
-2.64626e+07
-2.67452e+07
-2.70296e+07
-2.73158e+07
-2.76039e+07
-2.78937e+07
-2.81855e+07
-2.8479e+07
-2.87744e+07
-2.90717e+07
-2.93708e+07
-2.96718e+07
-2.99747e+07
-3.02794e+07
-3.05861e+07
-3.08946e+07
-3.1205e+07
-3.15173e+07
-3.18316e+07
-3.21477e+07
-3.24658e+07
-3.27858e+07
-3.31077e+07
-3.34316e+07
-3.37574e+07
-3.40851e+07
-3.44148e+07
-3.47465e+07
-3.50801e+07
-3.54157e+07
-3.57533e+07
-3.60929e+07
-3.64345e+07
-3.6778e+07
-3.71236e+07
-3.74712e+07
-3.78208e+07
-3.81724e+07
-3.8526e+07
-3.88817e+07
-3.92394e+07
-3.95991e+07
-3.99609e+07
-4.03248e+07
-4.06907e+07
-4.10587e+07
-4.14287e+07
-4.18008e+07
-4.21751e+07
-4.25514e+07
-4.29298e+07
-4.33103e+07
-4.36929e+07
-4.40776e+07
-4.44645e+07
-4.48535e+07
-4.52446e+07
-4.56378e+07
-4.60332e+07
-4.64307e+07
-4.68304e+07
-4.72323e+07
-4.76363e+07
-4.80425e+07
-4.84509e+07
-4.88614e+07
-4.92742e+07
-4.96891e+07
-5.01063e+07
-5.05256e+07
-5.09472e+07
-5.1371e+07
-5.1797e+07
-5.22252e+07
-5.26557e+07
-5.30884e+07
-5.35233e+07
-5.39605e+07
-5.44e+07
-5.48417e+07
-5.52857e+07
-5.5732e+07
-5.61806e+07
-5.66314e+07
-5.70845e+07
-5.754e+07
-5.79977e+07
-5.84577e+07
-5.89201e+07
-5.93848e+07
-5.98518e+07
-6.03211e+07
-6.07927e+07
-6.12667e+07
-6.17431e+07
-6.22218e+07
-6.27028e+07
-6.31862e+07
-6.3672e+07
-6.41602e+07
-6.46507e+07
-6.51436e+07
-6.56389e+07
-6.61366e+07
-6.66367e+07
-6.71391e+07
-6.7644e+07
-6.81513e+07
-6.86611e+07
-6.91732e+07
-6.96878e+07
-7.02048e+07
-7.07242e+07
-7.12461e+07
-7.17704e+07
-7.22972e+07
-7.28265e+07
-7.33582e+07
-7.38923e+07
-7.4429e+07
-7.49681e+07
-7.55097e+07
-7.60538e+07
-7.66003e+07
-7.71494e+07
-7.77009e+07
-7.8255e+07
-7.88116e+07
-7.93706e+07
-7.99322e+07
-8.04963e+07
-8.1063e+07
-8.16321e+07
-8.22038e+07
-8.2778e+07
-8.33548e+07
-8.39341e+07
-8.4516e+07
-8.51004e+07
-8.56874e+07
-8.62769e+07
-8.6869e+07
-8.74637e+07
-8.80609e+07
-8.86608e+07
-8.92631e+07
-8.98681e+07
-9.04757e+07
-9.10858e+07
-9.16986e+07
-9.23139e+07
-9.29319e+07
-9.35524e+07
-9.41756e+07
-9.48014e+07
-9.54298e+07
-9.60608e+07
-9.66944e+07
-9.73306e+07
-9.79695e+07
-9.8611e+07
-9.92552e+07
-9.99019e+07
-1.00551e+08
-1.01203e+08
-1.01858e+08
-1.02515e+08
-1.03175e+08
-1.03838e+08
-1.04503e+08
-1.05171e+08
-1.05842e+08
-1.06515e+08
-1.07191e+08
-1.0787e+08
-1.08551e+08
-1.09235e+08
-1.09922e+08
-1.10611e+08
-1.11303e+08
-1.11998e+08
-1.12695e+08
-1.13395e+08
-1.14098e+08
-1.14803e+08
-1.15511e+08
-1.16222e+08
-1.16935e+08
-1.17651e+08
-1.1837e+08
-1.19092e+08
-1.19816e+08
-1.20543e+08
-1.21273e+08
-1.22005e+08
-1.2274e+08
-1.23478e+08
-1.24218e+08
-1.24961e+08
-1.25707e+08
-1.26456e+08
-1.27207e+08
-1.27961e+08
-1.28718e+08
-1.29477e+08
-1.30239e+08
-1.31004e+08
-1.31772e+08
-1.32542e+08
-1.33315e+08
-1.3409e+08
-1.34869e+08
-1.3565e+08
-1.36434e+08
-1.3722e+08
-1.38009e+08
-1.38801e+08
-1.39596e+08
-1.40393e+08
-1.41193e+08
-1.41996e+08
-1.42801e+08
-1.43609e+08
-1.4442e+08
-1.45234e+08
-1.4605e+08
-1.46869e+08
-1.4769e+08
-1.48515e+08
-1.49342e+08
-1.50172e+08
-1.51004e+08
-1.51839e+08
-1.52677e+08
-1.53517e+08
-1.54361e+08
-1.55206e+08
-1.56055e+08
-1.56906e+08
-1.5776e+08
-1.58617e+08
-1.59476e+08
-1.60338e+08
-1.61202e+08
-1.62069e+08
-1.62939e+08
-1.63812e+08
-1.64687e+08
-1.65565e+08
-1.66446e+08
-1.67329e+08
-1.68215e+08
-1.69103e+08
-1.69994e+08
-1.70888e+08
-1.71784e+08
-1.72683e+08
-1.73585e+08
-1.74489e+08
-1.75396e+08
-1.76305e+08
-1.77217e+08
-1.78132e+08
-1.79049e+08
-1.79969e+08
-1.80892e+08
-1.81817e+08
-1.82744e+08
-1.83674e+08
-1.84607e+08
-1.85543e+08
-1.8648e+08
-1.87421e+08
-1.88364e+08
-1.89309e+08
-1.90257e+08
-1.91208e+08
-1.92161e+08
-1.93117e+08
-1.94075e+08
-1.95036e+08
-1.95999e+08
-1.96965e+08
-1.97933e+08
-1.98904e+08
-1.99877e+08
-2.00853e+08
-2.01831e+08
-2.02811e+08
-2.03794e+08
-2.0478e+08
-2.05768e+08
-2.06758e+08
-2.07751e+08
-2.08746e+08
-2.09744e+08
-2.10744e+08
-2.11746e+08
-2.12751e+08
-2.13758e+08
-2.14768e+08
-2.1578e+08
-2.16794e+08
-2.17811e+08
-2.1883e+08
-2.19851e+08
-2.20875e+08
-2.21901e+08
-2.22929e+08
-2.2396e+08
-2.24993e+08
-2.26028e+08
-2.27065e+08
-2.28105e+08
-2.29147e+08
-2.30191e+08
-2.31238e+08
-2.32286e+08
-2.33337e+08
-2.3439e+08
-2.35446e+08
-2.36503e+08
-2.37563e+08
-2.38625e+08
-2.39689e+08
-2.40755e+08
-2.41823e+08
-2.42894e+08
-2.43966e+08
-2.45041e+08
-2.46117e+08
-2.47196e+08
-2.48277e+08
-2.4936e+08
-2.50445e+08
-2.51532e+08
-2.52621e+08
-2.53712e+08
-2.54805e+08
-2.55901e+08
-2.56998e+08
-2.58097e+08
-2.59198e+08
-2.60301e+08
-2.61405e+08
-2.62512e+08
-2.63621e+08
-2.64732e+08
-2.65844e+08
-2.66958e+08
-2.68075e+08
-2.69193e+08
-2.70313e+08
-2.71434e+08
-2.72558e+08
-2.73683e+08
-2.7481e+08
-2.75939e+08
-2.7707e+08
-2.78202e+08
-2.79336e+08
-2.80472e+08
-2.81609e+08
-2.82748e+08
-2.83889e+08
-2.85031e+08
-2.86176e+08
-2.87321e+08
-2.88469e+08
-2.89617e+08
-2.90768e+08
-2.9192e+08
-2.93073e+08
-2.94229e+08
-2.95385e+08
-2.96543e+08
-2.97703e+08
-2.98864e+08
-3.00027e+08
-3.01191e+08
-3.02356e+08
-3.03523e+08
-3.04691e+08
-3.05861e+08
-3.07031e+08
-3.08204e+08
-3.09377e+08
-3.10552e+08
-3.11728e+08
-3.12906e+08
-3.14085e+08
-3.15264e+08
-3.16446e+08
-3.17628e+08
-3.18812e+08
-3.19996e+08
-3.21182e+08
-3.22369e+08
-3.23557e+08
-3.24747e+08
-3.25937e+08
-3.27128e+08
-3.28321e+08
-3.29514e+08
-3.30709e+08
-3.31904e+08
-3.33101e+08
-3.34298e+08
-3.35496e+08
-3.36695e+08
-3.37896e+08
-3.39097e+08
-3.40298e+08
-3.41501e+08
-3.42705e+08
-3.43909e+08
-3.45114e+08
-3.4632e+08
-3.47527e+08
-3.48734e+08
-3.49942e+08
-3.51151e+08
-3.5236e+08
-3.5357e+08
-3.54781e+08
-3.55992e+08
-3.57204e+08
-3.58416e+08
-3.59629e+08
-3.60843e+08
-3.62056e+08
-3.63271e+08
-3.64486e+08
-3.65701e+08
-3.66917e+08
-3.68133e+08
-3.6935e+08
-3.70566e+08
-3.71784e+08
-3.73001e+08
-3.74219e+08
-3.75437e+08
-3.76655e+08
-3.77874e+08
-3.79093e+08
-3.80312e+08
-3.81531e+08
-3.8275e+08
-3.83969e+08
-3.85189e+08
-3.86408e+08
-3.87628e+08
-3.88847e+08
-3.90067e+08
-3.91286e+08
-3.92506e+08
-3.93725e+08
-3.94945e+08
-3.96164e+08
-3.97383e+08
-3.98602e+08
-3.99821e+08
-4.01039e+08
-4.02258e+08
-4.03476e+08
-4.04693e+08
-4.05911e+08
-4.07128e+08
-4.08345e+08
-4.09562e+08
-4.10778e+08
-4.11993e+08
-4.13209e+08
-4.14423e+08
-4.15638e+08
-4.16852e+08
-4.18065e+08
-4.19277e+08
-4.2049e+08
-4.21701e+08
-4.22912e+08
-4.24122e+08
-4.25332e+08
-4.26541e+08
-4.27749e+08
-4.28956e+08
-4.30163e+08
-4.31369e+08
-4.32574e+08
-4.33778e+08
-4.34981e+08
-4.36183e+08
-4.37385e+08
-4.38585e+08
-4.39785e+08
-4.40983e+08
-4.42181e+08
-4.43377e+08
-4.44573e+08
-4.45767e+08
-4.4696e+08
-4.48152e+08
-4.49343e+08
-4.50533e+08
-4.51721e+08
-4.52908e+08
-4.54094e+08
-4.55279e+08
-4.56462e+08
-4.57644e+08
-4.58824e+08
-4.60003e+08
-4.61181e+08
-4.62357e+08
-4.63532e+08
-4.64705e+08
-4.65877e+08
-4.67047e+08
-4.68216e+08
-4.69383e+08
-4.70548e+08
-4.71712e+08
-4.72874e+08
-4.74034e+08
-4.75193e+08
-4.76349e+08
-4.77504e+08
-4.78657e+08
-4.79809e+08
-4.80958e+08
-4.82106e+08
-4.83252e+08
-4.84395e+08
-4.85537e+08
-4.86677e+08
-4.87814e+08
-4.8895e+08
-4.90084e+08
-4.91215e+08
-4.92345e+08
-4.93472e+08
-4.94597e+08
-4.9572e+08
-4.9684e+08
-4.97959e+08
-4.99075e+08
-5.00188e+08
-5.013e+08
-5.02409e+08
-5.03515e+08
-5.0462e+08
-5.05722e+08
-5.06821e+08
-5.07918e+08
-5.09012e+08
-5.10104e+08
-5.11193e+08
-5.1228e+08
-5.13364e+08
-5.14445e+08
-5.15524e+08
-5.166e+08
-5.17673e+08
-5.18743e+08
-5.19811e+08
-5.20876e+08
-5.21938e+08
-5.22997e+08
-5.24054e+08
-5.25107e+08
-5.26158e+08
-5.27205e+08
-5.2825e+08
-5.29291e+08
-5.3033e+08
-5.31365e+08
-5.32397e+08
-5.33427e+08
-5.34453e+08
-5.35476e+08
-5.36495e+08
-5.37512e+08
-5.38525e+08
-5.39535e+08
-5.40542e+08
-5.41545e+08
-5.42546e+08
-5.43542e+08
-5.44536e+08
-5.45525e+08
-5.46512e+08
-5.47495e+08
-5.48474e+08
-5.4945e+08
-5.50423e+08
-5.51392e+08
-5.52357e+08
-5.53319e+08
-5.54277e+08
-5.55231e+08
-5.56182e+08
-5.57129e+08
-5.58072e+08
-5.59011e+08
-5.59947e+08
-5.60879e+08
-5.61807e+08
-5.62731e+08
-5.63651e+08
-5.64567e+08
-5.6548e+08
-5.66388e+08
-5.67293e+08
-5.68193e+08
-5.69089e+08
-5.69982e+08
-5.7087e+08
-5.71754e+08
-5.72634e+08
-5.7351e+08
-5.74382e+08
-5.75249e+08
-5.76113e+08
-5.76972e+08
-5.77827e+08
-5.78677e+08
-5.79523e+08
-5.80365e+08
-5.81203e+08
-5.82036e+08
-5.82865e+08
-5.83689e+08
-5.84509e+08
-5.85324e+08
-5.86135e+08
-5.86942e+08
-5.87743e+08
-5.88541e+08
-5.89333e+08
-5.90122e+08
-5.90905e+08
-5.91684e+08
-5.92458e+08
-5.93228e+08
-5.93992e+08
-5.94752e+08
-5.95508e+08
-5.96258e+08
-5.97004e+08
-5.97745e+08
-5.98481e+08
-5.99212e+08
-5.99939e+08
-6.0066e+08
-6.01377e+08
-6.02088e+08
-6.02795e+08
-6.03497e+08
-6.04193e+08
-6.04885e+08
-6.05572e+08
-6.06253e+08
-6.0693e+08
-6.07601e+08
-6.08267e+08
-6.08929e+08
-6.09585e+08
-6.10235e+08
-6.10881e+08
-6.11522e+08
-6.12157e+08
-6.12787e+08
-6.13411e+08
-6.14031e+08
-6.14645e+08
-6.15254e+08
-6.15857e+08
-6.16455e+08
-6.17048e+08
-6.17635e+08
-6.18217e+08
-6.18794e+08
-6.19365e+08
-6.19931e+08
-6.20491e+08
-6.21045e+08
-6.21595e+08
-6.22138e+08
-6.22676e+08
-6.23209e+08
-6.23736e+08
-6.24257e+08
-6.24773e+08
-6.25283e+08
-6.25788e+08
-6.26286e+08
-6.2678e+08
-6.27267e+08
-6.27749e+08
-6.28225e+08
-6.28695e+08
-6.2916e+08
-6.29619e+08
-6.30072e+08
-6.30519e+08
-6.30961e+08
-6.31397e+08
-6.31827e+08
-6.32251e+08
-6.32669e+08
-6.33081e+08
-6.33488e+08
-6.33888e+08
-6.34283e+08
-6.34672e+08
-6.35054e+08
-6.35431e+08
-6.35802e+08
-6.36167e+08
-6.36526e+08
-6.36879e+08
-6.37226e+08
-6.37567e+08
-6.37902e+08
-6.38231e+08
-6.38554e+08
-6.38871e+08
-6.39182e+08
-6.39486e+08
-6.39785e+08
-6.40078e+08
-6.40364e+08
-6.40644e+08
-6.40918e+08
-6.41186e+08
-6.41448e+08
-6.41704e+08
-6.41954e+08
-6.42197e+08
-6.42434e+08
-6.42665e+08
-6.4289e+08
-6.43109e+08
-6.43321e+08
-6.43527e+08
-6.43727e+08
-6.43921e+08
-6.44108e+08
-6.44289e+08
-6.44464e+08
-6.44633e+08
-6.44795e+08
-6.44951e+08
-6.45101e+08
-6.45245e+08
-6.45382e+08
-6.45513e+08
-6.45637e+08
-6.45756e+08
-6.45868e+08
-6.45973e+08
-6.46073e+08
-6.46165e+08
-6.46252e+08
-6.46332e+08
-6.46406e+08
-6.46474e+08
-6.46535e+08
-6.46589e+08
-6.46638e+08
-6.4668e+08
-6.46715e+08
-6.46745e+08
-6.46767e+08
-6.46784e+08
-6.46794e+08
-6.46797e+08
-6.46795e+08
-6.46785e+08
-6.4677e+08
-6.46748e+08
-6.46719e+08
-6.46685e+08
-6.46643e+08
-6.46596e+08
-6.46541e+08
-6.46481e+08
-6.46414e+08
-6.4634e+08
-6.46261e+08
-6.46174e+08
-6.46082e+08
-6.45983e+08
-6.45877e+08
-6.45766e+08
880.859
60179.8
-17812.4
29996.3
14989.4
9562.69
2923.16
-4861.09
-13776.6
-23822.9
-35006.5
-47326
-60783
-75378.8
-91114.3
-107988
-126001
-145153
-165445
-186878
-209453
-233170
-258030
-284034
-311183
-339478
-368920
-399510
-431248
-464135
-498173
-533363
-569706
-607203
-645856
-685665
-726632
-768758
-812045
-856493
-902105
-948881
-996824
-1.04593e+06
-1.09621e+06
-1.14766e+06
-1.20029e+06
-1.25408e+06
-1.30905e+06
-1.3652e+06
-1.42253e+06
-1.48104e+06
-1.54073e+06
-1.60161e+06
-1.66367e+06
-1.72692e+06
-1.79136e+06
-1.85699e+06
-1.92382e+06
-1.99184e+06
-2.06106e+06
-2.13148e+06
-2.20311e+06
-2.27594e+06
-2.34997e+06
-2.42522e+06
-2.50168e+06
-2.57935e+06
-2.65823e+06
-2.73834e+06
-2.81967e+06
-2.90222e+06
-2.98599e+06
-3.07099e+06
-3.15723e+06
-3.2447e+06
-3.3334e+06
-3.42335e+06
-3.51453e+06
-3.60696e+06
-3.70064e+06
-3.79556e+06
-3.89174e+06
-3.98917e+06
-4.08787e+06
-4.18782e+06
-4.28904e+06
-4.39152e+06
-4.49528e+06
-4.6003e+06
-4.70661e+06
-4.81419e+06
-4.92306e+06
-5.03321e+06
-5.14465e+06
-5.25738e+06
-5.37141e+06
-5.48673e+06
-5.60336e+06
-5.72129e+06
-5.84054e+06
-5.96109e+06
-6.08296e+06
-6.20615e+06
-6.33066e+06
-6.45649e+06
-6.58366e+06
-6.71216e+06
-6.84199e+06
-6.97317e+06
-7.10569e+06
-7.23956e+06
-7.37478e+06
-7.51135e+06
-7.64928e+06
-7.78858e+06
-7.92924e+06
-8.07128e+06
-8.21469e+06
-8.35947e+06
-8.50564e+06
-8.6532e+06
-8.80215e+06
-8.95249e+06
-9.10423e+06
-9.25737e+06
-9.41192e+06
-9.56788e+06
-9.72525e+06
-9.88405e+06
-1.00443e+07
-1.02059e+07
-1.0369e+07
-1.05335e+07
-1.06995e+07
-1.08669e+07
-1.10357e+07
-1.1206e+07
-1.13778e+07
-1.1551e+07
-1.17257e+07
-1.19019e+07
-1.20795e+07
-1.22586e+07
-1.24392e+07
-1.26213e+07
-1.28049e+07
-1.299e+07
-1.31766e+07
-1.33647e+07
-1.35543e+07
-1.37455e+07
-1.39381e+07
-1.41323e+07
-1.43281e+07
-1.45253e+07
-1.47241e+07
-1.49245e+07
-1.51264e+07
-1.53298e+07
-1.55349e+07
-1.57415e+07
-1.59496e+07
-1.61594e+07
-1.63707e+07
-1.65836e+07
-1.67981e+07
-1.70142e+07
-1.72319e+07
-1.74512e+07
-1.76721e+07
-1.78947e+07
-1.81188e+07
-1.83446e+07
-1.85721e+07
-1.88011e+07
-1.90319e+07
-1.92642e+07
-1.94982e+07
-1.97339e+07
-1.99713e+07
-2.02103e+07
-2.0451e+07
-2.06933e+07
-2.09374e+07
-2.11831e+07
-2.14306e+07
-2.16798e+07
-2.19306e+07
-2.21832e+07
-2.24375e+07
-2.26935e+07
-2.29513e+07
-2.32108e+07
-2.3472e+07
-2.3735e+07
-2.39997e+07
-2.42662e+07
-2.45345e+07
-2.48045e+07
-2.50763e+07
-2.53499e+07
-2.56253e+07
-2.59024e+07
-2.61814e+07
-2.64622e+07
-2.67448e+07
-2.70291e+07
-2.73154e+07
-2.76034e+07
-2.78933e+07
-2.8185e+07
-2.84786e+07
-2.8774e+07
-2.90712e+07
-2.93704e+07
-2.96714e+07
-2.99742e+07
-3.0279e+07
-3.05856e+07
-3.08941e+07
-3.12046e+07
-3.15169e+07
-3.18311e+07
-3.21472e+07
-3.24653e+07
-3.27853e+07
-3.31072e+07
-3.34311e+07
-3.37569e+07
-3.40846e+07
-3.44144e+07
-3.4746e+07
-3.50797e+07
-3.54153e+07
-3.57529e+07
-3.60924e+07
-3.6434e+07
-3.67776e+07
-3.71231e+07
-3.74707e+07
-3.78203e+07
-3.81719e+07
-3.85255e+07
-3.88812e+07
-3.92389e+07
-3.95986e+07
-3.99604e+07
-4.03243e+07
-4.06902e+07
-4.10582e+07
-4.14282e+07
-4.18003e+07
-4.21746e+07
-4.25509e+07
-4.29293e+07
-4.33098e+07
-4.36924e+07
-4.40771e+07
-4.4464e+07
-4.48529e+07
-4.5244e+07
-4.56373e+07
-4.60327e+07
-4.64302e+07
-4.68299e+07
-4.72318e+07
-4.76358e+07
-4.8042e+07
-4.84503e+07
-4.88609e+07
-4.92736e+07
-4.96886e+07
-5.01057e+07
-5.05251e+07
-5.09466e+07
-5.13704e+07
-5.17964e+07
-5.22247e+07
-5.26551e+07
-5.30878e+07
-5.35228e+07
-5.396e+07
-5.43995e+07
-5.48412e+07
-5.52852e+07
-5.57315e+07
-5.618e+07
-5.66309e+07
-5.7084e+07
-5.75394e+07
-5.79971e+07
-5.84572e+07
-5.89195e+07
-5.93842e+07
-5.98512e+07
-6.03205e+07
-6.07922e+07
-6.12662e+07
-6.17425e+07
-6.22212e+07
-6.27023e+07
-6.31857e+07