/*--------------------------------*- C++ -*----------------------------------*\
| =========                 |                                                 |
| \\      /  F ield         | OpenFOAM: The Open Source CFD Toolbox           |
|  \\    /   O peration     | Version:  2512                                  |
|   \\  /    A nd           | Website:  www.openfoam.com                      |
|    \\/     M anipulation  |                                                 |
\*---------------------------------------------------------------------------*/
FoamFile
{
    version     2.0;
    format      ascii;
    arch        "LSB;label=32;scalar=64";
    class       volScalarField;
    location    "1e-05";
    object      p_rgh;
}
// * * * * * * * * * * * * * * * * * * * * * * * * * * * * * * * * * * * * * //

dimensions      [1 -1 -2 0 0 0 0];

internalField   nonuniform List<scalar> 
100000
(
-5.46396e+09
-5.4639e+09
-5.46398e+09
-5.46393e+09
-5.46394e+09
-5.46395e+09
-5.46395e+09
-5.46396e+09
-5.46397e+09
-5.46398e+09
-5.46399e+09
-5.464e+09
-5.46402e+09
-5.46403e+09
-5.46405e+09
-5.46407e+09
-5.46408e+09
-5.4641e+09
-5.46412e+09
-5.46414e+09
-5.46417e+09
-5.46419e+09
-5.46422e+09
-5.46424e+09
-5.46427e+09
-5.4643e+09
-5.46433e+09
-5.46436e+09
-5.46439e+09
-5.46442e+09
-5.46446e+09
-5.46449e+09
-5.46453e+09
-5.46456e+09
-5.4646e+09
-5.46464e+09
-5.46468e+09
-5.46473e+09
-5.46477e+09
-5.46481e+09
-5.46486e+09
-5.46491e+09
-5.46495e+09
-5.465e+09
-5.46505e+09
-5.46511e+09
-5.46516e+09
-5.46521e+09
-5.46527e+09
-5.46532e+09
-5.46538e+09
-5.46544e+09
-5.4655e+09
-5.46556e+09
-5.46562e+09
-5.46568e+09
-5.46575e+09
-5.46581e+09
-5.46588e+09
-5.46595e+09
-5.46602e+09
-5.46609e+09
-5.46616e+09
-5.46623e+09
-5.46631e+09
-5.46638e+09
-5.46646e+09
-5.46654e+09
-5.46662e+09
-5.4667e+09
-5.46678e+09
-5.46686e+09
-5.46694e+09
-5.46703e+09
-5.46711e+09
-5.4672e+09
-5.46729e+09
-5.46738e+09
-5.46747e+09
-5.46756e+09
-5.46766e+09
-5.46775e+09
-5.46785e+09
-5.46795e+09
-5.46805e+09
-5.46815e+09
-5.46825e+09
-5.46835e+09
-5.46845e+09
-5.46856e+09
-5.46866e+09
-5.46877e+09
-5.46888e+09
-5.46899e+09
-5.4691e+09
-5.46921e+09
-5.46933e+09
-5.46944e+09
-5.46956e+09
-5.46968e+09
-5.4698e+09
-5.46992e+09
-5.47004e+09
-5.47016e+09
-5.47029e+09
-5.47041e+09
-5.47054e+09
-5.47067e+09
-5.4708e+09
-5.47093e+09
-5.47106e+09
-5.4712e+09
-5.47133e+09
-5.47147e+09
-5.47161e+09
-5.47175e+09
-5.47189e+09
-5.47203e+09
-5.47217e+09
-5.47232e+09
-5.47246e+09
-5.47261e+09
-5.47276e+09
-5.47291e+09
-5.47306e+09
-5.47321e+09
-5.47337e+09
-5.47353e+09
-5.47368e+09
-5.47384e+09
-5.474e+09
-5.47416e+09
-5.47433e+09
-5.47449e+09
-5.47466e+09
-5.47482e+09
-5.47499e+09
-5.47516e+09
-5.47534e+09
-5.47551e+09
-5.47568e+09
-5.47586e+09
-5.47604e+09
-5.47622e+09
-5.4764e+09
-5.47658e+09
-5.47676e+09
-5.47695e+09
-5.47713e+09
-5.47732e+09
-5.47751e+09
-5.4777e+09
-5.4779e+09
-5.47809e+09
-5.47829e+09
-5.47848e+09
-5.47868e+09
-5.47888e+09
-5.47908e+09
-5.47929e+09
-5.47949e+09
-5.4797e+09
-5.47991e+09
-5.48012e+09
-5.48033e+09
-5.48054e+09
-5.48076e+09
-5.48097e+09
-5.48119e+09
-5.48141e+09
-5.48163e+09
-5.48185e+09
-5.48208e+09
-5.4823e+09
-5.48253e+09
-5.48276e+09
-5.48299e+09
-5.48322e+09
-5.48346e+09
-5.48369e+09
-5.48393e+09
-5.48417e+09
-5.48441e+09
-5.48465e+09
-5.4849e+09
-5.48514e+09
-5.48539e+09
-5.48564e+09
-5.48589e+09
-5.48614e+09
-5.4864e+09
-5.48665e+09
-5.48691e+09
-5.48717e+09
-5.48743e+09
-5.48769e+09
-5.48796e+09
-5.48822e+09
-5.48849e+09
-5.48876e+09
-5.48903e+09
-5.48931e+09
-5.48958e+09
-5.48986e+09
-5.49014e+09
-5.49042e+09
-5.4907e+09
-5.49099e+09
-5.49127e+09
-5.49156e+09
-5.49185e+09
-5.49214e+09
-5.49244e+09
-5.49273e+09
-5.49303e+09
-5.49333e+09
-5.49363e+09
-5.49393e+09
-5.49424e+09
-5.49454e+09
-5.49485e+09
-5.49516e+09
-5.49547e+09
-5.49579e+09
-5.4961e+09
-5.49642e+09
-5.49674e+09
-5.49706e+09
-5.49739e+09
-5.49771e+09
-5.49804e+09
-5.49837e+09
-5.4987e+09
-5.49904e+09
-5.49937e+09
-5.49971e+09
-5.50005e+09
-5.50039e+09
-5.50074e+09
-5.50108e+09
-5.50143e+09
-5.50178e+09
-5.50213e+09
-5.50248e+09
-5.50284e+09
-5.5032e+09
-5.50356e+09
-5.50392e+09
-5.50428e+09
-5.50465e+09
-5.50502e+09
-5.50539e+09
-5.50576e+09
-5.50613e+09
-5.50651e+09
-5.50689e+09
-5.50727e+09
-5.50765e+09
-5.50803e+09
-5.50842e+09
-5.50881e+09
-5.5092e+09
-5.5096e+09
-5.50999e+09
-5.51039e+09
-5.51079e+09
-5.51119e+09
-5.51159e+09
-5.512e+09
-5.51241e+09
-5.51282e+09
-5.51323e+09
-5.51365e+09
-5.51406e+09
-5.51448e+09
-5.5149e+09
-5.51533e+09
-5.51575e+09
-5.51618e+09
-5.51661e+09
-5.51705e+09
-5.51748e+09
-5.51792e+09
-5.51836e+09
-5.5188e+09
-5.51924e+09
-5.51969e+09
-5.52014e+09
-5.52059e+09
-5.52104e+09
-5.5215e+09
-5.52196e+09
-5.52242e+09
-5.52288e+09
-5.52334e+09
-5.52381e+09
-5.52428e+09
-5.52475e+09
-5.52522e+09
-5.5257e+09
-5.52618e+09
-5.52666e+09
-5.52714e+09
-5.52763e+09
-5.52812e+09
-5.52861e+09
-5.5291e+09
-5.5296e+09
-5.53009e+09
-5.53059e+09
-5.5311e+09
-5.5316e+09
-5.53211e+09
-5.53262e+09
-5.53313e+09
-5.53365e+09
-5.53416e+09
-5.53468e+09
-5.5352e+09
-5.53573e+09
-5.53625e+09
-5.53678e+09
-5.53732e+09
-5.53785e+09
-5.53839e+09
-5.53893e+09
-5.53947e+09
-5.54001e+09
-5.54056e+09
-5.54111e+09
-5.54166e+09
-5.54221e+09
-5.54277e+09
-5.54333e+09
-5.54389e+09
-5.54445e+09
-5.54502e+09
-5.54559e+09
-5.54616e+09
-5.54674e+09
-5.54731e+09
-5.54789e+09
-5.54847e+09
-5.54906e+09
-5.54964e+09
-5.55023e+09
-5.55083e+09
-5.55142e+09
-5.55202e+09
-5.55262e+09
-5.55322e+09
-5.55383e+09
-5.55443e+09
-5.55504e+09
-5.55566e+09
-5.55627e+09
-5.55689e+09
-5.55751e+09
-5.55813e+09
-5.55876e+09
-5.55939e+09
-5.56002e+09
-5.56065e+09
-5.56129e+09
-5.56193e+09
-5.56257e+09
-5.56321e+09
-5.56386e+09
-5.56451e+09
-5.56516e+09
-5.56582e+09
-5.56647e+09
-5.56713e+09
-5.5678e+09
-5.56846e+09
-5.56913e+09
-5.5698e+09
-5.57047e+09
-5.57115e+09
-5.57183e+09
-5.57251e+09
-5.57319e+09
-5.57388e+09
-5.57457e+09
-5.57526e+09
-5.57596e+09
-5.57665e+09
-5.57735e+09
-5.57806e+09
-5.57876e+09
-5.57947e+09
-5.58018e+09
-5.58089e+09
-5.58161e+09
-5.58233e+09
-5.58305e+09
-5.58377e+09
-5.5845e+09
-5.58523e+09
-5.58596e+09
-5.5867e+09
-5.58744e+09
-5.58818e+09
-5.58892e+09
-5.58966e+09
-5.59041e+09
-5.59116e+09
-5.59192e+09
-5.59268e+09
-5.59343e+09
-5.5942e+09
-5.59496e+09
-5.59573e+09
-5.5965e+09
-5.59727e+09
-5.59805e+09
-5.59883e+09
-5.59961e+09
-5.60039e+09
-5.60118e+09
-5.60197e+09
-5.60276e+09
-5.60355e+09
-5.60435e+09
-5.60515e+09
-5.60595e+09
-5.60676e+09
-5.60757e+09
-5.60838e+09
-5.60919e+09
-5.61001e+09
-5.61083e+09
-5.61165e+09
-5.61247e+09
-5.6133e+09
-5.61413e+09
-5.61496e+09
-5.6158e+09
-5.61663e+09
-5.61747e+09
-5.61832e+09
-5.61916e+09
-5.62001e+09
-5.62086e+09
-5.62172e+09
-5.62257e+09
-5.62343e+09
-5.6243e+09
-5.62516e+09
-5.62603e+09
-5.6269e+09
-5.62777e+09
-5.62864e+09
-5.62952e+09
-5.6304e+09
-5.63129e+09
-5.63217e+09
-5.63306e+09
-5.63395e+09
-5.63485e+09
-5.63574e+09
-5.63664e+09
-5.63754e+09
-5.63845e+09
-5.63935e+09
-5.64026e+09
-5.64117e+09
-5.64209e+09
-5.64301e+09
-5.64393e+09
-5.64485e+09
-5.64577e+09
-5.6467e+09
-5.64763e+09
-5.64856e+09
-5.6495e+09
-5.65044e+09
-5.65138e+09
-5.65232e+09
-5.65327e+09
-5.65421e+09
-5.65517e+09
-5.65612e+09
-5.65707e+09
-5.65803e+09
-5.65899e+09
-5.65996e+09
-5.66092e+09
-5.66189e+09
-5.66286e+09
-5.66383e+09
-5.66481e+09
-5.66579e+09
-5.66677e+09
-5.66775e+09
-5.66874e+09
-5.66973e+09
-5.67072e+09
-5.67171e+09
-5.6727e+09
-5.6737e+09
-5.6747e+09
-5.6757e+09
-5.67671e+09
-5.67772e+09
-5.67873e+09
-5.67974e+09
-5.68075e+09
-5.68177e+09
-5.68279e+09
-5.68381e+09
-5.68483e+09
-5.68586e+09
-5.68689e+09
-5.68792e+09
-5.68895e+09
-5.68999e+09
-5.69102e+09
-5.69206e+09
-5.6931e+09
-5.69415e+09
-5.6952e+09
-5.69624e+09
-5.69729e+09
-5.69835e+09
-5.6994e+09
-5.70046e+09
-5.70152e+09
-5.70258e+09
-5.70365e+09
-5.70471e+09
-5.70578e+09
-5.70685e+09
-5.70792e+09
-5.709e+09
-5.71007e+09
-5.71115e+09
-5.71223e+09
-5.71332e+09
-5.7144e+09
-5.71549e+09
-5.71658e+09
-5.71767e+09
-5.71876e+09
-5.71986e+09
-5.72095e+09
-5.72205e+09
-5.72315e+09
-5.72426e+09
-5.72536e+09
-5.72647e+09
-5.72758e+09
-5.72869e+09
-5.7298e+09
-5.73092e+09
-5.73203e+09
-5.73315e+09
-5.73427e+09
-5.73539e+09
-5.73652e+09
-5.73764e+09
-5.73877e+09
-5.7399e+09
-5.74103e+09
-5.74216e+09
-5.74329e+09
-5.74443e+09
-5.74557e+09
-5.74671e+09
-5.74785e+09
-5.74899e+09
-5.75013e+09
-5.75128e+09
-5.75243e+09
-5.75357e+09
-5.75473e+09
-5.75588e+09
-5.75703e+09
-5.75819e+09
-5.75934e+09
-5.7605e+09
-5.76166e+09
-5.76282e+09
-5.76398e+09
-5.76515e+09
-5.76631e+09
-5.76748e+09
-5.76865e+09
-5.76982e+09
-5.77099e+09
-5.77216e+09
-5.77333e+09
-5.77451e+09
-5.77569e+09
-5.77686e+09
-5.77804e+09
-5.77922e+09
-5.7804e+09
-5.78159e+09
-5.78277e+09
-5.78395e+09
-5.78514e+09
-5.78633e+09
-5.78751e+09
-5.7887e+09
-5.78989e+09
-5.79109e+09
-5.79228e+09
-5.79347e+09
-5.79467e+09
-5.79586e+09
-5.79706e+09
-5.79825e+09
-5.79945e+09
-5.80065e+09
-5.80185e+09
-5.80305e+09
-5.80426e+09
-5.80546e+09
-5.80666e+09
-5.80787e+09
-5.80907e+09
-5.81028e+09
-5.81148e+09
-5.81269e+09
-5.8139e+09
-5.81511e+09
-5.81632e+09
-5.81753e+09
-5.81874e+09
-5.81995e+09
-5.82116e+09
-5.82237e+09
-5.82359e+09
-5.8248e+09
-5.82601e+09
-5.82723e+09
-5.82844e+09
-5.82966e+09
-5.83087e+09
-5.83209e+09
-5.83331e+09
-5.83452e+09
-5.83574e+09
-5.83696e+09
-5.83818e+09
-5.83939e+09
-5.84061e+09
-5.84183e+09
-5.84305e+09
-5.84427e+09
-5.84549e+09
-5.84671e+09
-5.84793e+09
-5.84915e+09
-5.85036e+09
-5.85158e+09
-5.8528e+09
-5.85402e+09
-5.85524e+09
-5.85646e+09
-5.85768e+09
-5.8589e+09
-5.86012e+09
-5.86134e+09
-5.86256e+09
-5.86378e+09
-5.865e+09
-5.86621e+09
-5.86743e+09
-5.86865e+09
-5.86987e+09
-5.87108e+09
-5.8723e+09
-5.87352e+09
-5.87473e+09
-5.87595e+09
-5.87717e+09
-5.87838e+09
-5.87959e+09
-5.88081e+09
-5.88202e+09
-5.88323e+09
-5.88445e+09
-5.88566e+09
-5.88687e+09
-5.88808e+09
-5.88929e+09
-5.8905e+09
-5.89171e+09
-5.89291e+09
-5.89412e+09
-5.89533e+09
-5.89653e+09
-5.89773e+09
-5.89894e+09
-5.90014e+09
-5.90134e+09
-5.90254e+09
-5.90374e+09
-5.90494e+09
-5.90614e+09
-5.90733e+09
-5.90853e+09
-5.90972e+09
-5.91092e+09
-5.91211e+09
-5.9133e+09
-5.91449e+09
-5.91568e+09
-5.91686e+09
-5.91805e+09
-5.91924e+09
-5.92042e+09
-5.9216e+09
-5.92278e+09
-5.92396e+09
-5.92514e+09
-5.92631e+09
-5.92749e+09
-5.92866e+09
-5.92983e+09
-5.931e+09
-5.93217e+09
-5.93334e+09
-5.9345e+09
-5.93567e+09
-5.93683e+09
-5.93799e+09
-5.93915e+09
-5.94031e+09
-5.94146e+09
-5.94261e+09
-5.94377e+09
-5.94491e+09
-5.94606e+09
-5.94721e+09
-5.94835e+09
-5.94949e+09
-5.95063e+09
-5.95177e+09
-5.95291e+09
-5.95404e+09
-5.95517e+09
-5.9563e+09
-5.95743e+09
-5.95855e+09
-5.95968e+09
-5.9608e+09
-5.96191e+09
-5.96303e+09
-5.96414e+09
-5.96526e+09
-5.96637e+09
-5.96747e+09
-5.96858e+09
-5.96968e+09
-5.97078e+09
-5.97187e+09
-5.97297e+09
-5.97406e+09
-5.97515e+09
-5.97624e+09
-5.97732e+09
-5.9784e+09
-5.97948e+09
-5.98056e+09
-5.98163e+09
-5.9827e+09
-5.98377e+09
-5.98483e+09
-5.98589e+09
-5.98695e+09
-5.98801e+09
-5.98906e+09
-5.99011e+09
-5.99116e+09
-5.99221e+09
-5.99325e+09
-5.99429e+09
-5.99532e+09
-5.99635e+09
-5.99738e+09
-5.99841e+09
-5.99943e+09
-6.00045e+09
-6.00147e+09
-6.00248e+09
-6.00349e+09
-6.0045e+09
-6.0055e+09
-6.0065e+09
-6.0075e+09
-6.00849e+09
-6.00948e+09
-6.01047e+09
-6.01145e+09
-6.01243e+09
-6.01341e+09
-6.01438e+09
-6.01535e+09
-6.01631e+09
-6.01727e+09
-6.01823e+09
-6.01919e+09
-6.02014e+09
-6.02108e+09
-6.02203e+09
-6.02297e+09
-6.0239e+09
-6.02483e+09
-6.02576e+09
-6.02669e+09
-6.02761e+09
-6.02852e+09
-6.02944e+09
-6.03034e+09
-6.03125e+09
-6.03215e+09
-6.03305e+09
-6.03394e+09
-6.03483e+09
-6.03571e+09
-6.03659e+09
-6.03747e+09
-6.03834e+09
-6.03921e+09
-6.04007e+09
-6.04093e+09
-6.04178e+09
-6.04263e+09
-6.04348e+09
-6.04432e+09
-6.04516e+09
-6.04599e+09
-6.04682e+09
-6.04764e+09
-6.04846e+09
-6.04928e+09
-6.05009e+09
-6.0509e+09
-6.0517e+09
-6.0525e+09
-6.05329e+09
-6.05408e+09
-6.05486e+09
-6.05564e+09
-6.05641e+09
-6.05718e+09
-6.05795e+09
-6.05871e+09
-6.05946e+09
-6.06021e+09
-6.06096e+09
-6.0617e+09
-6.06244e+09
-6.06317e+09
-6.06389e+09
-6.06462e+09
-6.06533e+09
-6.06604e+09
-6.06675e+09
-6.06745e+09
-6.06815e+09
-6.06884e+09
-6.06953e+09
-6.07021e+09
-6.07089e+09
-6.07156e+09
-6.07222e+09
-6.07288e+09
-6.07354e+09
-6.07419e+09
-6.07484e+09
-6.07548e+09
-6.07611e+09
-6.07674e+09
-6.07737e+09
-6.07799e+09
-6.0786e+09
-6.07921e+09
-6.07981e+09
-6.08041e+09
-6.081e+09
-6.08159e+09
-6.08217e+09
-6.08275e+09
-6.08332e+09
-6.08389e+09
-6.08445e+09
-6.085e+09
-6.08555e+09
-6.08609e+09
-6.08663e+09
-6.08716e+09
-6.08769e+09
-6.08821e+09
-6.08873e+09
-6.08924e+09
-6.08974e+09
-6.09024e+09
-6.09073e+09
-6.09122e+09
-6.0917e+09
-6.09218e+09
-6.09265e+09
-6.09312e+09
-6.09357e+09
-6.09403e+09
-6.09447e+09
-6.09492e+09
-6.09535e+09
-6.09578e+09
-6.09621e+09
-6.09662e+09
-6.09704e+09
-6.09744e+09
-6.09784e+09
-6.09824e+09
-6.09863e+09
-6.09901e+09
-6.09939e+09
-6.09976e+09
-6.10012e+09
-6.10048e+09
-6.10083e+09
-6.10118e+09
-6.10152e+09
-6.10186e+09
-6.10219e+09
-6.10251e+09
-6.10283e+09
-6.10314e+09
-6.10344e+09
-6.10374e+09
-6.10403e+09
-6.10432e+09
-6.1046e+09
-6.10487e+09
-6.10514e+09
-6.1054e+09
-6.10566e+09
-6.10591e+09
-6.10615e+09
-6.10639e+09
-6.10662e+09
-6.10685e+09
-6.10706e+09
-6.10728e+09
-6.10748e+09
-6.10768e+09
-6.10788e+09
-6.10806e+09
-6.10824e+09
-6.10842e+09
-6.10859e+09
-6.10875e+09
-6.10891e+09
-6.10906e+09
-6.1092e+09
-6.10934e+09
-6.10947e+09
-6.10959e+09
-6.10971e+09
-6.10982e+09
-6.10993e+09
-6.11003e+09
-6.11012e+09
-6.11021e+09
-6.11029e+09
-6.11036e+09
-6.11043e+09
-6.11049e+09
-6.11054e+09
-6.11059e+09
-6.11063e+09
-6.11067e+09
-6.1107e+09
-6.11072e+09
-6.11074e+09
-6.11075e+09
-6.11075e+09
-6.11075e+09
-6.11074e+09
-6.11072e+09
-6.1107e+09
-6.11067e+09
-6.11064e+09
-6.1106e+09
-6.11055e+09
-6.1105e+09
-6.11044e+09
-6.11037e+09
-6.1103e+09
-6.11022e+09
-6.11013e+09
-6.11004e+09
-6.10994e+09
-6.10983e+09
-6.10972e+09
-5.46396e+09
-5.4639e+09
-5.46397e+09
-5.46393e+09
-5.46394e+09
-5.46395e+09
-5.46395e+09
-5.46396e+09
-5.46397e+09
-5.46398e+09
-5.46399e+09
-5.464e+09
-5.46402e+09
-5.46403e+09
-5.46405e+09
-5.46407e+09
-5.46408e+09
-5.4641e+09
-5.46412e+09
-5.46414e+09
-5.46417e+09
-5.46419e+09
-5.46422e+09
-5.46424e+09
-5.46427e+09
-5.4643e+09
-5.46433e+09
-5.46436e+09
-5.46439e+09
-5.46442e+09
-5.46446e+09
-5.46449e+09
-5.46453e+09
-5.46456e+09
-5.4646e+09
-5.46464e+09
-5.46468e+09
-5.46473e+09
-5.46477e+09
-5.46481e+09
-5.46486e+09
-5.46491e+09
-5.46495e+09
-5.465e+09
-5.46505e+09
-5.4651e+09
-5.46516e+09
-5.46521e+09
-5.46527e+09
-5.46532e+09
-5.46538e+09
-5.46544e+09
-5.4655e+09
-5.46556e+09
-5.46562e+09
-5.46568e+09
-5.46575e+09
-5.46581e+09
-5.46588e+09
-5.46595e+09
-5.46602e+09
-5.46609e+09
-5.46616e+09
-5.46623e+09
-5.46631e+09
-5.46638e+09
-5.46646e+09
-5.46654e+09
-5.46662e+09
-5.4667e+09
-5.46678e+09
-5.46686e+09
-5.46694e+09
-5.46703e+09
-5.46711e+09
-5.4672e+09
-5.46729e+09
-5.46738e+09
-5.46747e+09
-5.46756e+09
-5.46766e+09
-5.46775e+09
-5.46785e+09
-5.46795e+09
-5.46804e+09
-5.46814e+09
-5.46825e+09
-5.46835e+09
-5.46845e+09
-5.46856e+09
-5.46866e+09
-5.46877e+09
-5.46888e+09
-5.46899e+09
-5.4691e+09
-5.46921e+09
-5.46933e+09
-5.46944e+09
-5.46956e+09
-5.46968e+09
-5.4698e+09
-5.46992e+09
-5.47004e+09
-5.47016e+09
-5.47029e+09
-5.47041e+09
-5.47054e+09
-5.47067e+09
-5.4708e+09
-5.47093e+09
-5.47106e+09
-5.4712e+09
-5.47133e+09
-5.47147e+09
-5.47161e+09
-5.47175e+09
-5.47189e+09
-5.47203e+09
-5.47217e+09
-5.47232e+09
-5.47246e+09
-5.47261e+09
-5.47276e+09
-5.47291e+09
-5.47306e+09
-5.47321e+09
-5.47337e+09
-5.47352e+09
-5.47368e+09
-5.47384e+09
-5.474e+09
-5.47416e+09
-5.47433e+09
-5.47449e+09
-5.47466e+09
-5.47482e+09
-5.47499e+09
-5.47516e+09
-5.47533e+09
-5.47551e+09
-5.47568e+09
-5.47586e+09
-5.47604e+09
-5.47622e+09
-5.4764e+09
-5.47658e+09
-5.47676e+09
-5.47695e+09
-5.47713e+09
-5.47732e+09
-5.47751e+09
-5.4777e+09
-5.4779e+09
-5.47809e+09
-5.47829e+09
-5.47848e+09
-5.47868e+09
-5.47888e+09
-5.47908e+09
-5.47929e+09
-5.47949e+09
-5.4797e+09
-5.47991e+09
-5.48012e+09
-5.48033e+09
-5.48054e+09
-5.48076e+09
-5.48097e+09
-5.48119e+09
-5.48141e+09
-5.48163e+09
-5.48185e+09
-5.48208e+09
-5.4823e+09
-5.48253e+09
-5.48276e+09
-5.48299e+09
-5.48322e+09
-5.48346e+09
-5.48369e+09
-5.48393e+09
-5.48417e+09
-5.48441e+09
-5.48465e+09
-5.48489e+09
-5.48514e+09
-5.48539e+09
-5.48564e+09
-5.48589e+09
-5.48614e+09
-5.48639e+09
-5.48665e+09
-5.48691e+09
-5.48717e+09
-5.48743e+09
-5.48769e+09
-5.48796e+09
-5.48822e+09
-5.48849e+09
-5.48876e+09
-5.48903e+09
-5.48931e+09
-5.48958e+09
-5.48986e+09
-5.49014e+09
-5.49042e+09
-5.4907e+09
-5.49099e+09
-5.49127e+09
-5.49156e+09
-5.49185e+09
-5.49214e+09
-5.49244e+09
-5.49273e+09
-5.49303e+09
-5.49333e+09
-5.49363e+09
-5.49393e+09
-5.49424e+09
-5.49454e+09
-5.49485e+09
-5.49516e+09
-5.49547e+09
-5.49579e+09
-5.4961e+09
-5.49642e+09
-5.49674e+09
-5.49706e+09
-5.49739e+09
-5.49771e+09
-5.49804e+09
-5.49837e+09
-5.4987e+09
-5.49904e+09
-5.49937e+09
-5.49971e+09
-5.50005e+09
-5.50039e+09
-5.50073e+09
-5.50108e+09
-5.50143e+09
-5.50178e+09
-5.50213e+09
-5.50248e+09
-5.50284e+09
-5.5032e+09
-5.50356e+09
-5.50392e+09
-5.50428e+09
-5.50465e+09
-5.50502e+09
-5.50539e+09
-5.50576e+09
-5.50613e+09
-5.50651e+09
-5.50689e+09
-5.50727e+09
-5.50765e+09
-5.50803e+09
-5.50842e+09
-5.50881e+09
-5.5092e+09
-5.50959e+09
-5.50999e+09
-5.51039e+09
-5.51079e+09
-5.51119e+09
-5.51159e+09
-5.512e+09
-5.51241e+09
-5.51282e+09
-5.51323e+09
-5.51365e+09
-5.51406e+09
-5.51448e+09
-5.5149e+09
-5.51533e+09
-5.51575e+09
-5.51618e+09
-5.51661e+09
-5.51705e+09
-5.51748e+09
-5.51792e+09
-5.51836e+09
-5.5188e+09
-5.51924e+09
-5.51969e+09
-5.52014e+09
-5.52059e+09
-5.52104e+09
-5.5215e+09
-5.52195e+09
-5.52241e+09
-5.52288e+09
-5.52334e+09
-5.52381e+09
-5.52428e+09
-5.52475e+09
-5.52522e+09
-5.5257e+09
-5.52618e+09
-5.52666e+09
-5.52714e+09
-5.52763e+09
-5.52812e+09
-5.52861e+09
-5.5291e+09
-5.5296e+09
-5.53009e+09
-5.53059e+09
-5.5311e+09
-5.5316e+09
-5.53211e+09
-5.53262e+09
-5.53313e+09
-5.53364e+09
-5.53416e+09
-5.53468e+09
-5.5352e+09
-5.53573e+09
-5.53625e+09
-5.53678e+09
-5.53731e+09
-5.53785e+09
-5.53839e+09
-5.53892e+09
-5.53947e+09
-5.54001e+09
-5.54056e+09
-5.54111e+09
-5.54166e+09
-5.54221e+09
-5.54277e+09
-5.54333e+09
-5.54389e+09
-5.54445e+09
-5.54502e+09
-5.54559e+09
-5.54616e+09
-5.54673e+09
-5.54731e+09
-5.54789e+09
-5.54847e+09
-5.54906e+09
-5.54964e+09
-5.55023e+09
-5.55083e+09
-5.55142e+09
-5.55202e+09
-5.55262e+09
-5.55322e+09
-5.55382e+09
-5.55443e+09
-5.55504e+09
-5.55566e+09
-5.55627e+09
-5.55689e+09
-5.55751e+09
-5.55813e+09
-5.55876e+09
-5.55939e+09
-5.56002e+09
-5.56065e+09
-5.56129e+09
-5.56193e+09
-5.56257e+09
-5.56321e+09
-5.56386e+09
-5.56451e+09
-5.56516e+09
-5.56581e+09
-5.56647e+09
-5.56713e+09
-5.56779e+09
-5.56846e+09
-5.56913e+09
-5.5698e+09
-5.57047e+09
-5.57115e+09
-5.57183e+09
-5.57251e+09
-5.57319e+09
-5.57388e+09
-5.57457e+09
-5.57526e+09
-5.57595e+09
-5.57665e+09
-5.57735e+09
-5.57805e+09
-5.57876e+09
-5.57947e+09
-5.58018e+09
-5.58089e+09
-5.58161e+09
-5.58233e+09
-5.58305e+09
-5.58377e+09
-5.5845e+09
-5.58523e+09
-5.58596e+09
-5.5867e+09
-5.58743e+09
-5.58817e+09
-5.58892e+09
-5.58966e+09
-5.59041e+09
-5.59116e+09
-5.59192e+09
-5.59267e+09
-5.59343e+09
-5.5942e+09
-5.59496e+09
-5.59573e+09
-5.5965e+09
-5.59727e+09
-5.59805e+09
-5.59883e+09
-5.59961e+09
-5.60039e+09
-5.60118e+09
-5.60197e+09
-5.60276e+09
-5.60355e+09
-5.60435e+09
-5.60515e+09
-5.60595e+09
-5.60676e+09
-5.60757e+09
-5.60838e+09
-5.60919e+09
-5.61001e+09
-5.61083e+09
-5.61165e+09
-5.61247e+09
-5.6133e+09
-5.61413e+09
-5.61496e+09
-5.6158e+09
-5.61663e+09
-5.61747e+09
-5.61832e+09
-5.61916e+09
-5.62001e+09
-5.62086e+09
-5.62172e+09
-5.62257e+09
-5.62343e+09
-5.62429e+09
-5.62516e+09
-5.62603e+09
-5.6269e+09
-5.62777e+09
-5.62864e+09
-5.62952e+09
-5.6304e+09
-5.63129e+09
-5.63217e+09
-5.63306e+09
-5.63395e+09
-5.63484e+09
-5.63574e+09
-5.63664e+09
-5.63754e+09
-5.63845e+09
-5.63935e+09
-5.64026e+09
-5.64117e+09
-5.64209e+09
-5.64301e+09
-5.64393e+09
-5.64485e+09
-5.64577e+09
-5.6467e+09
-5.64763e+09
-5.64856e+09
-5.6495e+09
-5.65044e+09
-5.65138e+09
-5.65232e+09
-5.65327e+09
-5.65421e+09
-5.65516e+09
-5.65612e+09
-5.65707e+09
-5.65803e+09
-5.65899e+09
-5.65996e+09
-5.66092e+09
-5.66189e+09
-5.66286e+09
-5.66383e+09
-5.66481e+09
-5.66579e+09
-5.66677e+09
-5.66775e+09
-5.66874e+09
-5.66972e+09
-5.67071e+09
-5.67171e+09
-5.6727e+09
-5.6737e+09
-5.6747e+09
-5.6757e+09
-5.67671e+09
-5.67771e+09
-5.67872e+09
-5.67974e+09
-5.68075e+09
-5.68177e+09
-5.68279e+09
-5.68381e+09
-5.68483e+09
-5.68586e+09
-5.68689e+09
-5.68792e+09
-5.68895e+09
-5.68998e+09
-5.69102e+09
-5.69206e+09
-5.6931e+09
-5.69415e+09
-5.69519e+09
-5.69624e+09
-5.69729e+09
-5.69835e+09
-5.6994e+09
-5.70046e+09
-5.70152e+09
-5.70258e+09
-5.70365e+09
-5.70471e+09
-5.70578e+09
-5.70685e+09
-5.70792e+09
-5.709e+09
-5.71007e+09
-5.71115e+09
-5.71223e+09
-5.71332e+09
-5.7144e+09
-5.71549e+09
-5.71658e+09
-5.71767e+09
-5.71876e+09
-5.71986e+09
-5.72095e+09
-5.72205e+09
-5.72315e+09
-5.72426e+09
-5.72536e+09
-5.72647e+09
-5.72758e+09
-5.72869e+09
-5.7298e+09
-5.73092e+09
-5.73203e+09
-5.73315e+09
-5.73427e+09
-5.73539e+09
-5.73651e+09
-5.73764e+09
-5.73877e+09
-5.7399e+09
-5.74103e+09
-5.74216e+09
-5.74329e+09
-5.74443e+09
-5.74557e+09
-5.7467e+09
-5.74785e+09
-5.74899e+09
-5.75013e+09
-5.75128e+09
-5.75243e+09
-5.75357e+09
-5.75472e+09
-5.75588e+09
-5.75703e+09
-5.75819e+09
-5.75934e+09
-5.7605e+09
-5.76166e+09
-5.76282e+09
-5.76398e+09
-5.76515e+09
-5.76631e+09
-5.76748e+09
-5.76865e+09
-5.76982e+09
-5.77099e+09
-5.77216e+09
-5.77333e+09
-5.77451e+09
-5.77569e+09
-5.77686e+09
-5.77804e+09
-5.77922e+09
-5.7804e+09
-5.78158e+09
-5.78277e+09
-5.78395e+09
-5.78514e+09
-5.78633e+09
-5.78751e+09
-5.7887e+09
-5.78989e+09
-5.79108e+09
-5.79228e+09
-5.79347e+09
-5.79467e+09
-5.79586e+09
-5.79706e+09
-5.79825e+09
-5.79945e+09
-5.80065e+09
-5.80185e+09
-5.80305e+09
-5.80426e+09
-5.80546e+09
-5.80666e+09
-5.80787e+09
-5.80907e+09
-5.81028e+09
-5.81148e+09
-5.81269e+09
-5.8139e+09
-5.81511e+09
-5.81632e+09
-5.81753e+09
-5.81874e+09
-5.81995e+09
-5.82116e+09
-5.82237e+09
-5.82359e+09
-5.8248e+09
-5.82601e+09
-5.82723e+09
-5.82844e+09
-5.82966e+09
-5.83087e+09
-5.83209e+09
-5.83331e+09
-5.83452e+09
-5.83574e+09
-5.83696e+09
-5.83818e+09
-5.83939e+09
-5.84061e+09
-5.84183e+09
-5.84305e+09
-5.84427e+09
-5.84549e+09
-5.84671e+09
-5.84793e+09
-5.84915e+09
-5.85036e+09
-5.85158e+09
-5.8528e+09
-5.85402e+09
-5.85524e+09
-5.85646e+09
-5.85768e+09
-5.8589e+09
-5.86012e+09
-5.86134e+09
-5.86256e+09
-5.86378e+09
-5.865e+09
-5.86621e+09
-5.86743e+09
-5.86865e+09
-5.86987e+09
-5.87108e+09
-5.8723e+09
-5.87352e+09
-5.87473e+09
-5.87595e+09
-5.87717e+09
-5.87838e+09
-5.87959e+09
-5.88081e+09
-5.88202e+09
-5.88323e+09
-5.88445e+09
-5.88566e+09
-5.88687e+09
-5.88808e+09
-5.88929e+09
-5.8905e+09
-5.89171e+09
-5.89291e+09
-5.89412e+09
-5.89533e+09
-5.89653e+09
-5.89773e+09
-5.89894e+09
-5.90014e+09
-5.90134e+09
-5.90254e+09
-5.90374e+09
-5.90494e+09
-5.90614e+09
-5.90733e+09
-5.90853e+09
-5.90972e+09
-5.91092e+09
-5.91211e+09
-5.9133e+09
-5.91449e+09
-5.91568e+09
-5.91686e+09
-5.91805e+09
-5.91924e+09
-5.92042e+09
-5.9216e+09
-5.92278e+09
-5.92396e+09
-5.92514e+09
-5.92631e+09
-5.92749e+09
-5.92866e+09
-5.92983e+09
-5.931e+09
-5.93217e+09
-5.93334e+09
-5.9345e+09
-5.93567e+09
-5.93683e+09
-5.93799e+09
-5.93915e+09
-5.94031e+09
-5.94146e+09
-5.94261e+09
-5.94377e+09
-5.94491e+09
-5.94606e+09
-5.94721e+09
-5.94835e+09
-5.94949e+09
-5.95063e+09
-5.95177e+09
-5.95291e+09
-5.95404e+09
-5.95517e+09
-5.9563e+09
-5.95743e+09
-5.95855e+09
-5.95968e+09
-5.9608e+09
-5.96192e+09
-5.96303e+09
-5.96415e+09
-5.96526e+09
-5.96637e+09
-5.96747e+09
-5.96858e+09
-5.96968e+09
-5.97078e+09
-5.97187e+09
-5.97297e+09
-5.97406e+09
-5.97515e+09
-5.97624e+09
-5.97732e+09
-5.9784e+09
-5.97948e+09
-5.98056e+09
-5.98163e+09
-5.9827e+09
-5.98377e+09
-5.98483e+09
-5.98589e+09
-5.98695e+09
-5.98801e+09
-5.98906e+09
-5.99011e+09
-5.99116e+09
-5.99221e+09
-5.99325e+09
-5.99429e+09
-5.99532e+09
-5.99635e+09
-5.99738e+09
-5.99841e+09
-5.99943e+09
-6.00045e+09
-6.00147e+09
-6.00248e+09
-6.00349e+09
-6.0045e+09
-6.0055e+09
-6.0065e+09
-6.0075e+09
-6.00849e+09
-6.00948e+09
-6.01047e+09
-6.01145e+09
-6.01243e+09
-6.01341e+09
-6.01438e+09
-6.01535e+09
-6.01631e+09
-6.01728e+09
-6.01823e+09
-6.01919e+09
-6.02014e+09
-6.02109e+09
-6.02203e+09
-6.02297e+09
-6.0239e+09
-6.02484e+09
-6.02576e+09
-6.02669e+09
-6.02761e+09
-6.02852e+09
-6.02944e+09
-6.03034e+09
-6.03125e+09
-6.03215e+09
-6.03305e+09
-6.03394e+09
-6.03483e+09
-6.03571e+09
-6.03659e+09
-6.03747e+09
-6.03834e+09
-6.03921e+09
-6.04007e+09
-6.04093e+09
-6.04178e+09
-6.04263e+09
-6.04348e+09
-6.04432e+09
-6.04516e+09
-6.04599e+09
-6.04682e+09
-6.04765e+09
-6.04847e+09
-6.04928e+09
-6.05009e+09
-6.0509e+09
-6.0517e+09
-6.0525e+09
-6.05329e+09
-6.05408e+09
-6.05486e+09
-6.05564e+09
-6.05641e+09
-6.05718e+09
-6.05795e+09
-6.05871e+09
-6.05946e+09
-6.06021e+09
-6.06096e+09
-6.0617e+09
-6.06244e+09
-6.06317e+09
-6.0639e+09
-6.06462e+09
-6.06533e+09
-6.06605e+09
-6.06675e+09
-6.06745e+09
-6.06815e+09
-6.06884e+09
-6.06953e+09
-6.07021e+09
-6.07089e+09
-6.07156e+09
-6.07222e+09
-6.07289e+09
-6.07354e+09
-6.07419e+09
-6.07484e+09
-6.07548e+09
-6.07611e+09
-6.07674e+09
-6.07737e+09
-6.07799e+09
-6.0786e+09
-6.07921e+09
-6.07981e+09
-6.08041e+09
-6.081e+09
-6.08159e+09
-6.08217e+09
-6.08275e+09
-6.08332e+09
-6.08389e+09
-6.08445e+09
-6.085e+09
-6.08555e+09
-6.08609e+09
-6.08663e+09
-6.08717e+09
-6.08769e+09
-6.08821e+09
-6.08873e+09
-6.08924e+09
-6.08974e+09
-6.09024e+09
-6.09074e+09
-6.09122e+09
-6.09171e+09
-6.09218e+09
-6.09265e+09
-6.09312e+09
-6.09358e+09
-6.09403e+09
-6.09448e+09
-6.09492e+09
-6.09535e+09
-6.09578e+09
-6.09621e+09
-6.09663e+09
-6.09704e+09
-6.09744e+09
-6.09784e+09
-6.09824e+09
-6.09863e+09
-6.09901e+09
-6.09939e+09
-6.09976e+09
-6.10012e+09
-6.10048e+09
-6.10084e+09
-6.10118e+09
-6.10152e+09
-6.10186e+09
-6.10219e+09
-6.10251e+09
-6.10283e+09
-6.10314e+09
-6.10344e+09
-6.10374e+09
-6.10403e+09
-6.10432e+09
-6.1046e+09
-6.10488e+09
-6.10514e+09
-6.10541e+09
-6.10566e+09
-6.10591e+09
-6.10615e+09
-6.10639e+09
-6.10662e+09
-6.10685e+09
-6.10707e+09
-6.10728e+09
-6.10748e+09
-6.10768e+09
-6.10788e+09
-6.10806e+09
-6.10825e+09
-6.10842e+09
-6.10859e+09
-6.10875e+09
-6.10891e+09
-6.10906e+09
-6.1092e+09
-6.10934e+09
-6.10947e+09
-6.10959e+09
-6.10971e+09
-6.10982e+09
-6.10993e+09
-6.11003e+09
-6.11012e+09
-6.11021e+09
-6.11029e+09
-6.11036e+09
-6.11043e+09
-6.11049e+09
-6.11055e+09
-6.11059e+09
-6.11064e+09
-6.11067e+09
-6.1107e+09
-6.11072e+09
-6.11074e+09
-6.11075e+09
-6.11075e+09
-6.11075e+09
-6.11074e+09
-6.11073e+09
-6.1107e+09
-6.11068e+09
-6.11064e+09
-6.1106e+09
-6.11055e+09
-6.1105e+09
-6.11044e+09
-6.11037e+09
-6.1103e+09
-6.11022e+09
-6.11013e+09
-6.11004e+09
-6.10994e+09
-6.10983e+09
-6.10972e+09
-5.46396e+09
-5.4639e+09
-5.46397e+09
-5.46393e+09
-5.46394e+09
-5.46395e+09
-5.46395e+09
-5.46396e+09
-5.46397e+09
-5.46398e+09
-5.46399e+09
-5.464e+09
-5.46402e+09
-5.46403e+09
-5.46405e+09
-5.46406e+09
-5.46408e+09
-5.4641e+09
-5.46412e+09
-5.46414e+09
-5.46417e+09
-5.46419e+09
-5.46421e+09
-5.46424e+09
-5.46427e+09
-5.4643e+09
-5.46433e+09
-5.46436e+09
-5.46439e+09
-5.46442e+09
-5.46445e+09
-5.46449e+09
-5.46453e+09
-5.46456e+09
-5.4646e+09
-5.46464e+09
-5.46468e+09
-5.46473e+09
-5.46477e+09
-5.46481e+09
-5.46486e+09
-5.46491e+09
-5.46495e+09
-5.465e+09
-5.46505e+09
-5.4651e+09
-5.46516e+09
-5.46521e+09
-5.46527e+09
-5.46532e+09
-5.46538e+09
-5.46544e+09
-5.4655e+09
-5.46556e+09
-5.46562e+09
-5.46568e+09
-5.46575e+09
-5.46581e+09
-5.46588e+09
-5.46595e+09
-5.46602e+09
-5.46609e+09
-5.46616e+09
-5.46623e+09
-5.46631e+09
-5.46638e+09
-5.46646e+09
-5.46654e+09
-5.46661e+09
-5.4667e+09
-5.46678e+09
-5.46686e+09
-5.46694e+09
-5.46703e+09
-5.46711e+09
-5.4672e+09
-5.46729e+09
-5.46738e+09
-5.46747e+09
-5.46756e+09
-5.46766e+09
-5.46775e+09
-5.46785e+09
-5.46795e+09
-5.46804e+09
-5.46814e+09
-5.46825e+09
-5.46835e+09
-5.46845e+09
-5.46856e+09
-5.46866e+09
-5.46877e+09
-5.46888e+09
-5.46899e+09
-5.4691e+09
-5.46921e+09
-5.46933e+09
-5.46944e+09
-5.46956e+09
-5.46968e+09
-5.4698e+09
-5.46992e+09
-5.47004e+09
-5.47016e+09
-5.47029e+09
-5.47041e+09
-5.47054e+09
-5.47067e+09
-5.4708e+09
-5.47093e+09
-5.47106e+09
-5.4712e+09
-5.47133e+09
-5.47147e+09
-5.47161e+09
-5.47175e+09
-5.47189e+09
-5.47203e+09
-5.47217e+09
-5.47232e+09
-5.47246e+09
-5.47261e+09
-5.47276e+09
-5.47291e+09
-5.47306e+09
-5.47321e+09
-5.47337e+09
-5.47352e+09
-5.47368e+09
-5.47384e+09
-5.474e+09
-5.47416e+09
-5.47433e+09
-5.47449e+09
-5.47466e+09
-5.47482e+09
-5.47499e+09
-5.47516e+09
-5.47533e+09
-5.47551e+09
-5.47568e+09
-5.47586e+09
-5.47604e+09
-5.47622e+09
-5.4764e+09
-5.47658e+09
-5.47676e+09
-5.47695e+09
-5.47713e+09
-5.47732e+09
-5.47751e+09
-5.4777e+09
-5.47789e+09
-5.47809e+09
-5.47828e+09
-5.47848e+09
-5.47868e+09
-5.47888e+09
-5.47908e+09
-5.47929e+09
-5.47949e+09
-5.4797e+09
-5.47991e+09
-5.48012e+09
-5.48033e+09
-5.48054e+09
-5.48075e+09
-5.48097e+09
-5.48119e+09
-5.48141e+09
-5.48163e+09
-5.48185e+09
-5.48208e+09
-5.4823e+09
-5.48253e+09
-5.48276e+09
-5.48299e+09
-5.48322e+09
-5.48345e+09
-5.48369e+09
-5.48393e+09
-5.48417e+09
-5.48441e+09
-5.48465e+09
-5.48489e+09
-5.48514e+09
-5.48539e+09
-5.48564e+09
-5.48589e+09
-5.48614e+09
-5.48639e+09
-5.48665e+09
-5.48691e+09
-5.48717e+09
-5.48743e+09
-5.48769e+09
-5.48796e+09
-5.48822e+09
-5.48849e+09
-5.48876e+09
-5.48903e+09
-5.48931e+09
-5.48958e+09
-5.48986e+09
-5.49014e+09
-5.49042e+09
-5.4907e+09
-5.49099e+09
-5.49127e+09
-5.49156e+09
-5.49185e+09
-5.49214e+09
-5.49244e+09
-5.49273e+09
-5.49303e+09
-5.49333e+09
-5.49363e+09
-5.49393e+09
-5.49424e+09
-5.49454e+09
-5.49485e+09
-5.49516e+09
-5.49547e+09
-5.49579e+09
-5.4961e+09
-5.49642e+09
-5.49674e+09
-5.49706e+09
-5.49739e+09
-5.49771e+09
-5.49804e+09
-5.49837e+09
-5.4987e+09
-5.49904e+09
-5.49937e+09
-5.49971e+09
-5.50005e+09
-5.50039e+09
-5.50073e+09
-5.50108e+09
-5.50143e+09
-5.50178e+09
-5.50213e+09
-5.50248e+09
-5.50284e+09
-5.5032e+09
-5.50356e+09
-5.50392e+09
-5.50428e+09
-5.50465e+09
-5.50501e+09
-5.50538e+09
-5.50576e+09
-5.50613e+09
-5.50651e+09
-5.50689e+09