/*--------------------------------*- C++ -*----------------------------------*\
| =========                 |                                                 |
| \\      /  F ield         | OpenFOAM: The Open Source CFD Toolbox           |
|  \\    /   O peration     | Version:  2512                                  |
|   \\  /    A nd           | Website:  www.openfoam.com                      |
|    \\/     M anipulation  |                                                 |
\*---------------------------------------------------------------------------*/
FoamFile
{
    version     2.0;
    format      ascii;
    arch        "LSB;label=32;scalar=64";
    class       volScalarField;
    location    "1e-05";
    object      pB;
}
// * * * * * * * * * * * * * * * * * * * * * * * * * * * * * * * * * * * * * //

dimensions      [1 1 -3 0 0 -1 0];

internalField   nonuniform List<scalar> 
100000
(
-181.27
-36.4848
-90.6417
-43.2257
-48.0524
-45.4723
-44.6661
-44.6366
-45.0705
-45.7916
-46.6939
-47.7105
-48.7975
-49.9255
-51.074
-52.2288
-53.3799
-54.5201
-55.6443
-56.7488
-57.8312
-58.8896
-59.9229
-60.9304
-61.9118
-62.8668
-63.7956
-64.6983
-65.5754
-66.4271
-67.254
-68.0565
-68.8353
-69.5909
-70.3238
-71.0347
-71.724
-72.3925
-73.0406
-73.669
-74.2783
-74.8688
-75.4414
-75.9963
-76.5343
-77.0557
-77.5611
-78.051
-78.5258
-78.986
-79.4321
-79.8644
-80.2834
-80.6895
-81.0832
-81.4646
-81.8344
-82.1927
-82.5401
-82.8767
-83.203
-83.5192
-83.8256
-84.1227
-84.4106
-84.6896
-84.9601
-85.2222
-85.4763
-85.7226
-85.9613
-86.1927
-86.417
-86.6344
-86.8451
-87.0494
-87.2474
-87.4393
-87.6253
-87.8057
-87.9805
-88.1499
-88.3142
-88.4735
-88.6278
-88.7775
-88.9226
-89.0633
-89.1996
-89.3319
-89.4601
-89.5844
-89.7049
-89.8218
-89.9352
-90.045
-90.1516
-90.2549
-90.3551
-90.4523
-90.5466
-90.6379
-90.7266
-90.8126
-90.8959
-90.9768
-91.0553
-91.1314
-91.2052
-91.2768
-91.3463
-91.4138
-91.4792
-91.5427
-91.6042
-91.664
-91.722
-91.7783
-91.8329
-91.886
-91.9374
-91.9874
-92.0359
-92.083
-92.1288
-92.1732
-92.2163
-92.2582
-92.2988
-92.3383
-92.3767
-92.414
-92.4503
-92.4855
-92.5197
-92.5529
-92.5853
-92.6167
-92.6473
-92.677
-92.7059
-92.734
-92.7613
-92.7879
-92.8138
-92.8389
-92.8635
-92.8873
-92.9105
-92.9332
-92.9552
-92.9767
-92.9976
-93.018
-93.0378
-93.0572
-93.0761
-93.0945
-93.1125
-93.13
-93.1471
-93.1638
-93.1802
-93.1961
-93.2116
-93.2268
-93.2417
-93.2562
-93.2704
-93.2843
-93.2978
-93.3111
-93.3242
-93.3369
-93.3494
-93.3616
-93.3736
-93.3854
-93.3969
-93.4082
-93.4193
-93.4302
-93.4409
-93.4514
-93.4617
-93.4719
-93.4818
-93.4916
-93.5013
-93.5108
-93.5201
-93.5293
-93.5384
-93.5473
-93.5562
-93.5649
-93.5735
-93.5819
-93.5903
-93.5986
-93.6068
-93.6148
-93.6228
-93.6307
-93.6385
-93.6463
-93.6539
-93.6615
-93.669
-93.6765
-93.6838
-93.6912
-93.6984
-93.7056
-93.7128
-93.7199
-93.727
-93.734
-93.741
-93.748
-93.7549
-93.7618
-93.7687
-93.7755
-93.7823
-93.7891
-93.7958
-93.8025
-93.8092
-93.8159
-93.8226
-93.8292
-93.8358
-93.8425
-93.8491
-93.8556
-93.8622
-93.8688
-93.8753
-93.8819
-93.8885
-93.895
-93.9016
-93.9081
-93.9147
-93.9212
-93.9278
-93.9343
-93.9409
-93.9475
-93.9541
-93.9607
-93.9673
-93.9739
-93.9806
-93.9872
-93.9939
-94.0006
-94.0072
-94.0139
-94.0207
-94.0274
-94.0341
-94.0409
-94.0477
-94.0545
-94.0613
-94.0682
-94.075
-94.0819
-94.0888
-94.0958
-94.1027
-94.1097
-94.1167
-94.1237
-94.1308
-94.1379
-94.145
-94.1521
-94.1593
-94.1665
-94.1737
-94.1809
-94.1882
-94.1955
-94.2028
-94.2102
-94.2176
-94.225
-94.2324
-94.2399
-94.2474
-94.2549
-94.2625
-94.2701
-94.2778
-94.2854
-94.2931
-94.3009
-94.3086
-94.3164
-94.3243
-94.3321
-94.34
-94.348
-94.356
-94.364
-94.372
-94.3801
-94.3882
-94.3963
-94.4045
-94.4127
-94.421
-94.4293
-94.4376
-94.446
-94.4544
-94.4628
-94.4713
-94.4798
-94.4884
-94.497
-94.5056
-94.5143
-94.523
-94.5318
-94.5405
-94.5494
-94.5582
-94.5671
-94.5761
-94.585
-94.5941
-94.6031
-94.6122
-94.6214
-94.6305
-94.6398
-94.649
-94.6583
-94.6677
-94.6771
-94.6865
-94.6959
-94.7055
-94.715
-94.7246
-94.7342
-94.7439
-94.7536
-94.7634
-94.7732
-94.783
-94.7929
-94.8028
-94.8128
-94.8228
-94.8328
-94.8429
-94.853
-94.8632
-94.8734
-94.8837
-94.894
-94.9043
-94.9147
-94.9252
-94.9356
-94.9462
-94.9567
-94.9673
-94.978
-94.9887
-94.9994
-95.0102
-95.021
-95.0319
-95.0428
-95.0537
-95.0647
-95.0758
-95.0869
-95.098
-95.1092
-95.1204
-95.1316
-95.1429
-95.1543
-95.1657
-95.1771
-95.1886
-95.2001
-95.2116
-95.2232
-95.2349
-95.2466
-95.2583
-95.2701
-95.2819
-95.2937
-95.3056
-95.3176
-95.3296
-95.3416
-95.3537
-95.3658
-95.3779
-95.3901
-95.4024
-95.4146
-95.427
-95.4393
-95.4517
-95.4642
-95.4767
-95.4892
-95.5018
-95.5144
-95.5271
-95.5398
-95.5525
-95.5653
-95.5782
-95.5911
-95.604
-95.6169
-95.6299
-95.643
-95.6561
-95.6692
-95.6824
-95.6956
-95.7089
-95.7222
-95.7355
-95.7489
-95.7623
-95.7758
-95.7893
-95.8029
-95.8165
-95.8301
-95.8438
-95.8575
-95.8713
-95.8851
-95.8989
-95.9128
-95.9267
-95.9407
-95.9547
-95.9688
-95.9829
-95.997
-96.0112
-96.0254
-96.0397
-96.054
-96.0684
-96.0828
-96.0972
-96.1117
-96.1262
-96.1407
-96.1553
-96.17
-96.1846
-96.1994
-96.2141
-96.2289
-96.2438
-96.2586
-96.2736
-96.2885
-96.3035
-96.3186
-96.3337
-96.3488
-96.364
-96.3792
-96.3944
-96.4097
-96.425
-96.4404
-96.4558
-96.4712
-96.4867
-96.5023
-96.5178
-96.5334
-96.5491
-96.5647
-96.5805
-96.5962
-96.612
-96.6279
-96.6437
-96.6596
-96.6756
-96.6916
-96.7076
-96.7237
-96.7398
-96.7559
-96.7721
-96.7883
-96.8046
-96.8209
-96.8372
-96.8536
-96.87
-96.8864
-96.9029
-96.9194
-96.9359
-96.9525
-96.9691
-96.9858
-97.0025
-97.0192
-97.036
-97.0528
-97.0696
-97.0864
-97.1033
-97.1203
-97.1372
-97.1542
-97.1713
-97.1883
-97.2054
-97.2226
-97.2397
-97.2569
-97.2742
-97.2914
-97.3087
-97.3261
-97.3434
-97.3608
-97.3783
-97.3957
-97.4132
-97.4307
-97.4483
-97.4659
-97.4835
-97.5011
-97.5188
-97.5365
-97.5543
-97.572
-97.5898
-97.6077
-97.6255
-97.6434
-97.6613
-97.6793
-97.6972
-97.7152
-97.7333
-97.7513
-97.7694
-97.7875
-97.8056
-97.8238
-97.842
-97.8602
-97.8784
-97.8967
-97.915
-97.9333
-97.9517
-97.97
-97.9884
-98.0069
-98.0253
-98.0438
-98.0623
-98.0808
-98.0993
-98.1179
-98.1364
-98.155
-98.1737
-98.1923
-98.211
-98.2297
-98.2484
-98.2671
-98.2859
-98.3047
-98.3234
-98.3423
-98.3611
-98.3799
-98.3988
-98.4177
-98.4366
-98.4555
-98.4745
-98.4934
-98.5124
-98.5314
-98.5504
-98.5694
-98.5885
-98.6075
-98.6266
-98.6457
-98.6648
-98.6839
-98.703
-98.7222
-98.7413
-98.7605
-98.7797
-98.7989
-98.8181
-98.8373
-98.8565
-98.8757
-98.895
-98.9142
-98.9335
-98.9528
-98.9721
-98.9914
-99.0107
-99.03
-99.0493
-99.0686
-99.0879
-99.1073
-99.1266
-99.146
-99.1653
-99.1847
-99.204
-99.2234
-99.2428
-99.2622
-99.2815
-99.3009
-99.3203
-99.3397
-99.3591
-99.3785
-99.3978
-99.4172
-99.4366
-99.456
-99.4754
-99.4947
-99.5141
-99.5335
-99.5529
-99.5722
-99.5916
-99.611
-99.6303
-99.6497
-99.669
-99.6883
-99.7076
-99.727
-99.7463
-99.7656
-99.7849
-99.8041
-99.8234
-99.8427
-99.8619
-99.8812
-99.9004
-99.9196
-99.9388
-99.958
-99.9772
-99.9963
-100.015
-100.035
-100.054
-100.073
-100.092
-100.111
-100.13
-100.149
-100.168
-100.187
-100.206
-100.225
-100.244
-100.263
-100.282
-100.3
-100.319
-100.338
-100.357
-100.376
-100.394
-100.413
-100.432
-100.45
-100.469
-100.488
-100.506
-100.525
-100.543
-100.562
-100.58
-100.599
-100.617
-100.635
-100.654
-100.672
-100.69
-100.708
-100.727
-100.745
-100.763
-100.781
-100.799
-100.817
-100.835
-100.853
-100.871
-100.889
-100.906
-100.924
-100.942
-100.959
-100.977
-100.995
-101.012
-101.029
-101.047
-101.064
-101.081
-101.099
-101.116
-101.133
-101.15
-101.167
-101.184
-101.201
-101.218
-101.234
-101.251
-101.268
-101.284
-101.301
-101.317
-101.333
-101.35
-101.366
-101.382
-101.398
-101.414
-101.43
-101.445
-101.461
-101.476
-101.492
-101.507
-101.522
-101.538
-101.553
-101.568
-101.582
-101.597
-101.612
-101.626
-101.641
-101.655
-101.669
-101.683
-101.697
-101.711
-101.724
-101.738
-101.751
-101.764
-101.777
-101.79
-101.803
-101.815
-101.828
-101.84
-101.852
-101.864
-101.876
-101.887
-101.899
-101.91
-101.921
-101.932
-101.942
-101.952
-101.963
-101.973
-101.982
-101.992
-102.001
-102.01
-102.019
-102.027
-102.035
-102.043
-102.051
-102.058
-102.065
-102.072
-102.079
-102.085
-102.091
-102.096
-102.101
-102.106
-102.11
-102.114
-102.118
-102.121
-102.124
-102.127
-102.129
-102.13
-102.132
-102.132
-102.132
-102.132
-102.131
-102.13
-102.128
-102.126
-102.123
-102.119
-102.115
-102.111
-102.105
-102.099
-102.093
-102.085
-102.077
-102.069
-102.059
-102.049
-102.038
-102.026
-102.013
-101.999
-101.985
-101.97
-101.953
-101.936
-101.918
-101.898
-101.878
-101.856
-101.834
-101.81
-101.785
-101.759
-101.731
-101.702
-101.672
-101.641
-101.608
-101.573
-101.537
-101.5
-101.461
-101.42
-101.378
-101.333
-101.287
-101.239
-101.19
-101.138
-101.084
-101.028
-100.97
-100.909
-100.846
-100.781
-100.714
-100.644
-100.571
-100.496
-100.417
-100.336
-100.252
-100.165
-100.075
-99.9817
-99.885
-99.7848
-99.6811
-99.5737
-99.4625
-99.3475
-99.2284
-99.1052
-98.9778
-98.8459
-98.7095
-98.5684
-98.4225
-98.2716
-98.1155
-97.9541
-97.7873
-97.6148
-97.4365
-97.2522
-97.0617
-96.8648
-96.6613
-96.451
-96.2336
-96.009
-95.7769
-95.5371
-95.2893
-95.0332
-94.7687
-94.4954
-94.213
-93.9213
-93.62
-93.3086
-92.987
-92.6548
-92.3116
-91.957
-91.5908
-91.2125
-90.8216
-90.4179
-90.0009
-89.57
-89.125
-88.6652
-88.1902
-87.6995
-87.1926
-86.6688
-86.1277
-85.5686
-84.9908
-84.3938
-83.7769
-83.1393
-82.4804
-81.7993
-81.0953
-80.3675
-79.615
-78.837
-78.0325
-77.2004
-76.3398
-75.4494
-74.5282
-73.5749
-72.5882
-71.5667
-70.509
-69.4135
-68.2786
-67.1025
-65.8834
-64.6192
-63.3079
-61.9471
-60.5342
-59.0667
-57.5415
-55.9555
-54.3051
-52.5864
-50.7952
-48.9265
-46.9751
-44.9347
-42.7984
-40.5581
-38.2043
-35.7259
-33.1093
-30.338
-27.391
-24.2415
-20.853
-17.1742
-13.127
-8.65042
-3.1722
-49.9945
-41.5503
-53.7677
-44.348
-43.2626
-42.4004
-42.2013
-42.4843
-43.0943
-43.9213
-44.8905
-45.9509
-47.0675
-48.2158
-49.3785
-50.5434
-51.7017
-52.847
-53.9748
-55.0819
-56.166
-57.2256
-58.2596
-59.2675
-60.2489
-61.2038
-62.1324
-63.0348
-63.9114
-64.7627
-65.589
-66.391
-67.1692
-67.9242
-68.6565
-69.3668
-70.0555
-70.7234
-71.371
-71.9988
-72.6074
-73.1975
-73.7694
-74.3239
-74.8613
-75.3822
-75.8871
-76.3765
-76.8508
-77.3106
-77.7562
-78.188
-78.6066
-79.0123
-79.4055
-79.7866
-80.156
-80.514
-80.8609
-81.1972
-81.5231
-81.839
-82.1452
-82.4419
-82.7295
-83.0082
-83.2784
-83.5403
-83.7941
-84.0401
-84.2785
-84.5096
-84.7337
-84.9508
-85.1613
-85.3653
-85.5631
-85.7548
-85.9406
-86.1208
-86.2954
-86.4646
-86.6287
-86.7878
-86.942
-87.0915
-87.2364
-87.3769
-87.5131
-87.6452
-87.7732
-87.8974
-88.0177
-88.1345
-88.2477
-88.3574
-88.4638
-88.567
-88.6671
-88.7641
-88.8582
-88.9495
-89.038
-89.1239
-89.2071
-89.2879
-89.3662
-89.4422
-89.5159
-89.5875
-89.6568
-89.7241
-89.7895
-89.8528
-89.9143
-89.974
-90.0319
-90.088
-90.1426
-90.1955
-90.2469
-90.2967
-90.3452
-90.3922
-90.4378
-90.4821
-90.5252
-90.567
-90.6075
-90.647
-90.6853
-90.7225
-90.7586
-90.7938
-90.8279
-90.861
-90.8933
-90.9246
-90.9551
-90.9847
-91.0135
-91.0415
-91.0688
-91.0953
-91.1211
-91.1462
-91.1706
-91.1944
-91.2175
-91.2401
-91.262
-91.2834
-91.3043
-91.3246
-91.3444
-91.3637
-91.3825
-91.4008
-91.4187
-91.4361
-91.4532
-91.4698
-91.486
-91.5019
-91.5173
-91.5324
-91.5472
-91.5616
-91.5757
-91.5896
-91.6031
-91.6163
-91.6292
-91.6419
-91.6543
-91.6665
-91.6784
-91.69
-91.7015
-91.7127
-91.7237
-91.7345
-91.7451
-91.7555
-91.7658
-91.7758
-91.7857
-91.7954
-91.805
-91.8144
-91.8236
-91.8328
-91.8418
-91.8506
-91.8594
-91.868
-91.8765
-91.8849
-91.8932
-91.9014
-91.9094
-91.9174
-91.9253
-91.9331
-91.9408
-91.9484
-91.956
-91.9635
-91.9709
-91.9782
-91.9855
-91.9927
-91.9999
-92.007
-92.0141
-92.0211
-92.0281
-92.0351
-92.042
-92.0488
-92.0556
-92.0624
-92.0692
-92.0759
-92.0826
-92.0893
-92.0959
-92.1025
-92.1091
-92.1157
-92.1222
-92.1288
-92.1353
-92.1418
-92.1483
-92.1547
-92.1612
-92.1677
-92.1741
-92.1806
-92.187
-92.1934
-92.1999
-92.2063
-92.2128
-92.2192
-92.2257
-92.2321
-92.2386
-92.245
-92.2515
-92.258
-92.2644
-92.2709
-92.2774
-92.284
-92.2905
-92.297
-92.3036
-92.3102
-92.3168
-92.3234
-92.33
-92.3367
-92.3433
-92.35
-92.3567
-92.3634
-92.3702
-92.3769
-92.3837
-92.3905
-92.3973
-92.4042
-92.411
-92.4179
-92.4248
-92.4318
-92.4388
-92.4457
-92.4528
-92.4598
-92.4669
-92.474
-92.4811
-92.4883
-92.4955
-92.5027
-92.5099
-92.5172
-92.5245
-92.5318
-92.5392
-92.5466
-92.554
-92.5615
-92.569
-92.5765
-92.584
-92.5916
-92.5992
-92.6069
-92.6146
-92.6223
-92.63
-92.6378
-92.6456
-92.6535
-92.6614
-92.6693
-92.6772
-92.6852
-92.6933
-92.7013
-92.7094
-92.7176
-92.7257
-92.7339
-92.7422
-92.7505
-92.7588
-92.7671
-92.7755
-92.7839
-92.7924
-92.8009
-92.8094
-92.818
-92.8266
-92.8353
-92.844
-92.8527
-92.8615
-92.8703
-92.8791
-92.888
-92.8969
-92.9059
-92.9149
-92.9239
-92.933
-92.9422
-92.9513
-92.9605
-92.9698
-92.9791
-92.9884
-92.9977
-93.0071
-93.0166
-93.0261
-93.0356
-93.0452
-93.0548
-93.0644
-93.0741
-93.0838
-93.0936
-93.1034
-93.1133
-93.1232
-93.1331
-93.1431
-93.1531
-93.1632
-93.1733
-93.1835
-93.1937
-93.2039
-93.2142
-93.2245
-93.2349
-93.2453
-93.2557
-93.2662
-93.2767
-93.2873
-93.2979
-93.3086
-93.3193
-93.33
-93.3408
-93.3516
-93.3625
-93.3734
-93.3844
-93.3954
-93.4064
-93.4175
-93.4287
-93.4398
-93.451
-93.4623
-93.4736
-93.4849
-93.4963
-93.5077
-93.5192
-93.5307
-93.5423
-93.5539
-93.5655
-93.5772
-93.5889
-93.6006
-93.6124
-93.6243
-93.6361
-93.6481
-93.66
-93.672
-93.6841
-93.6962
-93.7083
-93.7205
-93.7327
-93.745
-93.7573
-93.7696
-93.782
-93.7944
-93.8069
-93.8194
-93.832
-93.8445
-93.8572
-93.8698
-93.8826
-93.8953
-93.9081
-93.9209
-93.9338
-93.9467
-93.9597
-93.9727
-93.9858
-93.9988
-94.012
-94.0251
-94.0384
-94.0516
-94.0649
-94.0782
-94.0916
-94.105
-94.1185
-94.132
-94.1455
-94.1591
-94.1727
-94.1863
-94.2
-94.2138
-94.2275
-94.2413
-94.2552
-94.2691
-94.283
-94.297
-94.311
-94.3251
-94.3392
-94.3533
-94.3675
-94.3817
-94.3959
-94.4102
-94.4246
-94.439
-94.4534
-94.4678
-94.4823
-94.4969
-94.5114
-94.5261
-94.5407
-94.5554
-94.5701
-94.5849
-94.5997
-94.6146
-94.6295
-94.6445
-94.6594
-94.6745
-94.6895
-94.7046
-94.7198
-94.735
-94.7502
-94.7655
-94.7808
-94.7961
-94.8115
-94.8269
-94.8424
-94.8579
-94.8734
-94.889
-94.9046
-94.9202
-94.9359
-94.9517
-94.9674
-94.9832
-94.9991
-95.0149
-95.0308
-95.0468
-95.0628
-95.0788
-95.0949
-95.111
-95.1271
-95.1433
-95.1595
-95.1757
-95.192
-95.2083
-95.2246
-95.241
-95.2574
-95.2739
-95.2904
-95.3069
-95.3234
-95.34
-95.3566
-95.3733
-95.39
-95.4067
-95.4235
-95.4402
-95.4571
-95.4739
-95.4908
-95.5077
-95.5247
-95.5416
-95.5586
-95.5757
-95.5928
-95.6099
-95.627
-95.6441
-95.6613
-95.6786
-95.6958
-95.7131
-95.7304
-95.7478
-95.7651
-95.7825
-95.8
-95.8174
-95.8349
-95.8524
-95.87
-95.8875
-95.9051
-95.9228
-95.9404
-95.9581
-95.9758
-95.9936
-96.0113
-96.0291
-96.0469
-96.0648
-96.0827
-96.1006
-96.1185
-96.1364
-96.1544
-96.1724
-96.1904
-96.2085
-96.2266
-96.2446
-96.2628
-96.2809
-96.2991
-96.3173
-96.3355
-96.3537
-96.372
-96.3903
-96.4086
-96.4269
-96.4453
-96.4636
-96.482
-96.5004
-96.5189
-96.5373
-96.5558
-96.5743
-96.5928
-96.6113
-96.6299
-96.6485
-96.6671
-96.6857
-96.7043
-96.7229
-96.7416
-96.7603
-96.779
-96.7977
-96.8164
-96.8352
-96.8539
-96.8727
-96.8915
-96.9103
-96.9291
-96.9479
-96.9668
-96.9857
-97.0045
-97.0234
-97.0423
-97.0612
-97.0802
-97.0991
-97.1181
-97.137
-97.156
-97.175
-97.1939
-97.2129
-97.232
-97.251
-97.27
-97.289
-97.3081
-97.3271
-97.3461
-97.3652
-97.3843
-97.4033
-97.4224
-97.4414
-97.4605
-97.4796
-97.4987
-97.5177
-97.5368
-97.5559
-97.575
-97.594
-97.6131
-97.6322
-97.6512
-97.6703
-97.6894
-97.7084
-97.7275
-97.7465
-97.7656
-97.7846
-97.8036
-97.8227
-97.8417
-97.8607
-97.8797
-97.8987
-97.9177
-97.9367
-97.9556
-97.9746
-97.9936
-98.0125
-98.0314
-98.0504
-98.0693
-98.0882
-98.107
-98.1259
-98.1448
-98.1636
-98.1824
-98.2013
-98.2201
-98.2388
-98.2576
-98.2763
-98.2951
-98.3138
-98.3325
-98.3511
-98.3698
-98.3884
-98.407
-98.4256
-98.4442
-98.4627
-98.4813
-98.4998
-98.5182
-98.5367
-98.5551
-98.5735
-98.5919
-98.6102
-98.6286
-98.6468
-98.6651
-98.6833
-98.7016
-98.7197
-98.7379
-98.756
-98.7741
-98.7921
-98.8102
-98.8281
-98.8461
-98.864
-98.8819
-98.8998
-98.9176
-98.9353
-98.9531
-98.9708
-98.9885
-99.0061
-99.0237
-99.0412
-99.0587
-99.0762
-99.0936
-99.111
-99.1283
-99.1456
-99.1628
-99.18
-99.1971
-99.2142
-99.2312
-99.2482
-99.2651
-99.2819
-99.2987
-99.3155
-99.3322
-99.3488
-99.3653
-99.3818
-99.3983
-99.4146
-99.4309
-99.4471
-99.4633
-99.4794
-99.4954
-99.5113
-99.5271
-99.5429
-99.5586
-99.5742
-99.5897
-99.6051
-99.6204
-99.6357
-99.6508
-99.6659
-99.6808
-99.6957
-99.7104
-99.7251
-99.7396
-99.754
-99.7683
-99.7825
-99.7966
-99.8106
-99.8244
-99.8381
-99.8517
-99.8651
-99.8785
-99.8916
-99.9047
-99.9176
-99.9303
-99.9429
-99.9554
-99.9677
-99.9798
-99.9918
-100.004
-100.015
-100.027
-100.038
-100.049
-100.06
-100.071
-100.081
-100.092
-100.102
-100.111
-100.121
-100.131
-100.14
-100.149
-100.157
-100.166
-100.174
-100.182
-100.19
-100.197
-100.204
-100.211
-100.218
-100.224
-100.23
-100.235
-100.241
-100.246
-100.25
-100.254
-100.258
-100.262
-100.265
-100.267
-100.27
-100.271
-100.273
-100.274
-100.274
-100.274
-100.274
-100.273
-100.271
-100.269
-100.267
-100.263
-100.26
-100.255
-100.25
-100.245
-100.239
-100.232
-100.224
-100.216
-100.207
-100.197
-100.187
-100.176
-100.164
-100.151
-100.137
-100.122
-100.107
-100.09
-100.073
-100.054
-100.035
-100.014
-99.9924
-99.9697
-99.9457
-99.9206
-99.8942
-99.8666
-99.8377
-99.8074
-99.7757
-99.7426
-99.7081
-99.672
-99.6344
-99.5952
-99.5543
-99.5117
-99.4673
-99.4211
-99.3731
-99.3232
-99.2712
-99.2172
-99.1611
-99.1029
-99.0424
-98.9795
-98.9143
-98.8467
-98.7765
-98.7037
-98.6283
-98.55
-98.4689
-98.3849
-98.2978
-98.2076
-98.1141
-98.0174
-97.9172
-97.8134
-97.706
-97.5948
-97.4798
-97.3607
-97.2375
-97.1101
-96.9782
-96.8418
-96.7007
-96.5549
-96.404
-96.248
-96.0867
-95.9199
-95.7475
-95.5693
-95.385
-95.1946
-94.9978
-94.7944
-94.5842
-94.367
-94.1425
-93.9105
-93.6709
-93.4232
-93.1674
-92.903
-92.6299
-92.3477
-92.0562
-91.7551
-91.444
-91.1227
-90.7907
-90.4478
-90.0935
-89.7276
-89.3496
-88.9591
-88.5557
-88.139
-87.7086
-87.264
-86.8046
-86.3301
-85.8399
-85.3334
-84.8102
-84.2696
-83.711
-83.1339
-82.5375
-81.9212
-81.2843
-80.6261
-79.9458
-79.2425
-78.5156
-77.764
-76.9869
-76.1833
-75.3523
-74.4927
-73.6035
-72.6835
-71.7314
-70.7461
-69.726
-68.6698
-67.5759
-66.4427
-65.2685
-64.0513
-62.7893
-61.4802
-60.1218
-58.7116
-57.247
-55.725
-54.1424
-52.4959
-50.7815
-48.9949
-47.1316
-45.1863
-43.1528
-41.0245
-38.7935
-36.4508
-33.9857
-31.3855
-28.6349
-25.7147
-22.6013
-19.2637
-15.6616
-11.741
-7.42447
-2.58225
-17.3938
-28.7249
-36.6168
-37.2931
-37.8696
-38.3441
-38.9325
-39.683
-40.5788
-41.5865
-42.6736
-43.8129
-44.9834
-46.1693
-47.3585
-48.5422
-49.7139
-50.8688
-52.0034
-53.1152
-54.2026
-55.2643
-56.2996
-57.3081
-58.2897
-59.2444
-60.1725
-61.0741
-61.9499
-62.8002
-63.6255
-64.4263
-65.2033
-65.9571
-66.6882
-67.3972
-68.0847
-68.7514
-69.3977
-70.0243
-70.6318
-71.2207
-71.7916
-72.3449
-72.8813
-73.4012
-73.9051
-74.3935
-74.8669
-75.3257
-75.7704
-76.2014
-76.6191
-77.0239
-77.4163
-77.7966
-78.1652
-78.5224
-78.8686
-79.2042
-79.5294
-79.8446
-80.1501
-80.4462
-80.7332
-81.0114
-81.281
-81.5423
-81.7955
-82.041
-82.2789
-82.5095
-82.733
-82.9497
-83.1597
-83.3633
-83.5606
-83.7519
-83.9373
-84.117
-84.2912
-84.4601
-84.6238
-84.7825
-84.9363
-85.0855
-85.2301
-85.3703
-85.5062
-85.6379
-85.7656
-85.8895
-86.0095
-86.126
-86.2389
-86.3483
-86.4544
-86.5574
-86.6572
-86.754
-86.8478
-86.9388
-87.0271
-87.1127
-87.1958
-87.2763
-87.3545
-87.4302
-87.5038
-87.5751
-87.6442
-87.7113
-87.7765
-87.8396
-87.9009
-87.9604
-88.0181
-88.0741
-88.1284
-88.1812
-88.2324
-88.2821
-88.3304
-88.3772
-88.4227
-88.4668
-88.5097
-88.5514
-88.5918
-88.6311
-88.6692
-88.7063
-88.7423
-88.7772
-88.8112
-88.8442
-88.8763
-88.9075
-88.9379
-88.9673
-88.996
-89.0239
-89.051
-89.0774
-89.103
-89.128
-89.1523
-89.176
-89.199
-89.2214
-89.2433
-89.2645
-89.2852
-89.3054
-89.3251
-89.3442
-89.3629
-89.3811
-89.3989
-89.4162
-89.4331
-89.4496
-89.4657
-89.4814
-89.4968
-89.5118
-89.5264
-89.5408
-89.5548
-89.5685
-89.5818
-89.595
-89.6078
-89.6203
-89.6326
-89.6446
-89.6564
-89.668
-89.6793
-89.6904
-89.7013
-89.712
-89.7225
-89.7328
-89.7429
-89.7528
-89.7626
-89.7722
-89.7816
-89.7909
-89.8001
-89.8091
-89.818
-89.8267
-89.8353
-89.8438
-89.8522
-89.8605
-89.8687
-89.8767
-89.8847
-89.8926
-89.9003
-89.908
-89.9156
-89.9231
-89.9305
-89.9379
-89.9452
-89.9524
-89.9596
-89.9667
-89.9737
-89.9807
-89.9877
-89.9946
-90.0014
-90.0083
-90.015
-90.0218
-90.0285
-90.0351
-90.0418
-90.0484
-90.0549
-90.0615
-90.068
-90.0745
-90.0809
-90.0874
-90.0938
-90.1002
-90.1066
-90.1129
-90.1193
-90.1256
-90.132
-90.1383
-90.1446
-90.1509
-90.1572
-90.1635
-90.1698
-90.1761
-90.1824
-90.1888
-90.1951
-90.2014
-90.2077
-90.214
-90.2203
-90.2267
-90.233
-90.2394
-90.2457
-90.2521
-90.2585
-90.2649
-90.2713
-90.2777
-90.2842
-90.2907
-90.2971
-90.3036
-90.3101
-90.3167
-90.3232
-90.3298
-90.3364
-90.343
-90.3496
-90.3563
-90.3629
-90.3696
-90.3763
-90.3831
-90.3898
-90.3966
-90.4034
-90.4102
-90.4171
-90.424
-90.4309
-90.4378
-90.4448
-90.4518
-90.4588
-90.4658
-90.4729
-90.48
-90.4872
-90.4943
-90.5015
-90.5087
-90.516
-90.5233
-90.5306
-90.5379
-90.5453
-90.5527
-90.5601
-90.5676
-90.5751
-90.5826
-90.5902
-90.5978
-90.6054
-90.6131
-90.6208
-90.6285
-90.6363
-90.6441
-90.6519
-90.6598
-90.6677
-90.6756
-90.6836
-90.6916
-90.6997
-90.7077
-90.7159
-90.724
-90.7322
-90.7404
-90.7487
-90.7569
-90.7653
-90.7736
-90.782
-90.7905
-90.799
-90.8075
-90.816
-90.8246
-90.8333
-90.8419
-90.8506
-90.8594
-90.8682
-90.877
-90.8859
-90.8948
-90.9037
-90.9127
-90.9217
-90.9307
-90.9398
-90.949
-90.9581
-90.9673
-90.9766
-90.9859
-90.9952
-91.0046
-91.014
-91.0234
-91.0329
-91.0424
-91.052
-91.0616
-91.0712
-91.0809
-91.0906
-91.1004
-91.1102
-91.1201
-91.13
-91.1399
-91.1499
-91.1599
-91.1699
-91.18
-91.1901
-91.2003
-91.2105
-91.2208
-91.2311
-91.2414
-91.2518
-91.2622
-91.2727
-91.2832
-91.2937
-91.3043
-91.3149
-91.3256
-91.3363
-91.347
-91.3578
-91.3687
-91.3795
-91.3905
-91.4014
-91.4124
-91.4235
-91.4345
-91.4457
-91.4568
-91.468
-91.4793
-91.4906
-91.5019
-91.5133
-91.5247
-91.5362
-91.5477
-91.5592
-91.5708
-91.5824
-91.5941
-91.6058
-91.6176
-91.6294
-91.6412
-91.6531
-91.665
-91.677
-91.689
-91.701
-91.7131
-91.7253
-91.7374
-91.7497
-91.7619
-91.7742
-91.7866
-91.7989
-91.8114
-91.8238
-91.8364
-91.8489
-91.8615
-91.8741
-91.8868
-91.8995
-91.9123
-91.9251
-91.9379
-91.9508
-91.9638
-91.9767
-91.9897
-92.0028
-92.0159
-92.029
-92.0422
-92.0554
-92.0686
-92.0819
-92.0953
-92.1087
-92.1221
-92.1355
-92.149
-92.1626
-92.1761
-92.1898
-92.2034
-92.2171
-92.2308
-92.2446
-92.2584
-92.2723
-92.2862
-92.3001
-92.3141
-92.3281
-92.3422
-92.3563
-92.3704
-92.3846
-92.3988
-92.4131
-92.4274
-92.4418
-92.4561
-92.4706
-92.485
-92.4995
-92.5141
-92.5287
-92.5433
-92.5579
-92.5726
-92.5874
-92.6022
-92.617
-92.6318
-92.6467
-92.6617
-92.6767
-92.6917
-92.7067
-92.7218
-92.737
-92.7521
-92.7673
-92.7826
-92.7979
-92.8132
-92.8286
-92.844
-92.8594
-92.8749
-92.8904
-92.9059
-92.9215
-92.9371
-92.9528
-92.9685
-92.9842
-92.9999
-93.0157
-93.0316
-93.0474
-93.0633
-93.0793
-93.0952
-93.1113
-93.1273
-93.1434
-93.1595
-93.1756
-93.1918
-93.208
-93.2242
-93.2405
-93.2568
-93.2731
-93.2895
-93.3059
-93.3224
-93.3388
-93.3553
-93.3719
-93.3884
-93.405
-93.4216
-93.4383
-93.455
-93.4717
-93.4884
-93.5052
-93.522
-93.5388
-93.5557
-93.5726
-93.5895
-93.6064
-93.6234
-93.6404
-93.6574
-93.6744
-93.6915
-93.7086
-93.7258
-93.7429
-93.7601
-93.7773
-93.7945
-93.8118
-93.8291
-93.8464
-93.8638
-93.8811
-93.8985
-93.9159
-93.9334
-93.9509
-93.9684
-93.9859
-94.0034
-94.021
-94.0386
-94.0562
-94.0738
-94.0915
-94.1092
-94.1269
-94.1446
-94.1624
-94.1802
-94.1979
-94.2158
-94.2336
-94.2515
-94.2693
-94.2872
-94.3052
-94.3231
-94.3411
-94.3591
-94.3771
-94.3951
-94.4131
-94.4312
-94.4493
-94.4673
-94.4855
-94.5036
-94.5217
-94.5399
-94.5581
-94.5763
-94.5945
-94.6127
-94.631
-94.6493
-94.6675
-94.6858
-94.7041
-94.7225
-94.7408
-94.7592
-94.7775
-94.7959
-94.8143
-94.8327
-94.8511
-94.8696
-94.888
-94.9065
-94.925
-94.9434
-94.9619
-94.9804
-94.9989
-95.0175
-95.036
-95.0545
-95.0731
-95.0916
-95.1102
-95.1288
-95.1474
-95.1659
-95.1845
-95.2031
-95.2217
-95.2403
-95.259
-95.2776
-95.2962
-95.3148
-95.3334
-95.3521
-95.3707
-95.3893
-95.4079
-95.4266
-95.4452
-95.4638
-95.4825
-95.5011
-95.5197
-95.5383
-95.5569
-95.5756
-95.5942
-95.6128
-95.6314
-95.65
-95.6686
-95.6872
-95.7058
-95.7244
-95.7429
-95.7615
-95.7801
-95.7986
-95.8172
-95.8357
-95.8543
-95.8728
-95.8913
-95.9098
-95.9283
-95.9468
-95.9653
-95.9837
-96.0022
-96.0206
-96.039
-96.0574
-96.0758
-96.0942
-96.1126
-96.1309
-96.1493
-96.1676
-96.1859
-96.2042
-96.2225
-96.2407
-96.259
-96.2772
-96.2954
-96.3135
-96.3317
-96.3498
-96.3679
-96.386
-96.4041
-96.4221
-96.4401
-96.4581
-96.4761
-96.494
-96.5119
-96.5298
-96.5477
-96.5655
-96.5833
-96.6011
-96.6188
-96.6365
-96.6542
-96.6718
-96.6894
-96.707
-96.7245
-96.742
-96.7594
-96.7769
-96.7942
-96.8116
-96.8289
-96.8461
-96.8633
-96.8805
-96.8976
-96.9147
-96.9318
-96.9487
-96.9657
-96.9826
-96.9994
-97.0162
-97.0329
-97.0496
-97.0662
-97.0828
-97.0993
-97.1158
-97.1322
-97.1485
-97.1648
-97.181
-97.1972
-97.2133
-97.2293
-97.2453
-97.2611
-97.2769
-97.2927
-97.3083
-97.3239
-97.3394
-97.3549
-97.3702
-97.3855
-97.4006
-97.4157
-97.4307
-97.4456
-97.4604
-97.4751
-97.4898
-97.5043
-97.5187
-97.533
-97.5472
-97.5613
-97.5753
-97.5891
-97.6029
-97.6165
-97.63
-97.6434
-97.6566
-97.6698
-97.6828
-97.6956
-97.7083
-97.7209
-97.7333
-97.7456
-97.7578
-97.7697
-97.7816
-97.7932
-97.8047
-97.816
-97.8272
-97.8382
-97.8489
-97.8595
-97.87
-97.8802
-97.8902
-97.9
-97.9096
-97.9189
-97.9281
-97.937
-97.9457
-97.9541
-97.9623
-97.9702
-97.9779
-97.9853
-97.9924
-97.9992
-98.0058
-98.012
-98.018
-98.0236
-98.0289
-98.0339
-98.0385
-98.0428
-98.0468
-98.0503
-98.0535
-98.0563
-98.0587
-98.0607
-98.0623
-98.0634
-98.0641
-98.0643
-98.0641
-98.0634
-98.0621
-98.0604
-98.0581
-98.0553
-98.052
-98.048
-98.0435
-98.0384
-98.0326
-98.0262
-98.0191
-98.0114
-98.003
-97.9938
-97.9839
-97.9732
-97.9618
-97.9495
-97.9364
-97.9225
-97.9076
-97.8919
-97.8752
-97.8575
-97.8389
-97.8192
-97.7985
-97.7767
-97.7537
-97.7296
-97.7044
-97.6779
-97.6501
-97.621
-97.5906
-97.5589
-97.5257
-97.491
-97.4548
-97.4171
-97.3778
-97.3368
-97.2941
-97.2497
-97.2034
-97.1553
-97.1053
-97.0533
-96.9993
-96.9431
-96.8848
-96.8243
-96.7614
-96.6962
-96.6286
-96.5584
-96.4856
-96.4101
-96.3319
-96.2508
-96.1668
-96.0798
-95.9896
-95.8962
-95.7995
-95.6994
-95.5957
-95.4884
-95.3773
-95.2623
-95.1434
-95.0203
-94.893
-94.7613
-94.6251
-94.4842
-94.3385
-94.1878
-94.032
-93.8709
-93.7043
-93.5322
-93.3542
-93.1703
-92.9801
-92.7836
-92.5805
-92.3706
-92.1538
-91.9296
-91.6981
-91.4588
-91.2116
-90.9561
-90.6922
-90.4196
-90.1379
-89.847
-89.5464
-89.2359
-88.9151
-88.5838
-88.2415
-87.8879
-87.5226
-87.1454
-86.7556
-86.3531
-85.9372
-85.5076
-85.0639
-84.6055
-84.1319
-83.6427
-83.1373
-82.6152
-82.0757
-81.5183
-80.9424
-80.3474
-79.7325
-79.097
-78.4403
-77.7615
-77.0599
-76.3346
-75.5849
-74.8096
-74.0081
-73.1791
-72.3217
-71.4348
-70.5172
-69.5678
-68.5851
-67.568
-66.5149
-65.4243
-64.2946
-63.1241
-61.9109
-60.6532
-59.3488
-57.9954
-56.5906
-55.1319
-53.6164
-52.0409
-50.4022
-48.6964
-46.9196
-45.0672
-43.1341
-41.1147
-39.0026
-36.7904
-34.47
-32.0315
-29.4637
-26.7535
-23.8849
-20.8394
-17.5945
-14.1245
-10.4025
-6.40631
-2.15719
-8.42062
-19.4776
-26.7717
-30.4406
-32.6806
-34.2757
-35.6036
-36.8387
-38.0539
-39.2751
-40.507
-41.7463
-42.9868
-44.2221
-45.4466
-46.6557
-47.8457
-49.0137
-50.1576
-51.276
-52.3678
-53.4324
-54.4694
-55.4787
-56.4605
-57.4148
-58.3421
-59.2427
-60.1172
-60.966
-61.7897
-62.589
-63.3643
-64.1163
-64.8456
-65.5528
-66.2386
-66.9035
-67.5481
-68.173
-68.7788
-69.3661
-69.9353
-70.4871
-71.022
-71.5404
-72.0428
-72.5298
-73.0018
-73.4593
-73.9027
-74.3324
-74.7489
-75.1526
-75.5438
-75.923
-76.2905
-76.6466
-76.9918
-77.3264
-77.6506
-77.9649
-78.2695
-78.5647
-78.8509
-79.1282
-79.397
-79.6575
-79.91
-80.1548
-80.392
-80.6219
-80.8448
-81.0608
-81.2702
-81.4731
-81.6698
-81.8605
-82.0454
-82.2245
-82.3982
-82.5666
-82.7298
-82.888
-83.0414
-83.1901
-83.3343
-83.474
-83.6095
-83.7408
-83.8682
-83.9916
-84.1113
-84.2274
-84.34
-84.4491
-84.5549
-84.6575
-84.757
-84.8535
-84.947
-85.0378
-85.1258
-85.2111
-85.2939
-85.3742
-85.4521
-85.5276
-85.6009
-85.6719
-85.7409
-85.8078
-85.8727
-85.9356
-85.9967
-86.056
-86.1135
-86.1693
-86.2235
-86.2761
-86.3271
-86.3767
-86.4247
-86.4714
-86.5167
-86.5607
-86.6035
-86.6449
-86.6852
-86.7244
-86.7624
-86.7993
-86.8352
-86.87
-86.9038
-86.9367
-86.9687
-86.9998
-87.03
-87.0594
-87.0879
-87.1157
-87.1427
-87.169
-87.1945
-87.2194
-87.2436
-87.2671
-87.2901
-87.3124
-87.3341
-87.3553
-87.3759
-87.396
-87.4155
-87.4346
-87.4532
-87.4713
-87.489
-87.5062
-87.523
-87.5395
-87.5555
-87.5711
-87.5864
-87.6013
-87.6159
-87.6301
-87.644
-87.6576
-87.6709
-87.6839
-87.6967
-87.7091
-87.7213
-87.7333
-87.745
-87.7565
-87.7677
-87.7787
-87.7895
-87.8001
-87.8106
-87.8208
-87.8308
-87.8407
-87.8504
-87.8599
-87.8693
-87.8785
-87.8876
-87.8965
-87.9053
-87.9139
-87.9225
-87.9309
-87.9392
-87.9474
-87.9555
-87.9635
-87.9713
-87.9791
-87.9868
-87.9944
-88.0019
-88.0094
-88.0167
-88.024
-88.0312
-88.0384
-88.0455
-88.0525
-88.0594
-88.0664
-88.0732
-88.08
-88.0868
-88.0935
-88.1002
-88.1069
-88.1135
-88.12
-88.1266
-88.1331
-88.1396
-88.146
-88.1525
-88.1589
-88.1652
-88.1716
-88.1779
-88.1842
-88.1905
-88.1968
-88.2031
-88.2093
-88.2156
-88.2218
-88.228
-88.2342
-88.2404
-88.2467
-88.2529
-88.2591
-88.2653
-88.2715
-88.2777
-88.2839
-88.2901
-88.2963
-88.3026
-88.3088
-88.3151
-88.3213
-88.3276
-88.3339
-88.3401
-88.3464
-88.3527
-88.3591
-88.3654
-88.3718
-88.3781
-88.3845
-88.3909
-88.3973
-88.4037
-88.4102
-88.4167
-88.4232
-88.4297
-88.4362
-88.4427
-88.4493
-88.4559