/*--------------------------------*- C++ -*----------------------------------*\
| =========                 |                                                 |
| \\      /  F ield         | OpenFOAM: The Open Source CFD Toolbox           |
|  \\    /   O peration     | Version:  2512                                  |
|   \\  /    A nd           | Website:  www.openfoam.com                      |
|    \\/     M anipulation  |                                                 |
\*---------------------------------------------------------------------------*/
FoamFile
{
    version     2.0;
    format      ascii;
    arch        "LSB;label=32;scalar=64";
    class       surfaceScalarField;
    location    "1e-05";
    object      phi;
}
// * * * * * * * * * * * * * * * * * * * * * * * * * * * * * * * * * * * * * //

dimensions      [1 0 -1 0 0 0 0];

oriented        oriented;

internalField   nonuniform List<scalar> 
198900
(
-0.596015
1.51919e-05
-0.596001
2.83355e-05
-0.595956
-1.66097e-05
-0.595921
-6.77854e-06
-0.595881
-1.10795e-05
-0.595841
-1.2016e-05
-0.595799
-1.26531e-05
-0.595758
-1.31109e-05
-0.595716
-1.34001e-05
-0.595674
-1.3586e-05
-0.595632
-1.37122e-05
-0.595589
-1.38079e-05
-0.595547
-1.38852e-05
-0.595504
-1.39504e-05
-0.595462
-1.40071e-05
-0.595419
-1.40571e-05
-0.595376
-1.41022e-05
-0.595333
-1.41435e-05
-0.59529
-1.41819e-05
-0.595247
-1.4218e-05
-0.595204
-1.42524e-05
-0.595161
-1.42856e-05
-0.595118
-1.43178e-05
-0.595075
-1.43495e-05
-0.595031
-1.43807e-05
-0.594988
-1.44117e-05
-0.594944
-1.44428e-05
-0.594901
-1.44738e-05
-0.594857
-1.45049e-05
-0.594814
-1.45367e-05
-0.59477
-1.45689e-05
-0.594726
-1.46013e-05
-0.594682
-1.46342e-05
-0.594638
-1.46677e-05
-0.594594
-1.47017e-05
-0.594549
-1.47363e-05
-0.594505
-1.47716e-05
-0.59446
-1.48076e-05
-0.594416
-1.48443e-05
-0.594371
-1.48818e-05
-0.594326
-1.492e-05
-0.594281
-1.4959e-05
-0.594236
-1.49988e-05
-0.594191
-1.50393e-05
-0.594146
-1.50807e-05
-0.594101
-1.51228e-05
-0.594055
-1.51658e-05
-0.59401
-1.52096e-05
-0.593964
-1.52541e-05
-0.593918
-1.52995e-05
-0.593872
-1.53457e-05
-0.593826
-1.53927e-05
-0.593779
-1.54406e-05
-0.593733
-1.54894e-05
-0.593686
-1.5539e-05
-0.59364
-1.55895e-05
-0.593593
-1.56409e-05
-0.593546
-1.56932e-05
-0.593498
-1.57464e-05
-0.593451
-1.58005e-05
-0.593404
-1.58556e-05
-0.593356
-1.59116e-05
-0.593308
-1.59686e-05
-0.59326
-1.60263e-05
-0.593212
-1.60849e-05
-0.593163
-1.61443e-05
-0.593115
-1.62046e-05
-0.593066
-1.62658e-05
-0.593017
-1.63279e-05
-0.592968
-1.6391e-05
-0.592919
-1.64549e-05
-0.592869
-1.65198e-05
-0.59282
-1.65855e-05
-0.59277
-1.66522e-05
-0.59272
-1.67198e-05
-0.592669
-1.67884e-05
-0.592619
-1.68579e-05
-0.592568
-1.69283e-05
-0.592517
-1.69997e-05
-0.592466
-1.70721e-05
-0.592415
-1.71453e-05
-0.592363
-1.72196e-05
-0.592311
-1.72947e-05
-0.592259
-1.73709e-05
-0.592207
-1.74479e-05
-0.592154
-1.75259e-05
-0.592102
-1.76048e-05
-0.592049
-1.76846e-05
-0.591996
-1.77654e-05
-0.591942
-1.78471e-05
-0.591888
-1.79298e-05
-0.591834
-1.80134e-05
-0.59178
-1.80979e-05
-0.591726
-1.81833e-05
-0.591671
-1.82697e-05
-0.591616
-1.83571e-05
-0.591561
-1.84455e-05
-0.591505
-1.85345e-05
-0.59145
-1.86247e-05
-0.591393
-1.8716e-05
-0.591337
-1.88082e-05
-0.591281
-1.89014e-05
-0.591224
-1.89958e-05
-0.591167
-1.90912e-05
-0.591109
-1.91877e-05
-0.591051
-1.92849e-05
-0.590993
-1.93831e-05
-0.590935
-1.94822e-05
-0.590876
-1.95822e-05
-0.590817
-1.96832e-05
-0.590758
-1.97852e-05
-0.590699
-1.98882e-05
-0.590639
-1.99921e-05
-0.590579
-2.0097e-05
-0.590518
-2.02029e-05
-0.590457
-2.03098e-05
-0.590396
-2.04176e-05
-0.590335
-2.05265e-05
-0.590273
-2.06364e-05
-0.590211
-2.07473e-05
-0.590148
-2.08592e-05
-0.590085
-2.09722e-05
-0.590022
-2.10863e-05
-0.589959
-2.12014e-05
-0.589895
-2.13176e-05
-0.589831
-2.14347e-05
-0.589766
-2.15527e-05
-0.589701
-2.16716e-05
-0.589636
-2.17915e-05
-0.589571
-2.19125e-05
-0.589505
-2.20346e-05
-0.589438
-2.21576e-05
-0.589371
-2.22817e-05
-0.589304
-2.24068e-05
-0.589237
-2.2533e-05
-0.589169
-2.266e-05
-0.589101
-2.27881e-05
-0.589032
-2.29172e-05
-0.588963
-2.30473e-05
-0.588894
-2.31786e-05
-0.588824
-2.33109e-05
-0.588754
-2.34443e-05
-0.588683
-2.35788e-05
-0.588612
-2.37144e-05
-0.588541
-2.3851e-05
-0.588469
-2.39886e-05
-0.588397
-2.41273e-05
-0.588324
-2.42671e-05
-0.588251
-2.4408e-05
-0.588177
-2.45498e-05
-0.588103
-2.46927e-05
-0.588029
-2.48366e-05
-0.587954
-2.49815e-05
-0.587879
-2.51274e-05
-0.587803
-2.52745e-05
-0.587727
-2.54228e-05
-0.587651
-2.55725e-05
-0.587574
-2.57225e-05
-0.587496
-2.58735e-05
-0.587418
-2.60258e-05
-0.58734
-2.61794e-05
-0.587261
-2.6334e-05
-0.587182
-2.64896e-05
-0.587102
-2.66464e-05
-0.587022
-2.68043e-05
-0.586941
-2.69634e-05
-0.58686
-2.71235e-05
-0.586778
-2.72848e-05
-0.586696
-2.74471e-05
-0.586613
-2.76103e-05
-0.58653
-2.77747e-05
-0.586446
-2.79402e-05
-0.586362
-2.81069e-05
-0.586277
-2.82747e-05
-0.586192
-2.84436e-05
-0.586106
-2.86135e-05
-0.58602
-2.87846e-05
-0.585933
-2.89568e-05
-0.585846
-2.91302e-05
-0.585758
-2.93047e-05
-0.58567
-2.94803e-05
-0.585581
-2.96569e-05
-0.585492
-2.98346e-05
-0.585402
-3.00135e-05
-0.585312
-3.01935e-05
-0.585221
-3.03748e-05
-0.585129
-3.05571e-05
-0.585037
-3.07406e-05
-0.584944
-3.09253e-05
-0.584851
-3.1111e-05
-0.584757
-3.12979e-05
-0.584663
-3.14859e-05
-0.584568
-3.16751e-05
-0.584473
-3.18655e-05
-0.584377
-3.2057e-05
-0.58428
-3.22498e-05
-0.584183
-3.24438e-05
-0.584085
-3.26392e-05
-0.583987
-3.28361e-05
-0.583888
-3.30331e-05
-0.583788
-3.3231e-05
-0.583688
-3.34304e-05
-0.583587
-3.36311e-05
-0.583486
-3.38331e-05
-0.583384
-3.40364e-05
-0.583281
-3.42407e-05
-0.583178
-3.44462e-05
-0.583074
-3.46528e-05
-0.58297
-3.48606e-05
-0.582865
-3.50696e-05
-0.582759
-3.52798e-05
-0.582653
-3.54912e-05
-0.582546
-3.57038e-05
-0.582438
-3.59177e-05
-0.58233
-3.61327e-05
-0.582221
-3.6349e-05
-0.582111
-3.65665e-05
-0.582001
-3.67852e-05
-0.58189
-3.70052e-05
-0.581779
-3.72265e-05
-0.581666
-3.7449e-05
-0.581553
-3.76729e-05
-0.58144
-3.78982e-05
-0.581326
-3.8124e-05
-0.581211
-3.83505e-05
-0.581095
-3.85785e-05
-0.580979
-3.88079e-05
-0.580862
-3.90387e-05
-0.580744
-3.92709e-05
-0.580626
-3.95043e-05
-0.580507
-3.9739e-05
-0.580387
-3.99749e-05
-0.580266
-4.02122e-05
-0.580145
-4.04506e-05
-0.580023
-4.06897e-05
-0.5799
-4.09299e-05
-0.579777
-4.11714e-05
-0.579653
-4.14143e-05
-0.579528
-4.16585e-05
-0.579402
-4.19041e-05
-0.579276
-4.2151e-05
-0.579149
-4.23991e-05
-0.579021
-4.26486e-05
-0.578892
-4.28993e-05
-0.578763
-4.31512e-05
-0.578633
-4.34044e-05
-0.578502
-4.36589e-05
-0.57837
-4.39147e-05
-0.578238
-4.41717e-05
-0.578105
-4.44299e-05
-0.577971
-4.46894e-05
-0.577836
-4.49502e-05
-0.5777
-4.52122e-05
-0.577564
-4.54755e-05
-0.577427
-4.574e-05
-0.577289
-4.60059e-05
-0.57715
-4.6273e-05
-0.577011
-4.65414e-05
-0.57687
-4.68112e-05
-0.576729
-4.70822e-05
-0.576587
-4.73545e-05
-0.576444
-4.76281e-05
-0.576301
-4.79031e-05
-0.576156
-4.81793e-05
-0.576011
-4.84569e-05
-0.575865
-4.87357e-05
-0.575718
-4.90159e-05
-0.57557
-4.92975e-05
-0.575421
-4.95803e-05
-0.575272
-4.98645e-05
-0.575121
-5.01499e-05
-0.57497
-5.04367e-05
-0.574818
-5.07248e-05
-0.574665
-5.10142e-05
-0.574511
-5.13049e-05
-0.574356
-5.15969e-05
-0.574201
-5.18902e-05
-0.574044
-5.21849e-05
-0.573887
-5.24808e-05
-0.573729
-5.27781e-05
-0.573569
-5.30768e-05
-0.573409
-5.33768e-05
-0.573248
-5.36781e-05
-0.573086
-5.39807e-05
-0.572924
-5.42848e-05
-0.57276
-5.45901e-05
-0.572595
-5.48968e-05
-0.57243
-5.52049e-05
-0.572263
-5.55143e-05
-0.572096
-5.58251e-05
-0.571927
-5.61373e-05
-0.571758
-5.64507e-05
-0.571587
-5.67656e-05
-0.571416
-5.70818e-05
-0.571244
-5.73993e-05
-0.571071
-5.77182e-05
-0.570897
-5.80384e-05
-0.570722
-5.83599e-05
-0.570546
-5.86828e-05
-0.570369
-5.9007e-05
-0.570191
-5.93325e-05
-0.570012
-5.96595e-05
-0.569832
-5.99877e-05
-0.569651
-6.03174e-05
-0.569469
-6.06484e-05
-0.569286
-6.09808e-05
-0.569102
-6.13146e-05
-0.568917
-6.16497e-05
-0.568731
-6.19863e-05
-0.568544
-6.23242e-05
-0.568356
-6.26635e-05
-0.568167
-6.30042e-05
-0.567977
-6.33463e-05
-0.567785
-6.36898e-05
-0.567593
-6.40347e-05
-0.5674
-6.43809e-05
-0.567206
-6.47285e-05
-0.567011
-6.50775e-05
-0.566814
-6.54279e-05
-0.566617
-6.57796e-05
-0.566418
-6.61327e-05
-0.566219
-6.64872e-05
-0.566018
-6.6843e-05
-0.565817
-6.72002e-05
-0.565614
-6.75588e-05
-0.56541
-6.79187e-05
-0.565205
-6.82801e-05
-0.564999
-6.86428e-05
-0.564792
-6.90069e-05
-0.564584
-6.93725e-05
-0.564374
-6.97394e-05
-0.564164
-7.01078e-05
-0.563952
-7.04776e-05
-0.56374
-7.08487e-05
-0.563526
-7.12213e-05
-0.563311
-7.15954e-05
-0.563095
-7.19708e-05
-0.562878
-7.23476e-05
-0.56266
-7.27258e-05
-0.56244
-7.31055e-05
-0.56222
-7.34865e-05
-0.561998
-7.38689e-05
-0.561775
-7.42527e-05
-0.561551
-7.4638e-05
-0.561326
-7.50246e-05
-0.561099
-7.54126e-05
-0.560872
-7.58019e-05
-0.560643
-7.61927e-05
-0.560413
-7.65848e-05
-0.560182
-7.69783e-05
-0.55995
-7.73732e-05
-0.559716
-7.77695e-05
-0.559482
-7.81673e-05
-0.559246
-7.85665e-05
-0.559009
-7.89671e-05
-0.55877
-7.93692e-05
-0.558531
-7.97727e-05
-0.55829
-8.01777e-05
-0.558048
-8.0584e-05
-0.557805
-8.09918e-05
-0.557561
-8.14009e-05
-0.557315
-8.18115e-05
-0.557068
-8.22234e-05
-0.55682
-8.26367e-05
-0.556571
-8.30515e-05
-0.55632
-8.34677e-05
-0.556068
-8.38853e-05
-0.555815
-8.43044e-05
-0.55556
-8.47249e-05
-0.555305
-8.51468e-05
-0.555048
-8.557e-05
-0.55479
-8.59946e-05
-0.55453
-8.64205e-05
-0.554269
-8.68478e-05
-0.554007
-8.72766e-05
-0.553744
-8.77067e-05
-0.553479
-8.81383e-05
-0.553213
-8.85712e-05
-0.552946
-8.90056e-05
-0.552677
-8.94415e-05
-0.552407
-8.98787e-05
-0.552136
-9.03173e-05
-0.551863
-9.07573e-05
-0.55159
-9.11987e-05
-0.551314
-9.16415e-05
-0.551038
-9.20857e-05
-0.55076
-9.25313e-05
-0.550481
-9.29783e-05
-0.5502
-9.34268e-05
-0.549918
-9.38767e-05
-0.549635
-9.4328e-05
-0.54935
-9.47807e-05
-0.549064
-9.52348e-05
-0.548777
-9.56903e-05
-0.548488
-9.61471e-05
-0.548198
-9.66053e-05
-0.547906
-9.70648e-05
-0.547613
-9.75256e-05
-0.547319
-9.79877e-05
-0.547023
-9.84513e-05
-0.546726
-9.89163e-05
-0.546427
-9.93826e-05
-0.546127
-9.98504e-05
-0.545826
-0.00010032
-0.545523
-0.00010079
-0.545219
-0.000101262
-0.544913
-0.000101735
-0.544606
-0.00010221
-0.544298
-0.000102686
-0.543988
-0.000103164
-0.543677
-0.000103642
-0.543364
-0.000104122
-0.54305
-0.000104604
-0.542734
-0.000105087
-0.542417
-0.000105571
-0.542098
-0.000106057
-0.541778
-0.000106544
-0.541456
-0.000107033
-0.541133
-0.000107522
-0.540809
-0.000108013
-0.540483
-0.000108506
-0.540155
-0.000108999
-0.539826
-0.000109494
-0.539496
-0.00010999
-0.539164
-0.000110488
-0.53883
-0.000110987
-0.538495
-0.000111488
-0.538159
-0.00011199
-0.537821
-0.000112493
-0.537481
-0.000112997
-0.53714
-0.000113503
-0.536798
-0.00011401
-0.536453
-0.000114519
-0.536108
-0.000115028
-0.535761
-0.000115539
-0.535412
-0.000116052
-0.535062
-0.000116566
-0.53471
-0.000117081
-0.534356
-0.000117597
-0.534001
-0.000118115
-0.533645
-0.000118634
-0.533287
-0.000119155
-0.532927
-0.000119676
-0.532566
-0.000120199
-0.532203
-0.000120723
-0.531839
-0.000121249
-0.531473
-0.000121775
-0.531105
-0.000122303
-0.530736
-0.000122833
-0.530365
-0.000123363
-0.529993
-0.000123895
-0.529619
-0.000124428
-0.529243
-0.000124963
-0.528866
-0.000125498
-0.528487
-0.000126035
-0.528107
-0.000126574
-0.527725
-0.000127113
-0.527341
-0.000127654
-0.526956
-0.000128196
-0.526569
-0.000128739
-0.52618
-0.000129284
-0.52579
-0.000129829
-0.525398
-0.000130376
-0.525004
-0.000130924
-0.524609
-0.000131474
-0.524212
-0.000132024
-0.523814
-0.000132576
-0.523414
-0.00013313
-0.523012
-0.000133684
-0.522608
-0.000134239
-0.522203
-0.000134796
-0.521796
-0.000135354
-0.521387
-0.000135913
-0.520977
-0.000136473
-0.520565
-0.000137035
-0.520152
-0.000137597
-0.519736
-0.000138161
-0.519319
-0.000138726
-0.5189
-0.000139293
-0.51848
-0.00013986
-0.518058
-0.000140429
-0.517634
-0.000140998
-0.517208
-0.000141569
-0.516781
-0.000142141
-0.516352
-0.000142714
-0.515921
-0.000143289
-0.515488
-0.000143864
-0.515054
-0.000144441
-0.514618
-0.000145018
-0.51418
-0.000145597
-0.513741
-0.000146177
-0.513299
-0.000146758
-0.512856
-0.000147341
-0.512412
-0.000147924
-0.511965
-0.000148508
-0.511517
-0.000149093
-0.511067
-0.00014968
-0.510615
-0.000150267
-0.510161
-0.000150856
-0.509706
-0.000151446
-0.509249
-0.000152036
-0.50879
-0.000152628
-0.508329
-0.00015322
-0.507866
-0.000153814
-0.507402
-0.000154409
-0.506936
-0.000155004
-0.506468
-0.000155601
-0.505998
-0.000156199
-0.505527
-0.000156797
-0.505053
-0.000157397
-0.504578
-0.000157998
-0.504101
-0.000158599
-0.503622
-0.000159202
-0.503142
-0.000159807
-0.502659
-0.000160412
-0.502175
-0.000161019
-0.501689
-0.000161626
-0.501201
-0.000162234
-0.500711
-0.000162844
-0.50022
-0.000163454
-0.499726
-0.000164065
-0.499231
-0.000164677
-0.498734
-0.00016529
-0.498235
-0.000165904
-0.497734
-0.00016652
-0.497231
-0.000167136
-0.496726
-0.000167752
-0.49622
-0.00016837
-0.495712
-0.000168989
-0.495201
-0.000169609
-0.494689
-0.00017023
-0.494175
-0.000170851
-0.49366
-0.000171474
-0.493142
-0.000172097
-0.492622
-0.000172721
-0.492101
-0.000173347
-0.491578
-0.000173973
-0.491052
-0.000174599
-0.490525
-0.000175227
-0.489996
-0.000175855
-0.489465
-0.000176484
-0.488932
-0.000177115
-0.488398
-0.000177746
-0.487861
-0.000178378
-0.487323
-0.00017901
-0.486782
-0.000179644
-0.48624
-0.000180278
-0.485695
-0.000180913
-0.485149
-0.000181549
-0.484601
-0.000182186
-0.484051
-0.000182824
-0.483499
-0.000183462
-0.482945
-0.000184101
-0.482389
-0.000184741
-0.481832
-0.000185382
-0.481272
-0.000186023
-0.48071
-0.000186666
-0.480147
-0.000187309
-0.479581
-0.000187953
-0.479014
-0.000188597
-0.478444
-0.000189242
-0.477873
-0.000189888
-0.4773
-0.000190535
-0.476725
-0.000191182
-0.476147
-0.00019183
-0.475568
-0.000192479
-0.474987
-0.000193129
-0.474404
-0.000193779
-0.473819
-0.000194428
-0.473232
-0.000195079
-0.472643
-0.00019573
-0.472052
-0.000196381
-0.471459
-0.000197033
-0.470864
-0.000197686
-0.470268
-0.000198339
-0.469669
-0.000198993
-0.469068
-0.000199647
-0.468465
-0.000200302
-0.467861
-0.000200957
-0.467254
-0.000201613
-0.466645
-0.00020227
-0.466035
-0.000202927
-0.465422
-0.000203585
-0.464807
-0.000204243
-0.464191
-0.000204902
-0.463572
-0.000205561
-0.462951
-0.00020622
-0.462329
-0.000206881
-0.461704
-0.000207541
-0.461078
-0.000208202
-0.460449
-0.000208864
-0.459818
-0.000209526
-0.459186
-0.000210188
-0.458551
-0.000210851
-0.457915
-0.000211514
-0.457276
-0.000212178
-0.456635
-0.000212842
-0.455993
-0.000213506
-0.455348
-0.000214171
-0.454702
-0.000214836
-0.454053
-0.000215502
-0.453402
-0.000216168
-0.45275
-0.000216834
-0.452095
-0.0002175
-0.451438
-0.000218167
-0.45078
-0.000218835
-0.450119
-0.000219502
-0.449456
-0.00022017
-0.448791
-0.000220838
-0.448125
-0.000221507
-0.447456
-0.000222175
-0.446785
-0.000222844
-0.446112
-0.000223513
-0.445437
-0.000224183
-0.444761
-0.000224852
-0.444082
-0.000225522
-0.443401
-0.000226192
-0.442718
-0.000226863
-0.442033
-0.000227533
-0.441346
-0.000228204
-0.440657
-0.000228875
-0.439966
-0.000229546
-0.439273
-0.000230217
-0.438578
-0.000230888
-0.437881
-0.00023156
-0.437182
-0.000232232
-0.43648
-0.000232903
-0.435777
-0.000233575
-0.435072
-0.000234247
-0.434365
-0.000234919
-0.433655
-0.000235591
-0.432944
-0.000236263
-0.432231
-0.000236936
-0.431515
-0.000237608
-0.430798
-0.00023828
-0.430079
-0.000238953
-0.429357
-0.000239625
-0.428634
-0.000240298
-0.427908
-0.00024097
-0.42718
-0.000241642
-0.426451
-0.000242314
-0.425719
-0.000242987
-0.424986
-0.000243659
-0.42425
-0.000244331
-0.423512
-0.000245003
-0.422772
-0.000245676
-0.422031
-0.000246348
-0.421287
-0.00024702
-0.420541
-0.000247691
-0.419793
-0.000248363
-0.419043
-0.000249035
-0.418291
-0.000249706
-0.417537
-0.000250378
-0.416781
-0.000251049
-0.416023
-0.000251719
-0.415263
-0.00025239
-0.414501
-0.000253061
-0.413737
-0.000253731
-0.412971
-0.000254401
-0.412203
-0.000255071
-0.411433
-0.00025574
-0.410661
-0.00025641
-0.409887
-0.000257079
-0.40911
-0.000257748
-0.408332
-0.000258416
-0.407552
-0.000259085
-0.40677
-0.000259753
-0.405985
-0.000260421
-0.405199
-0.000261088
-0.404411
-0.000261755
-0.40362
-0.000262422
-0.402828
-0.000263088
-0.402034
-0.000263754
-0.401237
-0.00026442
-0.400439
-0.000265085
-0.399639
-0.00026575
-0.398836
-0.000266415
-0.398032
-0.000267079
-0.397225
-0.000267742
-0.396417
-0.000268405
-0.395606
-0.000269068
-0.394794
-0.00026973
-0.39398
-0.000270392
-0.393163
-0.000271054
-0.392345
-0.000271715
-0.391524
-0.000272375
-0.390702
-0.000273035
-0.389878
-0.000273694
-0.389051
-0.000274353
-0.388223
-0.000275011
-0.387392
-0.000275668
-0.38656
-0.000276326
-0.385726
-0.000276982
-0.384889
-0.000277638
-0.384051
-0.000278293
-0.383211
-0.000278948
-0.382369
-0.000279602
-0.381524
-0.000280255
-0.380678
-0.000280908
-0.37983
-0.00028156
-0.37898
-0.000282212
-0.378128
-0.000282863
-0.377274
-0.000283513
-0.376418
-0.000284162
-0.37556
-0.00028481
-0.3747
-0.000285458
-0.373838
-0.000286106
-0.372974
-0.000286752
-0.372108
-0.000287398
-0.37124
-0.000288043
-0.37037
-0.000288687
-0.369499
-0.00028933
-0.368625
-0.000289972
-0.36775
-0.000290614
-0.366872
-0.000291255
-0.365993
-0.000291895
-0.365111
-0.000292534
-0.364228
-0.000293173
-0.363343
-0.00029381
-0.362456
-0.000294447
-0.361567
-0.000295082
-0.360676
-0.000295717
-0.359783
-0.000296351
-0.358888
-0.000296984
-0.357991
-0.000297615
-0.357092
-0.000298246
-0.356192
-0.000298876
-0.355289
-0.000299505
-0.354385
-0.000300133
-0.353479
-0.00030076
-0.352571
-0.000301386
-0.351661
-0.000302011
-0.350749
-0.000302635
-0.349835
-0.000303258
-0.348919
-0.00030388
-0.348002
-0.000304501
-0.347082
-0.00030512
-0.346161
-0.000305739
-0.345238
-0.000306357
-0.344313
-0.000306973
-0.343386
-0.000307588
-0.342457
-0.000308203
-0.341526
-0.000308816
-0.340594
-0.000309427
-0.33966
-0.000310038
-0.338723
-0.000310647
-0.337785
-0.000311255
-0.336846
-0.000311862
-0.335904
-0.000312468
-0.33496
-0.000313073
-0.334015
-0.000313676
-0.333068
-0.000314278
-0.332119
-0.000314879
-0.331168
-0.000315478
-0.330216
-0.000316076
-0.329261
-0.000316673
-0.328305
-0.000317269
-0.327347
-0.000317863
-0.326387
-0.000318456
-0.325426
-0.000319048
-0.324462
-0.000319638
-0.323497
-0.000320227
-0.32253
-0.000320815
-0.321561
-0.000321401
-0.320591
-0.000321986
-0.319619
-0.000322569
-0.318645
-0.000323151
-0.317669
-0.000323732
-0.316691
-0.000324311
-0.315712
-0.000324888
-0.314731
-0.000325464
-0.313748
-0.000326039
-0.312764
-0.000326612
-0.311778
-0.000327184
-0.31079
-0.000327754
-0.3098
-0.000328323
-0.308809
-0.00032889
-0.307815
-0.000329455
-0.306821
-0.00033002
-0.305824
-0.000330582
-0.304826
-0.000331143
-0.303826
-0.000331702
-0.302824
-0.00033226
-0.301821
-0.000332816
-0.300816
-0.00033337
-0.29981
-0.000333923
-0.298801
-0.000334474
-0.297791
-0.000335024
-0.29678
-0.000335572
-0.295766
-0.000336118
-0.294751
-0.000336662
-0.293735
-0.000337205
-0.292717
-0.000337746
-0.291697
-0.000338286
-0.290675
-0.000338823
-0.289652
-0.000339359
-0.288627
-0.000339893
-0.287601
-0.000340426
-0.286573
-0.000340956
-0.285544
-0.000341485
-0.284512
-0.000342012
-0.28348
-0.000342537
-0.282445
-0.000343061
-0.281409
-0.000343582
-0.280372
-0.000344102
-0.279333
-0.00034462
-0.278292
-0.000345136
-0.27725
-0.00034565
-0.276206
-0.000346162
-0.275161
-0.000346673
-0.274114
-0.000347181
-0.273066
-0.000347688
-0.272016
-0.000348192
-0.270965
-0.000348695
-0.269912
-0.000349196
-0.268857
-0.000349695
-0.267801
-0.000350192
-0.266744
-0.000350686
-0.265685
-0.000351179
-0.264624
-0.00035167
-0.263562
-0.000352159
-0.262499
-0.000352646
-0.261434
-0.000353131
-0.260368
-0.000353613
-0.2593
-0.000354094
-0.258231
-0.000354573
-0.25716
-0.000355049
-0.256088
-0.000355524
-0.255014
-0.000355996
-0.253939
-0.000356467
-0.252863
-0.000356935
-0.251785
-0.000357401
-0.250706
-0.000357865
-0.249625
-0.000358327
-0.248543
-0.000358787
-0.24746
-0.000359244
-0.246375
-0.0003597
-0.245289
-0.000360153
-0.244201
-0.000360604
-0.243112
-0.000361053
-0.242022
-0.000361499
-0.24093
-0.000361943
-0.239837
-0.000362385
-0.238743
-0.000362825
-0.237647
-0.000363263
-0.23655
-0.000363698
-0.235452
-0.000364131
-0.234352
-0.000364562
-0.233251
-0.000364991
-0.232149
-0.000365417
-0.231046
-0.000365841
-0.229941
-0.000366262
-0.228835
-0.000366681
-0.227728
-0.000367098
-0.226619
-0.000367513
-0.225509
-0.000367925
-0.224398
-0.000368335
-0.223286
-0.000368742
-0.222172
-0.000369147
-0.221057
-0.00036955
-0.219941
-0.00036995
-0.218824
-0.000370348
-0.217706
-0.000370743
-0.216586
-0.000371136
-0.215465
-0.000371526
-0.214343
-0.000371914
-0.21322
-0.0003723
-0.212096
-0.000372683
-0.21097
-0.000373064
-0.209844
-0.000373442
-0.208716
-0.000373817
-0.207587
-0.00037419
-0.206457
-0.00037456
-0.205326
-0.000374928
-0.204194
-0.000375294
-0.20306
-0.000375656
-0.201926
-0.000376016
-0.20079
-0.000376374
-0.199653
-0.000376729
-0.198516
-0.000377081
-0.197377
-0.000377431
-0.196237
-0.000377778
-0.195096
-0.000378123
-0.193954
-0.000378465
-0.192811
-0.000378804
-0.191667
-0.000379141
-0.190522
-0.000379474
-0.189376
-0.000379806
-0.188229
-0.000380134
-0.18708
-0.00038046
-0.185931
-0.000380783
-0.184781
-0.000381103
-0.18363
-0.00038142
-0.182478
-0.000381735
-0.181325
-0.000382047
-0.180171
-0.000382356
-0.179016
-0.000382662
-0.17786
-0.000382966
-0.176704
-0.000383267
-0.175546
-0.000383564
-0.174387
-0.000383859
-0.173228
-0.000384151
-0.172068
-0.000384441
-0.170906
-0.000384727
-0.169744
-0.00038501
-0.168581
-0.00038529
-0.167417
-0.000385568
-0.166253
-0.000385842
-0.165087
-0.000386114
-0.163921
-0.000386382
-0.162753
-0.000386647
-0.161585
-0.00038691
-0.160417
-0.000387169
-0.159247
-0.000387425
-0.158076
-0.000387678
-0.156905
-0.000387928
-0.155733
-0.000388175
-0.15456
-0.000388419
-0.153387
-0.000388659
-0.152213
-0.000388896
-0.151038
-0.00038913
-0.149862
-0.000389361
-0.148685
-0.000389588
-0.147508
-0.000389812
-0.14633
-0.000390033
-0.145152
-0.00039025
-0.143972
-0.000390464
-0.142793
-0.000390674
-0.141612
-0.000390881
-0.140431
-0.000391084
-0.139249
-0.000391284
-0.138066
-0.00039148
-0.136883
-0.000391672
-0.135699
-0.000391861
-0.134515
-0.000392046
-0.13333
-0.000392227
-0.132144
-0.000392404
-0.130958
-0.000392577
-0.129771
-0.000392746
-0.128584
-0.000392911
-0.127396
-0.000393071
-0.126208
-0.000393228
-0.125019
-0.00039338
-0.123829
-0.000393528
-0.122639
-0.000393672
-0.121449
-0.000393811
-0.120258
-0.000393946
-0.119066
-0.000394075
-0.117875
-0.000394199
-0.116682
-0.000394318
-0.115489
-0.000394432
-0.114296
-0.000394541
-0.113103
-0.000394644
-0.111909
-0.000394741
-0.110714
-0.000394832
-0.109519
-0.000394917
-0.108324
-0.000394996
-0.107129
-0.000395068
-0.105933
-0.000395134
-0.104736
-0.000395192
-0.10354
-0.000395242
-0.102343
-0.000395284
-0.101146
-0.000395318
-0.0999485
-0.000395343
-0.0987508
-0.000395359
-0.0975529
-0.000395365
-0.0963548
-0.00039536
-0.0951565
-0.000395344
-0.0939579
-0.000395315
-0.0927593
-0.000395272
-0.0915604
-0.000395215
-0.0903615
-0.000395141
-0.0891624
-0.000395051
-0.0879633
-0.000394942
-0.0867641
-0.000394812
-0.0855649
-0.000394658
-0.0843657
-0.000394479
-0.0831666
-0.00039427
-0.0819676
-0.000394028
-0.0807687
-0.000393749
-0.07957
-0.000393426
-0.0783715
-0.000393053
-0.0771734
-0.00039262
-0.0759756
-0.000392118
-0.0747783
-0.000391532
-0.0735816
-0.000390846
-0.0723856
-0.000390036
-0.0711904
-0.000389071
-0.0699964
-0.000387911
-0.0688037
-0.000386494
-0.0676127
-0.000384734
-0.0664238
-0.000382508
-0.0652378
-0.00037961
-0.0640556
-0.000375696
-0.062879
-0.000370154
-0.0617107
-0.00036177
-0.0605561
-0.000348014
-0.0594262
-0.000323273
-0.0583439
-0.00027579
-0.000162768
-0.595961
1.84557e-05
-0.595895
1.94036e-05
-0.595861
-1.63539e-07
-0.595821
2.47422e-06
-0.595781
-8.72395e-07
-0.595741
-2.6426e-06
-0.5957
-3.71848e-06
-0.595658
-4.66585e-06
-0.595617
-5.2384e-06
-0.595575
-5.61441e-06
-0.595533
-5.86307e-06
-0.59549
-6.05313e-06
-0.595448
-6.19818e-06
-0.595406
-6.31904e-06
-0.595363
-6.42115e-06
-0.59532
-6.50304e-06
-0.595278
-6.57242e-06
-0.595235
-6.63237e-06
-0.595192
-6.68449e-06
-0.595149
-6.73054e-06
-0.595106
-6.77172e-06
-0.595063
-6.80883e-06
-0.59502
-6.84255e-06
-0.594977
-6.87351e-06
-0.594934
-6.90221e-06
-0.59489
-6.92948e-06
-0.594847
-6.95555e-06
-0.594804
-6.98011e-06
-0.59476
-7.00321e-06
-0.594716
-7.02726e-06
-0.594673
-7.05021e-06
-0.594629
-7.07239e-06
-0.594585
-7.09414e-06
-0.594541
-7.11563e-06
-0.594497
-7.13695e-06
-0.594453
-7.15817e-06
-0.594408
-7.17935e-06
-0.594364
-7.2005e-06
-0.59432
-7.22168e-06
-0.594275
-7.2429e-06
-0.59423
-7.26421e-06
-0.594185
-7.28565e-06
-0.594141
-7.30725e-06
-0.594096
-7.32908e-06
-0.59405
-7.35114e-06
-0.594005
-7.37346e-06
-0.59396
-7.39606e-06
-0.593914
-7.41896e-06
-0.593868
-7.44219e-06
-0.593823
-7.46577e-06
-0.593777
-7.48969e-06
-0.593731
-7.51398e-06
-0.593684
-7.53861e-06
-0.593638
-7.56359e-06
-0.593592
-7.58891e-06
-0.593545
-7.61456e-06
-0.593498
-7.64055e-06
-0.593451
-7.66689e-06
-0.593404
-7.69361e-06
-0.593357
-7.7207e-06
-0.593309
-7.74811e-06
-0.593262
-7.77584e-06
-0.593214
-7.8039e-06
-0.593166
-7.83237e-06
-0.593118
-7.86127e-06
-0.59307
-7.89063e-06
-0.593021
-7.92049e-06
-0.592973
-7.95082e-06
-0.592924
-7.98157e-06
-0.592875
-8.01275e-06
-0.592825
-8.04437e-06
-0.592776
-8.07643e-06
-0.592726
-8.10893e-06
-0.592677
-8.14187e-06
-0.592627
-8.17523e-06
-0.592576
-8.20899e-06
-0.592526
-8.24317e-06
-0.592475
-8.27774e-06
-0.592425
-8.31273e-06
-0.592374
-8.34814e-06
-0.592322
-8.38398e-06
-0.592271
-8.42024e-06
-0.592219
-8.4569e-06
-0.592167
-8.49399e-06
-0.592115
-8.5315e-06
-0.592063
-8.56946e-06
-0.59201
-8.60792e-06
-0.591957
-8.64688e-06
-0.591904
-8.68638e-06
-0.591851
-8.72639e-06
-0.591797
-8.76684e-06
-0.591743
-8.80775e-06
-0.591689
-8.8491e-06
-0.591635
-8.89087e-06
-0.59158
-8.93295e-06
-0.591525
-8.9751e-06
-0.59147
-9.01761e-06
-0.591415
-9.06229e-06
-0.591359
-9.10674e-06
-0.591303
-9.15122e-06
-0.591247
-9.19587e-06
-0.59119
-9.24085e-06
-0.591133
-9.28691e-06
-0.591076
-9.33359e-06
-0.591019
-9.38059e-06
-0.590961
-9.42798e-06
-0.590903
-9.47581e-06
-0.590845
-9.52411e-06
-0.590787
-9.57288e-06
-0.590728
-9.62216e-06
-0.590669
-9.67193e-06
-0.590609
-9.7222e-06
-0.590549
-9.77295e-06
-0.590489
-9.82419e-06
-0.590429
-9.87592e-06
-0.590368
-9.92814e-06
-0.590307
-9.98084e-06
-0.590246
-1.0034e-05
-0.590184
-1.00877e-05
-0.590122
-1.01417e-05
-0.59006
-1.01962e-05
-0.589997
-1.02512e-05
-0.589934
-1.03066e-05
-0.589871
-1.03624e-05
-0.589807
-1.04187e-05
-0.589743
-1.04755e-05
-0.589678
-1.0533e-05
-0.589613
-1.0591e-05
-0.589548
-1.06494e-05
-0.589483
-1.07084e-05
-0.589417
-1.07679e-05
-0.589351
-1.08278e-05
-0.589284
-1.08882e-05
-0.589217
-1.09491e-05
-0.58915
-1.10105e-05
-0.589082
-1.10724e-05
-0.589014
-1.11349e-05
-0.588945
-1.11978e-05
-0.588876
-1.1261e-05
-0.588807
-1.13247e-05
-0.588737
-1.13892e-05
-0.588667
-1.14544e-05
-0.588597
-1.15201e-05
-0.588526
-1.15863e-05
-0.588454
-1.16529e-05
-0.588383
-1.172e-05
-0.588311
-1.17875e-05
-0.588238
-1.18554e-05
-0.588165
-1.19239e-05
-0.588092
-1.19928e-05
-0.588018
-1.20624e-05
-0.587943
-1.21324e-05
-0.587869
-1.2203e-05
-0.587794
-1.22741e-05
-0.587718
-1.23456e-05
-0.587642
-1.24173e-05
-0.587565
-1.24891e-05
-0.587489
-1.25627e-05
-0.587411
-1.26369e-05
-0.587333
-1.27113e-05
-0.587255
-1.2786e-05
-0.587176
-1.28613e-05
-0.587097
-1.29373e-05
-0.587017
-1.30137e-05
-0.586937
-1.30905e-05
-0.586856
-1.31678e-05
-0.586775
-1.32457e-05
-0.586694
-1.3324e-05
-0.586612
-1.34029e-05
-0.586529
-1.34824e-05
-0.586446
-1.35625e-05
-0.586362
-1.36431e-05
-0.586278
-1.37241e-05
-0.586194
-1.38057e-05
-0.586109
-1.38878e-05
-0.586023
-1.39706e-05
-0.585937
-1.40538e-05
-0.58585
-1.41377e-05
-0.585763
-1.4222e-05
-0.585675
-1.43068e-05
-0.585587
-1.43923e-05
-0.585498
-1.44783e-05
-0.585409
-1.4565e-05
-0.585319
-1.46522e-05
-0.585229
-1.47399e-05
-0.585138
-1.48281e-05
-0.585047
-1.49168e-05
-0.584955
-1.5006e-05
-0.584862
-1.50958e-05
-0.584769
-1.51863e-05
-0.584675
-1.52772e-05
-0.584581
-1.53687e-05
-0.584486
-1.54608e-05
-0.584391
-1.55534e-05
-0.584295
-1.56465e-05
-0.584199
-1.57401e-05
-0.584101
-1.58342e-05
-0.584004
-1.59286e-05
-0.583905
-1.60233e-05
-0.583807
-1.61196e-05
-0.583707
-1.62167e-05
-0.583607
-1.63141e-05
-0.583506
-1.64119e-05
-0.583405
-1.65102e-05
-0.583303
-1.6609e-05
-0.583201
-1.67084e-05
-0.583098
-1.68084e-05
-0.582994
-1.69091e-05
-0.58289
-1.70104e-05
-0.582785
-1.71122e-05
-0.582679
-1.72146e-05
-0.582573
-1.73175e-05
-0.582466
-1.74209e-05
-0.582358
-1.75249e-05
-0.58225
-1.76295e-05
-0.582141
-1.77347e-05
-0.582032
-1.78404e-05
-0.581922
-1.79467e-05
-0.581811
-1.80535e-05
-0.581699
-1.81608e-05
-0.581587
-1.82687e-05
-0.581474
-1.8377e-05
-0.581361
-1.84858e-05
-0.581247
-1.85957e-05
-0.581132
-1.87067e-05
-0.581016
-1.88181e-05
-0.5809
-1.89299e-05
-0.580783
-1.90422e-05
-0.580666
-1.9155e-05
-0.580547
-1.92683e-05
-0.580428
-1.93822e-05
-0.580309
-1.94968e-05
-0.580188
-1.96119e-05
-0.580067
-1.97276e-05
-0.579945
-1.98443e-05
-0.579823
-1.99616e-05
-0.579699
-2.00796e-05
-0.579575
-2.01981e-05
-0.579451
-2.0317e-05
-0.579325
-2.04364e-05
-0.579199
-2.05564e-05
-0.579072
-2.06769e-05
-0.578944
-2.0798e-05
-0.578816
-2.09196e-05
-0.578686
-2.10419e-05
-0.578556
-2.11647e-05
-0.578425
-2.12881e-05
-0.578294
-2.14122e-05
-0.578162
-2.1537e-05
-0.578028
-2.16624e-05
-0.577895
-2.17885e-05
-0.57776
-2.19153e-05
-0.577624
-2.20428e-05
-0.577488
-2.21708e-05
-0.577351
-2.22995e-05
-0.577213
-2.24288e-05
-0.577075
-2.25587e-05
-0.576935
-2.26893e-05
-0.576795
-2.28204e-05
-0.576654
-2.29521e-05
-0.576512
-2.30844e-05
-0.576369
-2.32173e-05
-0.576226
-2.33508e-05
-0.576081
-2.34849e-05
-0.575936
-2.36196e-05
-0.57579
-2.37549e-05
-0.575643
-2.38908e-05
-0.575495
-2.40273e-05
-0.575347
-2.41644e-05
-0.575197
-2.43023e-05
-0.575047
-2.44408e-05
-0.574896
-2.458e-05
-0.574744
-2.472e-05
-0.574591
-2.48607e-05
-0.574437
-2.5002e-05