/*--------------------------------*- C++ -*----------------------------------*\
| =========                 |                                                 |
| \\      /  F ield         | OpenFOAM: The Open Source CFD Toolbox           |
|  \\    /   O peration     | Version:  2512                                  |
|   \\  /    A nd           | Website:  www.openfoam.com                      |
|    \\/     M anipulation  |                                                 |
\*---------------------------------------------------------------------------*/
FoamFile
{
    version     2.0;
    format      ascii;
    arch        "LSB;label=32;scalar=64";
    class       surfaceScalarField;
    location    "1e-05";
    object      phiB;
}
// * * * * * * * * * * * * * * * * * * * * * * * * * * * * * * * * * * * * * //

dimensions      [1 2 -2 0 0 -1 0];

oriented        oriented;

internalField   nonuniform List<scalar> 
198900
(
1.65949e-05
0.0400011
2.06414e-05
0.039996
1.8309e-05
0.0400023
1.93437e-05
0.039999
1.91499e-05
0.0400002
1.9154e-05
0.04
1.91443e-05
0.04
1.91314e-05
0.04
1.91168e-05
0.04
1.91011e-05
0.04
1.90848e-05
0.04
1.9068e-05
0.04
1.90509e-05
0.04
1.90336e-05
0.04
1.90162e-05
0.04
1.89986e-05
0.04
1.8981e-05
0.04
1.89634e-05
0.04
1.89457e-05
0.04
1.8928e-05
0.04
1.89102e-05
0.04
1.88925e-05
0.04
1.88747e-05
0.04
1.88569e-05
0.04
1.88392e-05
0.04
1.88214e-05
0.04
1.88036e-05
0.04
1.87859e-05
0.04
1.87681e-05
0.04
1.87504e-05
0.04
1.87326e-05
0.04
1.87149e-05
0.04
1.86972e-05
0.04
1.86794e-05
0.04
1.86617e-05
0.04
1.8644e-05
0.04
1.86263e-05
0.04
1.86086e-05
0.04
1.85909e-05
0.04
1.85732e-05
0.04
1.85555e-05
0.04
1.85378e-05
0.04
1.85201e-05
0.04
1.85024e-05
0.04
1.84847e-05
0.04
1.84671e-05
0.04
1.84494e-05
0.04
1.84318e-05
0.04
1.84141e-05
0.04
1.83965e-05
0.04
1.83788e-05
0.04
1.83612e-05
0.04
1.83435e-05
0.04
1.83259e-05
0.04
1.83083e-05
0.04
1.82906e-05
0.04
1.8273e-05
0.04
1.82554e-05
0.04
1.82378e-05
0.04
1.82201e-05
0.04
1.82025e-05
0.04
1.81849e-05
0.04
1.81673e-05
0.04
1.81497e-05
0.04
1.81321e-05
0.04
1.81145e-05
0.04
1.80969e-05
0.04
1.80793e-05
0.04
1.80617e-05
0.04
1.80441e-05
0.04
1.80265e-05
0.04
1.80089e-05
0.04
1.79914e-05
0.04
1.79738e-05
0.04
1.79562e-05
0.04
1.79386e-05
0.04
1.7921e-05
0.04
1.79035e-05
0.04
1.78859e-05
0.04
1.78683e-05
0.04
1.78507e-05
0.04
1.78332e-05
0.04
1.78156e-05
0.04
1.7798e-05
0.04
1.77804e-05
0.04
1.77629e-05
0.04
1.77453e-05
0.04
1.77277e-05
0.04
1.77102e-05
0.04
1.76926e-05
0.04
1.7675e-05
0.04
1.76575e-05
0.04
1.76399e-05
0.04
1.76223e-05
0.04
1.76048e-05
0.04
1.75872e-05
0.04
1.75697e-05
0.04
1.75521e-05
0.04
1.75345e-05
0.04
1.7517e-05
0.04
1.74994e-05
0.04
1.74819e-05
0.04
1.74643e-05
0.04
1.74467e-05
0.04
1.74292e-05
0.04
1.74116e-05
0.04
1.73941e-05
0.04
1.73765e-05
0.04
1.7359e-05
0.04
1.73414e-05
0.04
1.73238e-05
0.04
1.73063e-05
0.04
1.72887e-05
0.04
1.72712e-05
0.04
1.72536e-05
0.04
1.72361e-05
0.04
1.72185e-05
0.04
1.72009e-05
0.04
1.71834e-05
0.04
1.71658e-05
0.04
1.71483e-05
0.04
1.71307e-05
0.04
1.71132e-05
0.04
1.70956e-05
0.04
1.7078e-05
0.04
1.70605e-05
0.04
1.70429e-05
0.04
1.70254e-05
0.04
1.70078e-05
0.04
1.69902e-05
0.04
1.69727e-05
0.04
1.69551e-05
0.04
1.69376e-05
0.04
1.692e-05
0.04
1.69024e-05
0.04
1.68849e-05
0.04
1.68673e-05
0.04
1.68497e-05
0.04
1.68322e-05
0.04
1.68146e-05
0.04
1.67971e-05
0.04
1.67795e-05
0.04
1.67619e-05
0.04
1.67444e-05
0.04
1.67268e-05
0.04
1.67092e-05
0.04
1.66917e-05
0.04
1.66741e-05
0.04
1.66565e-05
0.04
1.66389e-05
0.04
1.66214e-05
0.04
1.66038e-05
0.04
1.65862e-05
0.04
1.65687e-05
0.04
1.65511e-05
0.04
1.65335e-05
0.04
1.65159e-05
0.04
1.64984e-05
0.04
1.64808e-05
0.04
1.64632e-05
0.04
1.64456e-05
0.04
1.64281e-05
0.04
1.64105e-05
0.04
1.63929e-05
0.04
1.63753e-05
0.04
1.63578e-05
0.04
1.63402e-05
0.04
1.63226e-05
0.04
1.6305e-05
0.04
1.62874e-05
0.04
1.62698e-05
0.04
1.62523e-05
0.04
1.62347e-05
0.04
1.62171e-05
0.04
1.61995e-05
0.04
1.61819e-05
0.04
1.61643e-05
0.04
1.61467e-05
0.04
1.61291e-05
0.04
1.61116e-05
0.04
1.6094e-05
0.04
1.60764e-05
0.04
1.60588e-05
0.04
1.60412e-05
0.04
1.60236e-05
0.04
1.6006e-05
0.04
1.59884e-05
0.04
1.59708e-05
0.04
1.59532e-05
0.04
1.59356e-05
0.04
1.5918e-05
0.04
1.59004e-05
0.04
1.58828e-05
0.04
1.58652e-05
0.04
1.58476e-05
0.04
1.583e-05
0.04
1.58124e-05
0.04
1.57948e-05
0.04
1.57772e-05
0.04
1.57595e-05
0.04
1.57419e-05
0.04
1.57243e-05
0.04
1.57067e-05
0.04
1.56891e-05
0.04
1.56715e-05
0.04
1.56539e-05
0.04
1.56362e-05
0.04
1.56186e-05
0.04
1.5601e-05
0.04
1.55834e-05
0.04
1.55658e-05
0.04
1.55481e-05
0.04
1.55305e-05
0.04
1.55129e-05
0.04
1.54953e-05
0.04
1.54776e-05
0.04
1.546e-05
0.04
1.54424e-05
0.04
1.54248e-05
0.04
1.54071e-05
0.04
1.53895e-05
0.04
1.53719e-05
0.04
1.53542e-05
0.04
1.53366e-05
0.04
1.5319e-05
0.04
1.53013e-05
0.04
1.52837e-05
0.04
1.5266e-05
0.04
1.52484e-05
0.04
1.52307e-05
0.04
1.52131e-05
0.04
1.51955e-05
0.04
1.51778e-05
0.04
1.51602e-05
0.04
1.51425e-05
0.04
1.51249e-05
0.04
1.51072e-05
0.04
1.50896e-05
0.04
1.50719e-05
0.04
1.50542e-05
0.04
1.50366e-05
0.04
1.50189e-05
0.04
1.50013e-05
0.04
1.49836e-05
0.04
1.49659e-05
0.04
1.49483e-05
0.04
1.49306e-05
0.04
1.4913e-05
0.04
1.48953e-05
0.04
1.48776e-05
0.04
1.48599e-05
0.04
1.48423e-05
0.04
1.48246e-05
0.04
1.48069e-05
0.04
1.47892e-05
0.04
1.47716e-05
0.04
1.47539e-05
0.04
1.47362e-05
0.04
1.47185e-05
0.04
1.47008e-05
0.04
1.46832e-05
0.04
1.46655e-05
0.04
1.46478e-05
0.04
1.46301e-05
0.04
1.46124e-05
0.04
1.45947e-05
0.04
1.4577e-05
0.04
1.45593e-05
0.04
1.45416e-05
0.04
1.45239e-05
0.04
1.45062e-05
0.04
1.44885e-05
0.04
1.44708e-05
0.04
1.44531e-05
0.04
1.44354e-05
0.04
1.44177e-05
0.04
1.44e-05
0.04
1.43823e-05
0.04
1.43646e-05
0.04
1.43469e-05
0.04
1.43292e-05
0.04
1.43114e-05
0.04
1.42937e-05
0.04
1.4276e-05
0.04
1.42583e-05
0.04
1.42406e-05
0.04
1.42228e-05
0.04
1.42051e-05
0.04
1.41874e-05
0.04
1.41696e-05
0.04
1.41519e-05
0.04
1.41342e-05
0.04
1.41165e-05
0.04
1.40987e-05
0.04
1.4081e-05
0.04
1.40632e-05
0.04
1.40455e-05
0.04
1.40278e-05
0.04
1.401e-05
0.04
1.39923e-05
0.04
1.39745e-05
0.04
1.39568e-05
0.04
1.3939e-05
0.04
1.39213e-05
0.04
1.39035e-05
0.04
1.38857e-05
0.04
1.3868e-05
0.04
1.38502e-05
0.04
1.38325e-05
0.04
1.38147e-05
0.04
1.37969e-05
0.04
1.37792e-05
0.04
1.37614e-05
0.04
1.37436e-05
0.04
1.37259e-05
0.04
1.37081e-05
0.04
1.36903e-05
0.04
1.36725e-05
0.04
1.36547e-05
0.04
1.3637e-05
0.04
1.36192e-05
0.04
1.36014e-05
0.04
1.35836e-05
0.04
1.35658e-05
0.04
1.3548e-05
0.04
1.35302e-05
0.04
1.35124e-05
0.04
1.34946e-05
0.04
1.34768e-05
0.04
1.3459e-05
0.04
1.34412e-05
0.04
1.34234e-05
0.04
1.34056e-05
0.04
1.33878e-05
0.04
1.337e-05
0.04
1.33522e-05
0.04
1.33343e-05
0.04
1.33165e-05
0.04
1.32987e-05
0.04
1.32809e-05
0.04
1.32631e-05
0.04
1.32452e-05
0.04
1.32274e-05
0.04
1.32096e-05
0.04
1.31917e-05
0.04
1.31739e-05
0.04
1.31561e-05
0.04
1.31382e-05
0.04
1.31204e-05
0.04
1.31025e-05
0.04
1.30847e-05
0.04
1.30669e-05
0.04
1.3049e-05
0.04
1.30312e-05
0.04
1.30133e-05
0.04
1.29954e-05
0.04
1.29776e-05
0.04
1.29597e-05
0.04
1.29419e-05
0.04
1.2924e-05
0.04
1.29061e-05
0.04
1.28883e-05
0.04
1.28704e-05
0.04
1.28525e-05
0.04
1.28346e-05
0.04
1.28168e-05
0.04
1.27989e-05
0.04
1.2781e-05
0.04
1.27631e-05
0.04
1.27452e-05
0.04
1.27273e-05
0.04
1.27094e-05
0.04
1.26915e-05
0.04
1.26736e-05
0.04
1.26557e-05
0.04
1.26378e-05
0.04
1.26199e-05
0.04
1.2602e-05
0.04
1.25841e-05
0.04
1.25662e-05
0.04
1.25483e-05
0.04
1.25304e-05
0.04
1.25125e-05
0.04
1.24945e-05
0.04
1.24766e-05
0.04
1.24587e-05
0.04
1.24408e-05
0.04
1.24228e-05
0.04
1.24049e-05
0.04
1.2387e-05
0.04
1.2369e-05
0.04
1.23511e-05
0.04
1.23331e-05
0.04
1.23152e-05
0.04
1.22972e-05
0.04
1.22793e-05
0.04
1.22613e-05
0.04
1.22434e-05
0.04
1.22254e-05
0.04
1.22075e-05
0.04
1.21895e-05
0.04
1.21715e-05
0.04
1.21535e-05
0.04
1.21356e-05
0.04
1.21176e-05
0.04
1.20996e-05
0.04
1.20816e-05
0.04
1.20637e-05
0.04
1.20457e-05
0.04
1.20277e-05
0.04
1.20097e-05
0.04
1.19917e-05
0.04
1.19737e-05
0.04
1.19557e-05
0.04
1.19377e-05
0.04
1.19197e-05
0.04
1.19017e-05
0.04
1.18837e-05
0.04
1.18657e-05
0.04
1.18477e-05
0.04
1.18296e-05
0.04
1.18116e-05
0.04
1.17936e-05
0.04
1.17756e-05
0.04
1.17575e-05
0.04
1.17395e-05
0.04
1.17215e-05
0.04
1.17034e-05
0.04
1.16854e-05
0.04
1.16674e-05
0.04
1.16493e-05
0.04
1.16313e-05
0.04
1.16132e-05
0.04
1.15952e-05
0.04
1.15771e-05
0.04
1.1559e-05
0.04
1.1541e-05
0.04
1.15229e-05
0.04
1.15048e-05
0.04
1.14868e-05
0.04
1.14687e-05
0.04
1.14506e-05
0.04
1.14325e-05
0.04
1.14144e-05
0.04
1.13964e-05
0.04
1.13783e-05
0.04
1.13602e-05
0.04
1.13421e-05
0.04
1.1324e-05
0.04
1.13059e-05
0.04
1.12878e-05
0.04
1.12697e-05
0.04
1.12516e-05
0.04
1.12334e-05
0.04
1.12153e-05
0.04
1.11972e-05
0.04
1.11791e-05
0.04
1.1161e-05
0.04
1.11428e-05
0.04
1.11247e-05
0.04
1.11066e-05
0.04
1.10884e-05
0.04
1.10703e-05
0.04
1.10521e-05
0.04
1.1034e-05
0.04
1.10158e-05
0.04
1.09977e-05
0.04
1.09795e-05
0.04
1.09614e-05
0.04
1.09432e-05
0.04
1.0925e-05
0.04
1.09069e-05
0.04
1.08887e-05
0.04
1.08705e-05
0.04
1.08523e-05
0.04
1.08341e-05
0.04
1.08159e-05
0.04
1.07978e-05
0.04
1.07796e-05
0.04
1.07614e-05
0.04
1.07432e-05
0.04
1.0725e-05
0.04
1.07068e-05
0.04
1.06885e-05
0.04
1.06703e-05
0.04
1.06521e-05
0.04
1.06339e-05
0.04
1.06157e-05
0.04
1.05974e-05
0.04
1.05792e-05
0.04
1.0561e-05
0.04
1.05427e-05
0.04
1.05245e-05
0.04
1.05063e-05
0.04
1.0488e-05
0.04
1.04698e-05
0.04
1.04515e-05
0.04
1.04333e-05
0.04
1.0415e-05
0.04
1.03967e-05
0.04
1.03785e-05
0.04
1.03602e-05
0.04
1.03419e-05
0.04
1.03236e-05
0.04
1.03054e-05
0.04
1.02871e-05
0.04
1.02688e-05
0.04
1.02505e-05
0.04
1.02322e-05
0.04
1.02139e-05
0.04
1.01956e-05
0.04
1.01773e-05
0.04
1.0159e-05
0.04
1.01407e-05
0.04
1.01224e-05
0.04
1.0104e-05
0.04
1.00857e-05
0.04
1.00674e-05
0.04
1.00491e-05
0.04
1.00307e-05
0.04
1.00124e-05
0.04
9.99404e-06
0.04
9.97569e-06
0.04
9.95735e-06
0.04
9.93899e-06
0.04
9.92064e-06
0.04
9.90228e-06
0.04
9.88391e-06
0.04
9.86555e-06
0.04
9.84718e-06
0.04
9.8288e-06
0.04
9.81042e-06
0.04
9.79204e-06
0.04
9.77366e-06
0.04
9.75527e-06
0.04
9.73688e-06
0.04
9.71848e-06
0.04
9.70008e-06
0.04
9.68168e-06
0.04
9.66327e-06
0.04
9.64486e-06
0.04
9.62644e-06
0.04
9.60802e-06
0.04
9.5896e-06
0.04
9.57117e-06
0.04
9.55274e-06
0.04
9.53431e-06
0.04
9.51587e-06
0.04
9.49743e-06
0.04
9.47899e-06
0.04
9.46054e-06
0.04
9.44208e-06
0.04
9.42363e-06
0.04
9.40517e-06
0.04
9.3867e-06
0.04
9.36823e-06
0.04
9.34976e-06
0.04
9.33129e-06
0.04
9.31281e-06
0.04
9.29432e-06
0.04
9.27584e-06
0.04
9.25735e-06
0.04
9.23885e-06
0.04
9.22035e-06
0.04
9.20185e-06
0.04
9.18334e-06
0.04
9.16483e-06
0.04
9.14632e-06
0.04
9.1278e-06
0.04
9.10928e-06
0.04
9.09075e-06
0.04
9.07222e-06
0.04
9.05369e-06
0.04
9.03515e-06
0.04
9.01661e-06
0.04
8.99806e-06
0.04
8.97951e-06
0.04
8.96096e-06
0.04
8.9424e-06
0.04
8.92384e-06
0.04
8.90527e-06
0.04
8.8867e-06
0.04
8.86813e-06
0.04
8.84955e-06
0.04
8.83097e-06
0.04
8.81238e-06
0.04
8.79379e-06
0.04
8.7752e-06
0.04
8.7566e-06
0.04
8.738e-06
0.04
8.7194e-06
0.04
8.70079e-06
0.04
8.68217e-06
0.04
8.66356e-06
0.04
8.64493e-06
0.04
8.62631e-06
0.04
8.60768e-06
0.04
8.58905e-06
0.04
8.57041e-06
0.04
8.55177e-06
0.04
8.53312e-06
0.04
8.51447e-06
0.04
8.49582e-06
0.04
8.47716e-06
0.04
8.4585e-06
0.04
8.43983e-06
0.04
8.42116e-06
0.04
8.40249e-06
0.04
8.38381e-06
0.04
8.36513e-06
0.04
8.34644e-06
0.04
8.32775e-06
0.04
8.30905e-06
0.04
8.29036e-06
0.04
8.27165e-06
0.04
8.25295e-06
0.04
8.23423e-06
0.04
8.21552e-06
0.04
8.1968e-06
0.04
8.17808e-06
0.04
8.15935e-06
0.04
8.14062e-06
0.04
8.12188e-06
0.04
8.10314e-06
0.04
8.0844e-06
0.04
8.06565e-06
0.04
8.0469e-06
0.04
8.02814e-06
0.04
8.00938e-06
0.04
7.99062e-06
0.04
7.97185e-06
0.04
7.95308e-06
0.04
7.9343e-06
0.04
7.91552e-06
0.04
7.89674e-06
0.04
7.87795e-06
0.04
7.85915e-06
0.04
7.84036e-06
0.04
7.82155e-06
0.04
7.80275e-06
0.04
7.78394e-06
0.04
7.76512e-06
0.04
7.74631e-06
0.04
7.72748e-06
0.04
7.70866e-06
0.04
7.68983e-06
0.04
7.67099e-06
0.04
7.65215e-06
0.04
7.63331e-06
0.04
7.61446e-06
0.04
7.59561e-06
0.04
7.57676e-06
0.04
7.5579e-06
0.04
7.53903e-06
0.04
7.52017e-06
0.04
7.5013e-06
0.04
7.48242e-06
0.04
7.46354e-06
0.04
7.44465e-06
0.04
7.42577e-06
0.04
7.40687e-06
0.04
7.38798e-06
0.04
7.36908e-06
0.04
7.35017e-06
0.04
7.33126e-06
0.04
7.31235e-06
0.04
7.29343e-06
0.04
7.27451e-06
0.04
7.25558e-06
0.04
7.23665e-06
0.04
7.21772e-06
0.04
7.19878e-06
0.04
7.17984e-06
0.04
7.16089e-06
0.04
7.14194e-06
0.04
7.12299e-06
0.04
7.10403e-06
0.04
7.08507e-06
0.04
7.0661e-06
0.04
7.04713e-06
0.04
7.02815e-06
0.04
7.00917e-06
0.04
6.99019e-06
0.04
6.9712e-06
0.04
6.95221e-06
0.04
6.93321e-06
0.04
6.91421e-06
0.04
6.89521e-06
0.04
6.8762e-06
0.04
6.85719e-06
0.04
6.83817e-06
0.04
6.81915e-06
0.04
6.80013e-06
0.04
6.7811e-06
0.04
6.76207e-06
0.04
6.74303e-06
0.04
6.72399e-06
0.04
6.70494e-06
0.04
6.68589e-06
0.04
6.66684e-06
0.04
6.64778e-06
0.04
6.62872e-06
0.04
6.60966e-06
0.04
6.59059e-06
0.04
6.57151e-06
0.04
6.55244e-06
0.04
6.53336e-06
0.04
6.51427e-06
0.04
6.49518e-06
0.04
6.47609e-06
0.04
6.45699e-06
0.04
6.43789e-06
0.04
6.41878e-06
0.04
6.39967e-06
0.04
6.38056e-06
0.04
6.36144e-06
0.04
6.34232e-06
0.04
6.32319e-06
0.04
6.30406e-06
0.04
6.28493e-06
0.04
6.26579e-06
0.04
6.24665e-06
0.04
6.22751e-06
0.04
6.20836e-06
0.04
6.1892e-06
0.04
6.17005e-06
0.04
6.15089e-06
0.04
6.13172e-06
0.04
6.11255e-06
0.04
6.09338e-06
0.04
6.0742e-06
0.04
6.05502e-06
0.04
6.03584e-06
0.04
6.01665e-06
0.04
5.99745e-06
0.04
5.97826e-06
0.04
5.95906e-06
0.04
5.93985e-06
0.04
5.92064e-06
0.04
5.90143e-06
0.04
5.88222e-06
0.04
5.863e-06
0.04
5.84377e-06
0.04
5.82455e-06
0.04
5.80531e-06
0.04
5.78608e-06
0.04
5.76684e-06
0.04
5.7476e-06
0.04
5.72835e-06
0.04
5.7091e-06
0.04
5.68985e-06
0.04
5.67059e-06
0.04
5.65133e-06
0.04
5.63206e-06
0.04
5.61279e-06
0.04
5.59352e-06
0.04
5.57424e-06
0.04
5.55496e-06
0.04
5.53568e-06
0.04
5.51639e-06
0.04
5.4971e-06
0.04
5.47781e-06
0.04
5.45851e-06
0.04
5.4392e-06
0.04
5.4199e-06
0.04
5.40059e-06
0.04
5.38128e-06
0.04
5.36196e-06
0.04
5.34264e-06
0.04
5.32331e-06
0.04
5.30398e-06
0.04
5.28465e-06
0.04
5.26532e-06
0.04
5.24598e-06
0.04
5.22664e-06
0.04
5.20729e-06
0.04
5.18794e-06
0.04
5.16859e-06
0.04
5.14923e-06
0.04
5.12987e-06
0.04
5.11051e-06
0.04
5.09114e-06
0.04
5.07177e-06
0.04
5.0524e-06
0.04
5.03302e-06
0.04
5.01364e-06
0.04
4.99425e-06
0.04
4.97487e-06
0.04
4.95547e-06
0.04
4.93608e-06
0.04
4.91668e-06
0.04
4.89728e-06
0.04
4.87787e-06
0.04
4.85847e-06
0.04
4.83905e-06
0.04
4.81964e-06
0.04
4.80022e-06
0.04
4.7808e-06
0.04
4.76137e-06
0.04
4.74194e-06
0.04
4.72251e-06
0.04
4.70308e-06
0.04
4.68364e-06
0.04
4.6642e-06
0.04
4.64475e-06
0.04
4.6253e-06
0.04
4.60585e-06
0.04
4.5864e-06
0.04
4.56694e-06
0.04
4.54748e-06
0.04
4.52801e-06
0.04
4.50855e-06
0.04
4.48907e-06
0.04
4.4696e-06
0.04
4.45012e-06
0.04
4.43064e-06
0.04
4.41116e-06
0.04
4.39167e-06
0.04
4.37218e-06
0.04
4.35269e-06
0.04
4.33319e-06
0.04
4.31369e-06
0.04
4.29419e-06
0.04
4.27469e-06
0.04
4.25518e-06
0.04
4.23567e-06
0.04
4.21615e-06
0.04
4.19664e-06
0.04
4.17712e-06
0.04
4.15759e-06
0.04
4.13807e-06
0.04
4.11854e-06
0.04
4.099e-06
0.04
4.07947e-06
0.04
4.05993e-06
0.04
4.04039e-06
0.04
4.02085e-06
0.04
4.0013e-06
0.04
3.98175e-06
0.04
3.9622e-06
0.04
3.94264e-06
0.04
3.92308e-06
0.04
3.90352e-06
0.04
3.88396e-06
0.04
3.86439e-06
0.04
3.84482e-06
0.04
3.82525e-06
0.04
3.80567e-06
0.04
3.78609e-06
0.04
3.76651e-06
0.04
3.74693e-06
0.04
3.72734e-06
0.04
3.70775e-06
0.04
3.68816e-06
0.04
3.66857e-06
0.04
3.64897e-06
0.04
3.62937e-06
0.04
3.60977e-06
0.04
3.59016e-06
0.04
3.57055e-06
0.04
3.55094e-06
0.04
3.53133e-06
0.04
3.51171e-06
0.04
3.49209e-06
0.04
3.47247e-06
0.04
3.45284e-06
0.04
3.43322e-06
0.04
3.41359e-06
0.04
3.39395e-06
0.04
3.37432e-06
0.04
3.35468e-06
0.04
3.33504e-06
0.04
3.3154e-06
0.04
3.29575e-06
0.04
3.2761e-06
0.04
3.25645e-06
0.04
3.2368e-06
0.04
3.21714e-06
0.04
3.19748e-06
0.04
3.17782e-06
0.04
3.15816e-06
0.04
3.13849e-06
0.04
3.11882e-06
0.04
3.09915e-06
0.04
3.07947e-06
0.04
3.0598e-06
0.04
3.04012e-06
0.04
3.02043e-06
0.04
3.00075e-06
0.04
2.98106e-06
0.04
2.96137e-06
0.04
2.94168e-06
0.04
2.92198e-06
0.04
2.90229e-06
0.04
2.88258e-06
0.04
2.86288e-06
0.04
2.84317e-06
0.04
2.82347e-06
0.04
2.80375e-06
0.04
2.78404e-06
0.04
2.76432e-06
0.04
2.7446e-06
0.04
2.72488e-06
0.04
2.70515e-06
0.04
2.68543e-06
0.04
2.6657e-06
0.04
2.64596e-06
0.04
2.62623e-06
0.04
2.60649e-06
0.04
2.58674e-06
0.04
2.567e-06
0.04
2.54725e-06
0.04
2.5275e-06
0.04
2.50774e-06
0.04
2.48799e-06
0.04
2.46823e-06
0.04
2.44846e-06
0.04
2.4287e-06
0.04
2.40893e-06
0.04
2.38915e-06
0.04
2.36938e-06
0.04
2.3496e-06
0.04
2.32981e-06
0.04
2.31003e-06
0.04
2.29024e-06
0.04
2.27044e-06
0.04
2.25065e-06
0.04
2.23085e-06
0.04
2.21104e-06
0.04
2.19124e-06
0.04
2.17142e-06
0.04
2.15161e-06
0.04
2.13179e-06
0.04
2.11196e-06
0.04
2.09214e-06
0.04
2.0723e-06
0.04
2.05247e-06
0.04
2.03263e-06
0.04
2.01278e-06
0.04
1.99293e-06
0.04
1.97308e-06
0.04
1.95322e-06
0.04
1.93335e-06
0.04
1.91348e-06
0.04
1.89361e-06
0.04
1.87373e-06
0.04
1.85384e-06
0.04
1.83395e-06
0.04
1.81405e-06
0.04
1.79415e-06
0.04
1.77424e-06
0.04
1.75432e-06
0.04
1.7344e-06
0.04
1.71447e-06
0.04
1.69454e-06
0.04
1.67459e-06
0.04
1.65464e-06
0.04
1.63468e-06
0.04
1.61471e-06
0.04
1.59474e-06
0.04
1.57475e-06
0.04
1.55476e-06
0.04
1.53475e-06
0.04
1.51474e-06
0.04
1.49472e-06
0.04
1.47468e-06
0.04
1.45463e-06
0.04
1.43458e-06
0.04
1.4145e-06
0.04
1.39442e-06
0.04
1.37432e-06
0.04
1.3542e-06
0.04
1.33407e-06
0.04
1.31393e-06
0.04
1.29376e-06
0.04
1.27357e-06
0.04
1.25337e-06
0.04
1.23314e-06
0.04
1.21288e-06
0.04
1.1926e-06
0.04
1.17229e-06
0.04
1.15195e-06
0.04
1.13157e-06
0.04
1.11116e-06
0.04
1.0907e-06
0.04
1.07019e-06
0.04
1.04962e-06
0.04
1.02899e-06
0.04
1.00828e-06
0.04
9.87489e-07
0.04
9.66588e-07
0.04
9.45558e-07
0.04
9.24366e-07
0.04
9.02965e-07
0.04
8.81284e-07
0.04
8.59205e-07
0.04
8.3651e-07
0.04
8.14104e-07
0.04
7.82432e-07
0.04
0.04
1.36104e-07
0.0400021
3.74195e-07
0.0399957
1.42427e-07
0.0400026
2.30045e-07
0.0399989
2.31423e-07
0.0400002
2.37787e-07
0.04
2.42338e-07
0.04
2.45344e-07
0.04
2.47255e-07
0.04
2.48419e-07
0.04
2.49075e-07
0.04
2.49381e-07
0.04
2.49443e-07
0.04
2.49333e-07
0.04
2.49101e-07
0.04
2.48781e-07
0.04
2.48398e-07
0.04
2.47969e-07
0.04
2.47508e-07
0.04
2.47025e-07
0.04
2.46526e-07
0.04
2.46017e-07
0.04
2.45502e-07
0.04
2.44984e-07
0.04
2.44466e-07
0.04
2.43949e-07
0.04
2.43434e-07
0.04
2.42923e-07
0.04
2.42416e-07
0.04
2.41914e-07
0.04
2.41417e-07
0.04
2.40926e-07
0.04
2.40441e-07
0.04
2.39962e-07
0.04
2.39488e-07
0.04
2.3902e-07
0.04
2.38558e-07
0.04
2.38102e-07
0.04
2.37652e-07
0.04
2.37207e-07
0.04
2.36768e-07
0.04
2.36335e-07
0.04
2.35907e-07
0.04
2.35484e-07
0.04
2.35066e-07
0.04
2.34653e-07
0.04
2.34244e-07
0.04
2.33841e-07
0.04
2.33442e-07
0.04
2.33048e-07
0.04
2.32659e-07
0.04
2.32274e-07
0.04
2.31892e-07
0.04
2.31515e-07
0.04
2.31141e-07
0.04
2.30772e-07
0.04
2.30406e-07
0.04
2.30043e-07
0.04
2.29684e-07
0.04
2.29328e-07
0.04
2.28976e-07
0.04
2.28626e-07
0.04
2.2828e-07
0.04
2.27936e-07
0.04
2.27596e-07
0.04
2.27258e-07
0.04
2.26923e-07
0.04
2.2659e-07
0.04
2.2626e-07
0.04
2.25933e-07
0.04
2.25608e-07
0.04
2.25285e-07
0.04
2.24965e-07
0.04
2.24646e-07
0.04
2.2433e-07
0.04
2.24016e-07
0.04
2.23704e-07
0.04
2.23393e-07
0.04
2.23085e-07
0.04
2.22778e-07
0.04
2.22474e-07
0.04
2.2217e-07
0.04
2.21869e-07
0.04
2.21569e-07
0.04
2.21271e-07
0.04
2.20974e-07
0.04
2.20678e-07
0.04
2.20384e-07
0.04
2.20092e-07
0.04
2.198e-07
0.04
2.1951e-07
0.04
2.19222e-07
0.04
2.18934e-07
0.04
2.18648e-07
0.04
2.18363e-07
0.04
2.18079e-07
0.04
2.17796e-07
0.04
2.17514e-07
0.04
2.17233e-07
0.04
2.16954e-07
0.04
2.16675e-07
0.04
2.16397e-07
0.04
2.1612e-07
0.04
2.15843e-07
0.04
2.15568e-07
0.04
2.15293e-07
0.04
2.1502e-07
0.04
2.14747e-07
0.04
2.14474e-07
0.04
2.14203e-07
0.04
2.13932e-07
0.04
2.13662e-07
0.04
2.13392e-07
0.04
2.13123e-07
0.04
2.12855e-07
0.04
2.12588e-07
0.04
2.12321e-07
0.04
2.12055e-07
0.04
2.11789e-07
0.04
2.11524e-07
0.04
2.11259e-07
0.04
2.10995e-07
0.04
2.10731e-07
0.04
2.10468e-07
0.04
2.10205e-07
0.04
2.09943e-07
0.04
2.09681e-07
0.04
2.0942e-07
0.04
2.09159e-07
0.04
2.08898e-07
0.04
2.08638e-07
0.04
2.08378e-07
0.04
2.08119e-07
0.04
2.0786e-07
0.04
2.07601e-07
0.04
2.07343e-07
0.04
2.07085e-07
0.04
2.06827e-07
0.04
2.0657e-07
0.04
2.06313e-07
0.04
2.06056e-07
0.04
2.058e-07
0.04
2.05544e-07
0.04
2.05288e-07
0.04
2.05032e-07
0.04
2.04777e-07
0.04
2.04522e-07
0.04
2.04267e-07
0.04
2.04013e-07
0.04
2.03758e-07
0.04
2.03504e-07
0.04
2.03251e-07
0.04
2.02997e-07
0.04
2.02744e-07
0.04
2.0249e-07
0.04
2.02237e-07
0.04
2.01984e-07
0.04
2.01732e-07
0.04
2.01479e-07
0.04
2.01227e-07
0.04
2.00975e-07
0.04
2.00723e-07
0.04
2.00472e-07
0.04
2.0022e-07
0.04
1.99969e-07
0.04
1.99718e-07
0.04
1.99467e-07
0.04
1.99216e-07
0.04
1.98965e-07
0.04
1.98715e-07
0.04
1.98465e-07
0.04
1.98214e-07
0.04
1.97964e-07
0.04
1.97714e-07
0.04
1.97464e-07
0.04
1.97215e-07
0.04
1.96965e-07
0.04
1.96715e-07
0.04
1.96466e-07
0.04
1.96217e-07
0.04
1.95968e-07
0.04
1.95719e-07
0.04
1.9547e-07
0.04
1.95221e-07
0.04
1.94973e-07
0.04
1.94724e-07
0.04
1.94476e-07
0.04
1.94227e-07
0.04
1.93979e-07
0.04
1.93731e-07
0.04
1.93483e-07
0.04
1.93235e-07
0.04
1.92987e-07
0.04
1.9274e-07
0.04
1.92492e-07
0.04
1.92245e-07
0.04
1.91997e-07
0.04
1.9175e-07
0.04
1.91502e-07
0.04
1.91255e-07
0.04
1.91008e-07
0.04
1.90761e-07
0.04
1.90514e-07
0.04
1.90267e-07
0.04
1.9002e-07
0.04
1.89773e-07
0.04
1.89527e-07
0.04
1.8928e-07
0.04
1.89034e-07
0.04
1.88787e-07
0.04
1.88541e-07
0.04
1.88295e-07
0.04
1.88049e-07
0.04
1.87803e-07
0.04
1.87557e-07
0.04
1.87311e-07
0.04
1.87065e-07
0.04
1.86819e-07
0.04
1.86573e-07
0.04
1.86328e-07
0.04
1.86082e-07
0.04
1.85836e-07
0.04
1.85591e-07
0.04
1.85345e-07
0.04
1.851e-07
0.04
1.84854e-07
0.04
1.84609e-07
0.04
1.84364e-07
0.04
1.84119e-07
0.04
1.83873e-07
0.04
1.83628e-07
0.04
1.83383e-07
0.04
1.83139e-07
0.04
1.82894e-07
0.04
1.82649e-07
0.04
1.82404e-07
0.04
1.8216e-07
0.04
1.81915e-07
0.04
1.8167e-07
0.04
1.81426e-07
0.04
1.81182e-07
0.04
1.80937e-07
0.04
1.80693e-07
0.04
1.80449e-07
0.04
1.80204e-07
0.04
1.7996e-07
0.04
1.79716e-07
0.04
1.79472e-07
0.04
1.79228e-07
0.04
1.78984e-07
0.04
1.7874e-07
0.04
1.78496e-07
0.04
1.78252e-07
0.04
1.78008e-07
0.04
1.77765e-07
0.04
1.77521e-07
0.04
1.77278e-07
0.04
1.77034e-07
0.04
1.76791e-07
0.04
1.76547e-07
0.04
1.76304e-07
0.04
1.7606e-07
0.04
1.75817e-07
0.04
1.75574e-07
0.04
1.75331e-07
0.04
1.75088e-07
0.04
1.74845e-07
0.04
1.74602e-07
0.04
1.74359e-07
0.04
1.74116e-07
0.04
1.73873e-07
0.04
1.7363e-07
0.04
1.73387e-07
0.04
1.73144e-07
0.04
1.72901e-07
0.04
1.72659e-07
0.04
1.72416e-07
0.04
1.72173e-07
0.04
1.71931e-07
0.04
1.71689e-07
0.04
1.71446e-07
0.04
1.71204e-07
0.04
1.70962e-07
0.04
1.70719e-07
0.04
1.70477e-07
0.04
1.70235e-07
0.04
1.69993e-07
0.04
1.69751e-07
0.04
1.69509e-07
0.04
1.69267e-07
0.04
1.69025e-07
0.04
1.68783e-07
0.04
1.68541e-07
0.04
1.68299e-07
0.04
1.68057e-07
0.04
1.67816e-07
0.04
1.67574e-07
0.04
1.67332e-07
0.04
1.67091e-07
0.04
1.66849e-07
0.04
1.66608e-07
0.04
1.66366e-07
0.04
1.66125e-07
0.04
1.65883e-07
0.04
1.65642e-07
0.04
1.65401e-07
0.04
1.6516e-07
0.04
1.64919e-07
0.04
1.64678e-07
0.04
1.64436e-07
0.04
1.64195e-07
0.04
1.63955e-07
0.04
1.63714e-07
0.04
1.63473e-07
0.04
1.63232e-07
0.04
1.62991e-07
0.04
1.6275e-07
0.04
1.6251e-07
0.04
1.62269e-07
0.04
1.62028e-07
0.04
1.61787e-07
0.04
1.61547e-07
0.04
1.61306e-07
0.04
1.61066e-07
0.04
1.60825e-07
0.04
1.60585e-07
0.04
1.60345e-07
0.04
1.60105e-07
0.04
1.59864e-07
0.04
1.59624e-07
0.04
1.59384e-07
0.04
1.59144e-07
0.04
1.58904e-07
0.04
1.58664e-07
0.04
1.58424e-07
0.04
1.58184e-07
0.04
1.57944e-07
0.04
1.57705e-07
0.04
1.57465e-07
0.04
1.57225e-07
0.04
1.56985e-07
0.04
1.56746e-07
0.04
1.56506e-07
0.04
1.56266e-07
0.04
1.56027e-07
0.04
1.55787e-07
0.04
1.55548e-07
0.04
1.55308e-07
0.04
1.55069e-07
0.04
1.5483e-07
0.04
1.5459e-07
0.04
1.54351e-07
0.04
1.54112e-07
0.04
1.53873e-07
0.04
1.53634e-07
0.04
1.53395e-07
0.04
1.53156e-07
0.04
1.52917e-07
0.04
1.52678e-07
0.04
1.52439e-07
0.04
1.52201e-07
0.04
1.51962e-07
0.04
1.51723e-07
0.04
1.51484e-07
0.04
1.51246e-07
0.04
1.51007e-07
0.04
1.50769e-07
0.04
1.5053e-07
0.04
1.50292e-07
0.04
1.50053e-07
0.04
1.49815e-07
0.04
1.49576e-07
0.04
1.49338e-07
0.04
1.491e-07
0.04
1.48861e-07
0.04
1.48623e-07
0.04
1.48385e-07
0.04
1.48147e-07
0.04
1.47909e-07
0.04
1.47671e-07
0.04
1.47433e-07
0.04
1.47195e-07
0.04
1.46957e-07
0.04
1.46719e-07
0.04
1.46482e-07
0.04
1.46244e-07
0.04
1.46006e-07
0.04
1.45769e-07
0.04
1.45531e-07
0.04
1.45293e-07
0.04
1.45056e-07
0.04
1.44818e-07
0.04
1.44581e-07
0.04
1.44343e-07
0.04
1.44106e-07
0.04
1.43868e-07
0.04
1.43631e-07
0.04
1.43394e-07
0.04
1.43157e-07
0.04
1.42919e-07
0.04
1.42682e-07
0.04
1.42445e-07
0.04
1.42208e-07
0.04
1.41971e-07
0.04
1.41734e-07
0.04
1.41497e-07
0.04
1.4126e-07
0.04
1.41023e-07
0.04
1.40787e-07
0.04
1.4055e-07
0.04
1.40313e-07
0.04
1.40076e-07
0.04
1.3984e-07
0.04
1.39603e-07
0.04
1.39367e-07
0.04
1.3913e-07
0.04
1.38894e-07
0.04
1.38657e-07
0.04
1.38421e-07
0.04
1.38184e-07
0.04
1.37948e-07
0.04
1.37712e-07
0.04
1.37475e-07
0.04
1.37239e-07
0.04
1.37003e-07
0.04
1.36767e-07
0.04
1.36531e-07
0.04
1.36295e-07
0.04
1.36059e-07
0.04
1.35823e-07
0.04
1.35587e-07
0.04
1.35351e-07
0.04
1.35115e-07
0.04
1.34879e-07
0.04
1.34644e-07
0.04
1.34408e-07
0.04
1.34172e-07
0.04
1.33937e-07
0.04
1.33701e-07
0.04
1.33466e-07
0.04
1.3323e-07
0.04
1.32995e-07
0.04
1.32759e-07
0.04
1.32524e-07
0.04
1.32288e-07
0.04
1.32053e-07
0.04
1.31818e-07
0.04
1.31582e-07
0.04
1.31347e-07
0.04
1.31112e-07
0.04
1.30877e-07
0.04
1.30642e-07
0.04
1.30407e-07
0.04
1.30172e-07
0.04
1.29937e-07
0.04
1.29702e-07
0.04
1.29467e-07
0.04
1.29232e-07
0.04
1.28997e-07
0.04
1.28763e-07
0.04
1.28528e-07
0.04
1.28293e-07
0.04
1.28059e-07
0.04
1.27824e-07
0.04
1.2759e-07
0.04
1.27355e-07
0.04
1.27121e-07
0.04
1.26886e-07
0.04
1.26652e-07
0.04
1.26417e-07
0.04
1.26183e-07
0.04
1.25949e-07
0.04
1.25715e-07
0.04
1.2548e-07
0.04
1.25246e-07
0.04
1.25012e-07
0.04
1.24778e-07
0.04
1.24544e-07
0.04
1.2431e-07
0.04
1.24076e-07
0.04
1.23843e-07
0.04
1.23609e-07
0.04
1.23375e-07
0.04
1.23141e-07
0.04
1.22908e-07
0.04
1.22674e-07
0.04
1.2244e-07
0.04
1.22207e-07
0.04
1.21973e-07
0.04
1.2174e-07
0.04
1.21506e-07
0.04
1.21273e-07
0.04
1.21039e-07
0.04
1.20806e-07
0.04
1.20572e-07
0.04
1.20339e-07
0.04
1.20106e-07
0.04
1.19873e-07
0.04
1.19639e-07
0.04
1.19406e-07
0.04
1.19173e-07
0.04
1.1894e-07
0.04
1.18707e-07
0.04
1.18474e-07
0.04
1.18241e-07
0.04
1.18008e-07
0.04
1.17775e-07
0.04
1.17542e-07
0.04
1.1731e-07
0.04
1.17077e-07
0.04
1.16844e-07
0.04
1.16611e-07
0.04
1.16379e-07
0.04
1.16146e-07
0.04
1.15914e-07
0.04
1.15681e-07
0.04
1.15448e-07
0.04
1.15216e-07
0.04
1.14983e-07
0.04
1.14751e-07
0.04
1.14519e-07
0.04
1.14286e-07
0.04
1.14054e-07
0.04
1.13822e-07
0.04
1.1359e-07
0.04
1.13357e-07
0.04
1.13125e-07
0.04
1.12893e-07
0.04
1.12661e-07
0.04
1.12429e-07
0.04
1.12197e-07
0.04
1.11965e-07
0.04
1.11733e-07
0.04
1.11501e-07
0.04
1.11269e-07
0.04
1.11037e-07
0.04
1.10806e-07
0.04
1.10574e-07
0.04
1.10342e-07
0.04
1.1011e-07
0.04
1.09879e-07
0.04
1.09647e-07
0.04
1.09416e-07
0.04
1.09184e-07
0.04
1.08953e-07
0.04
1.08721e-07
0.04
1.0849e-07
0.04
1.08258e-07
0.04
1.08027e-07
0.04
1.07796e-07
0.04
1.07564e-07
0.04
1.07333e-07
0.04
1.07102e-07
0.04
1.06871e-07
0.04
1.0664e-07
0.04
1.06408e-07
0.04
1.06177e-07
0.04
1.05946e-07
0.04
1.05715e-07
0.04
1.05484e-07
0.04
1.05253e-07
0.04
1.05022e-07
0.04
1.04792e-07
0.04
1.04561e-07
0.04
1.0433e-07
0.04
1.04099e-07
0.04
1.03869e-07
0.04
1.03638e-07
0.04
1.03407e-07
0.04
1.03177e-07
0.04
1.02946e-07
0.04
1.02716e-07
0.04
1.02485e-07
0.04
1.02255e-07
0.04
1.02024e-07
0.04
1.01794e-07
0.04
1.01563e-07
0.04
1.01333e-07
0.04
1.01103e-07
0.04
1.00872e-07
0.04
1.00642e-07
0.04
1.00412e-07
0.04
1.00182e-07
0.04
9.99518e-08
0.04
9.97217e-08
0.04
9.94916e-08
0.04
9.92616e-08
0.04
9.90316e-08
0.04
9.88017e-08
0.04
9.85718e-08
0.04
9.83419e-08
0.04
9.8112e-08
0.04
9.78822e-08
0.04
9.76524e-08
0.04
9.74226e-08
0.04
9.71929e-08
0.04
9.69632e-08
0.04
9.67336e-08
0.04
9.6504e-08
0.04
9.62744e-08
0.04
9.60448e-08
0.04
9.58153e-08
0.04
9.55858e-08
0.04
9.53564e-08
0.04
9.51269e-08
0.04
9.48976e-08
0.04
9.46682e-08
0.04
9.44389e-08
0.04
9.42096e-08
0.04
9.39803e-08
0.04
9.37511e-08
0.04
9.35219e-08
0.04
9.32927e-08
0.04
9.30636e-08
0.04
9.28345e-08
0.04
9.26054e-08
0.04
9.23764e-08
0.04
9.21474e-08
0.04
9.19184e-08
0.04
9.16895e-08
0.04
9.14605e-08
0.04
9.12317e-08
0.04
9.10028e-08
0.04
9.0774e-08
0.04
9.05452e-08
0.04
9.03164e-08
0.04
9.00876e-08
0.04
8.98589e-08
0.04
8.96302e-08
0.04
8.94015e-08
0.04
8.91729e-08
0.04
8.89443e-08
0.04
8.87157e-08
0.04
8.84872e-08
0.04
8.82586e-08
0.04
8.80301e-08
0.04
8.78016e-08
0.04
8.75731e-08
0.04
8.73447e-08
0.04
8.71163e-08
0.04
8.68879e-08
0.04
8.66596e-08
0.04
8.64312e-08
0.04
8.62029e-08
0.04
8.59746e-08
0.04
8.57464e-08
0.04
8.55181e-08
0.04
8.52899e-08
0.04
8.50617e-08
0.04
8.48336e-08
0.04
8.46054e-08
0.04
8.43773e-08
0.04
8.41492e-08
0.04
8.39212e-08
0.04
8.36931e-08
0.04
8.34652e-08
0.04
8.32372e-08
0.04
8.30093e-08
0.04
8.27814e-08
0.04
8.25535e-08
0.04
8.23257e-08
0.04
8.20979e-08
0.04
8.18701e-08
0.04
8.16423e-08
0.04
8.14146e-08
0.04
8.11869e-08
0.04
8.09592e-08
0.04
8.07316e-08
0.04
8.0504e-08
0.04
8.02764e-08
0.04
8.00488e-08
0.04
7.98213e-08
0.04
7.95938e-08
0.04
7.93663e-08
0.04
7.91388e-08
0.04
7.89114e-08
0.04
7.8684e-08
0.04
7.84566e-08
0.04
7.82292e-08
0.04
7.80019e-08
0.04
7.77746e-08
0.04
7.75473e-08
0.04
7.73201e-08
0.04
7.70928e-08
0.04
7.68656e-08
0.04
7.66384e-08
0.04
7.64113e-08
0.04
7.61841e-08
0.04
7.5957e-08
0.04
7.573e-08
0.04
7.55029e-08
0.04
7.52759e-08
0.04
7.50489e-08
0.04
7.48219e-08
0.04
7.4595e-08
0.04
7.43681e-08
0.04
7.41412e-08
0.04
7.39143e-08
0.04
7.36874e-08
0.04
7.34606e-08
0.04
7.32338e-08
0.04
7.3007e-08
0.04
7.27803e-08
0.04
7.25535e-08
0.04
7.23268e-08
0.04
7.21002e-08
0.04
7.18735e-08
0.04
7.16469e-08
0.04
7.14203e-08
0.04
7.11938e-08
0.04
7.09672e-08
0.04
7.07407e-08
0.04
7.05142e-08
0.04
7.02877e-08
0.04
7.00613e-08
0.04
6.98349e-08
0.04
6.96085e-08
0.04
6.93821e-08
0.04