/*--------------------------------*- C++ -*----------------------------------*\
| =========                 |                                                 |
| \\      /  F ield         | OpenFOAM: The Open Source CFD Toolbox           |
|  \\    /   O peration     | Version:  2512                                  |
|   \\  /    A nd           | Website:  www.openfoam.com                      |
|    \\/     M anipulation  |                                                 |
\*---------------------------------------------------------------------------*/
FoamFile
{
    version     2.0;
    format      ascii;
    arch        "LSB;label=32;scalar=64";
    class       volScalarField;
    location    "1e-05";
    object      Ux;
}
// * * * * * * * * * * * * * * * * * * * * * * * * * * * * * * * * * * * * * //

dimensions      [0 1 -1 0 0 0 0];

internalField   nonuniform List<scalar> 
100000
(
0.778262
1.15878
0.912197
1.02926
0.997446
0.999773
0.999698
0.999629
0.999558
0.999488
0.999417
0.999346
0.999275
0.999204
0.999132
0.999061
0.998989
0.998917
0.998845
0.998773
0.998701
0.998629
0.998556
0.998484
0.998411
0.998338
0.998265
0.998192
0.998119
0.998046
0.997973
0.997899
0.997825
0.997751
0.997677
0.997603
0.997529
0.997454
0.997379
0.997305
0.997229
0.997154
0.997079
0.997003
0.996927
0.996851
0.996775
0.996699
0.996622
0.996545
0.996468
0.996391
0.996313
0.996235
0.996157
0.996079
0.996
0.995921
0.995842
0.995763
0.995683
0.995604
0.995523
0.995443
0.995362
0.995281
0.9952
0.995118
0.995036
0.994954
0.994871
0.994789
0.994705
0.994622
0.994538
0.994454
0.994369
0.994284
0.994199
0.994113
0.994027
0.993941
0.993854
0.993767
0.99368
0.993592
0.993503
0.993415
0.993326
0.993236
0.993146
0.993056
0.992965
0.992874
0.992783
0.992691
0.992598
0.992505
0.992412
0.992318
0.992224
0.992129
0.992034
0.991938
0.991842
0.991745
0.991648
0.99155
0.991452
0.991354
0.991255
0.991155
0.991055
0.990954
0.990853
0.990751
0.990649
0.990546
0.990442
0.990339
0.990234
0.990129
0.990023
0.989917
0.98981
0.989703
0.989595
0.989486
0.989377
0.989267
0.989157
0.989046
0.988934
0.988822
0.988709
0.988596
0.988481
0.988367
0.988251
0.988135
0.988018
0.987901
0.987783
0.987664
0.987544
0.987424
0.987303
0.987182
0.98706
0.986937
0.986813
0.986688
0.986563
0.986437
0.986311
0.986183
0.986055
0.985926
0.985797
0.985666
0.985535
0.985403
0.985271
0.985137
0.985003
0.984868
0.984732
0.984595
0.984458
0.984319
0.98418
0.98404
0.983899
0.983758
0.983615
0.983472
0.983328
0.983182
0.983036
0.98289
0.982742
0.982593
0.982444
0.982293
0.982142
0.98199
0.981837
0.981683
0.981528
0.981372
0.981215
0.981057
0.980899
0.980739
0.980578
0.980417
0.980254
0.98009
0.979926
0.97976
0.979594
0.979426
0.979258
0.979088
0.978918
0.978746
0.978573
0.9784
0.978225
0.978049
0.977872
0.977694
0.977515
0.977335
0.977154
0.976972
0.976789
0.976604
0.976419
0.976232
0.976044
0.975856
0.975666
0.975474
0.975282
0.975089
0.974894
0.974698
0.974502
0.974303
0.974104
0.973904
0.973702
0.973499
0.973295
0.97309
0.972884
0.972676
0.972467
0.972257
0.972046
0.971833
0.971619
0.971404
0.971187
0.97097
0.970751
0.970531
0.970309
0.970086
0.969862
0.969637
0.96941
0.969182
0.968952
0.968722
0.968489
0.968256
0.968021
0.967785
0.967547
0.967308
0.967068
0.966826
0.966583
0.966339
0.966093
0.965846
0.965597
0.965347
0.965095
0.964842
0.964587
0.964331
0.964074
0.963815
0.963555
0.963293
0.963029
0.962765
0.962498
0.96223
0.961961
0.96169
0.961418
0.961144
0.960868
0.960591
0.960312
0.960032
0.959751
0.959467
0.959182
0.958896
0.958608
0.958318
0.958027
0.957734
0.957439
0.957143
0.956845
0.956545
0.956244
0.955942
0.955637
0.955331
0.955023
0.954714
0.954402
0.954089
0.953775
0.953458
0.95314
0.952821
0.952499
0.952176
0.951851
0.951524
0.951195
0.950865
0.950533
0.950199
0.949863
0.949526
0.949187
0.948846
0.948503
0.948158
0.947811
0.947463
0.947113
0.94676
0.946406
0.946051
0.945693
0.945333
0.944972
0.944608
0.944243
0.943876
0.943507
0.943135
0.942762
0.942388
0.942011
0.941632
0.941251
0.940868
0.940483
0.940097
0.939708
0.939317
0.938924
0.93853
0.938133
0.937734
0.937333
0.93693
0.936525
0.936118
0.935709
0.935298
0.934885
0.93447
0.934052
0.933633
0.933211
0.932788
0.932362
0.931934
0.931504
0.931072
0.930637
0.930201
0.929762
0.929321
0.928878
0.928433
0.927986
0.927536
0.927084
0.92663
0.926174
0.925716
0.925255
0.924792
0.924327
0.923859
0.92339
0.922918
0.922444
0.921967
0.921488
0.921007
0.920524
0.920038
0.91955
0.91906
0.918567
0.918072
0.917575
0.917075
0.916573
0.916068
0.915561
0.915052
0.914541
0.914027
0.91351
0.912991
0.91247
0.911947
0.911421
0.910892
0.910361
0.909828
0.909292
0.908754
0.908213
0.907669
0.907124
0.906575
0.906025
0.905471
0.904916
0.904357
0.903797
0.903233
0.902667
0.902099
0.901528
0.900954
0.900378
0.8998
0.899218
0.898635
0.898048
0.897459
0.896867
0.896273
0.895676
0.895077
0.894475
0.89387
0.893262
0.892652
0.89204
0.891424
0.890806
0.890185
0.889562
0.888936
0.888307
0.887675
0.887041
0.886404
0.885765
0.885122
0.884477
0.883829
0.883178
0.882525
0.881869
0.88121
0.880548
0.879884
0.879216
0.878546
0.877874
0.877198
0.876519
0.875838
0.875154
0.874467
0.873777
0.873085
0.872389
0.871691
0.87099
0.870285
0.869579
0.868869
0.868156
0.86744
0.866722
0.866001
0.865276
0.864549
0.863819
0.863086
0.86235
0.861611
0.860869
0.860124
0.859377
0.858626
0.857872
0.857115
0.856356
0.855593
0.854828
0.854059
0.853287
0.852513
0.851735
0.850955
0.850171
0.849384
0.848595
0.847802
0.847006
0.846207
0.845406
0.844601
0.843793
0.842982
0.842168
0.841351
0.84053
0.839707
0.838881
0.838051
0.837218
0.836383
0.835544
0.834702
0.833857
0.833009
0.832157
0.831303
0.830445
0.829585
0.828721
0.827854
0.826983
0.82611
0.825234
0.824354
0.823471
0.822585
0.821696
0.820803
0.819908
0.819009
0.818107
0.817202
0.816293
0.815382
0.814467
0.813549
0.812628
0.811703
0.810775
0.809844
0.80891
0.807973
0.807032
0.806088
0.805141
0.804191
0.803237
0.80228
0.80132
0.800356
0.799389
0.798419
0.797446
0.796469
0.795489
0.794506
0.793519
0.79253
0.791536
0.79054
0.78954
0.788537
0.787531
0.786521
0.785508
0.784492
0.783472
0.782449
0.781423
0.780393
0.779361
0.778324
0.777285
0.776242
0.775195
0.774146
0.773093
0.772036
0.770977
0.769914
0.768847
0.767777
0.766704
0.765628
0.764548
0.763465
0.762378
0.761288
0.760195
0.759098
0.757998
0.756894
0.755787
0.754677
0.753563
0.752446
0.751326
0.750202
0.749075
0.747944
0.74681
0.745673
0.744532
0.743388
0.742241
0.74109
0.739935
0.738778
0.737616
0.736452
0.735284
0.734113
0.732938
0.73176
0.730578
0.729393
0.728205
0.727013
0.725818
0.724619
0.723417
0.722212
0.721003
0.719791
0.718575
0.717356
0.716134
0.714908
0.713679
0.712446
0.71121
0.70997
0.708727
0.707481
0.706232
0.704978
0.703722
0.702462
0.701199
0.699932
0.698662
0.697388
0.696111
0.694831
0.693547
0.69226
0.69097
0.689676
0.688379
0.687078
0.685774
0.684467
0.683156
0.681841
0.680524
0.679203
0.677878
0.676551
0.67522
0.673885
0.672547
0.671206
0.669861
0.668513
0.667162
0.665807
0.664449
0.663088
0.661723
0.660355
0.658983
0.657608
0.65623
0.654849
0.653464
0.652075
0.650684
0.649289
0.647891
0.646489
0.645084
0.643676
0.642265
0.64085
0.639432
0.63801
0.636585
0.635157
0.633726
0.632291
0.630853
0.629412
0.627967
0.62652
0.625069
0.623614
0.622156
0.620696
0.619231
0.617764
0.616293
0.614819
0.613342
0.611862
0.610378
0.608891
0.607401
0.605908
0.604411
0.602911
0.601408
0.599902
0.598393
0.59688
0.595365
0.593846
0.592323
0.590798
0.58927
0.587738
0.586203
0.584665
0.583124
0.58158
0.580032
0.578482
0.576928
0.575372
0.573812
0.572249
0.570683
0.569113
0.567541
0.565966
0.564387
0.562806
0.561221
0.559633
0.558043
0.556449
0.554852
0.553252
0.55165
0.550044
0.548435
0.546823
0.545208
0.54359
0.541969
0.540345
0.538718
0.537089
0.535456
0.53382
0.532181
0.53054
0.528895
0.527248
0.525597
0.523944
0.522288
0.520629
0.518967
0.517302
0.515634
0.513964
0.51229
0.510614
0.508935
0.507253
0.505568
0.503881
0.50219
0.500497
0.498801
0.497102
0.495401
0.493696
0.491989
0.49028
0.488567
0.486852
0.485134
0.483413
0.48169
0.479964
0.478235
0.476503
0.474769
0.473032
0.471293
0.469551
0.467806
0.466059
0.464309
0.462556
0.460801
0.459044
0.457283
0.455521
0.453755
0.451987
0.450217
0.448444
0.446668
0.44489
0.44311
0.441327
0.439541
0.437753
0.435963
0.43417
0.432375
0.430577
0.428777
0.426974
0.42517
0.423362
0.421553
0.419741
0.417926
0.41611
0.414291
0.412469
0.410646
0.40882
0.406992
0.405161
0.403328
0.401493
0.399656
0.397817
0.395975
0.394131
0.392285
0.390437
0.388586
0.386734
0.384879
0.383022
0.381163
0.379302
0.377439
0.375574
0.373706
0.371837
0.369966
0.368092
0.366217
0.364339
0.362459
0.360578
0.358694
0.356809
0.354922
0.353032
0.351141
0.349248
0.347353
0.345455
0.343557
0.341656
0.339753
0.337849
0.335943
0.334034
0.332125
0.330213
0.328299
0.326384
0.324467
0.322548
0.320628
0.318706
0.316782
0.314857
0.312929
0.311
0.30907
0.307138
0.305204
0.303269
0.301332
0.299393
0.297453
0.295512
0.293568
0.291624
0.289678
0.28773
0.285781
0.28383
0.281878
0.279924
0.27797
0.276013
0.274055
0.272096
0.270136
0.268174
0.266211
0.264246
0.262281
0.260313
0.258345
0.256375
0.254405
0.252432
0.250459
0.248485
0.246509
0.244532
0.242554
0.240575
0.238594
0.236613
0.23463
0.232647
0.230662
0.228676
0.22669
0.224702
0.222713
0.220723
0.218733
0.216741
0.214748
0.212755
0.21076
0.208765
0.206769
0.204772
0.202774
0.200776
0.198776
0.196776
0.194775
0.192773
0.190771
0.188768
0.186764
0.18476
0.182755
0.180749
0.178743
0.176736
0.174728
0.172721
0.170712
0.168703
0.166694
0.164684
0.162674
0.160664
0.158653
0.156642
0.154631
0.152619
0.150607
0.148595
0.146583
0.144571
0.142559
0.140547
0.138535
0.136524
0.134512
0.132501
0.130491
0.128481
0.126471
0.124463
0.122456
0.12045
0.118445
0.116443
0.114443
0.112447
0.110454
0.108468
0.106489
0.104522
0.102573
0.100653
0.0989199
0.0961868
0.778103
1.15861
0.912078
1.02907
0.997282
0.999606
0.999531
0.999462
0.999392
0.999322
0.999251
0.99918
0.999109
0.999038
0.998967
0.998896
0.998824
0.998752
0.998681
0.998609
0.998537
0.998464
0.998392
0.99832
0.998247
0.998175
0.998102
0.998029
0.997956
0.997883
0.99781
0.997736
0.997663
0.997589
0.997515
0.997441
0.997367
0.997292
0.997218
0.997143
0.997068
0.996993
0.996918
0.996842
0.996767
0.996691
0.996615
0.996538
0.996462
0.996385
0.996308
0.996231
0.996154
0.996076
0.995998
0.99592
0.995841
0.995763
0.995684
0.995605
0.995525
0.995446
0.995366
0.995285
0.995205
0.995124
0.995043
0.994961
0.994879
0.994797
0.994715
0.994632
0.994549
0.994466
0.994382
0.994298
0.994213
0.994129
0.994044
0.993958
0.993872
0.993786
0.993699
0.993613
0.993525
0.993437
0.993349
0.993261
0.993172
0.993083
0.992993
0.992903
0.992812
0.992721
0.99263
0.992538
0.992446
0.992353
0.99226
0.992166
0.992072
0.991977
0.991882
0.991787
0.991691
0.991594
0.991497
0.9914
0.991302
0.991203
0.991104
0.991005
0.990905
0.990804
0.990703
0.990602
0.990499
0.990397
0.990293
0.99019
0.990085
0.98998
0.989875
0.989769
0.989662
0.989555
0.989447
0.989339
0.98923
0.98912
0.98901
0.988899
0.988787
0.988675
0.988563
0.988449
0.988335
0.988221
0.988105
0.987989
0.987873
0.987755
0.987637
0.987519
0.9874
0.987279
0.987159
0.987037
0.986915
0.986792
0.986669
0.986545
0.98642
0.986294
0.986167
0.98604
0.985912
0.985784
0.985654
0.985524
0.985393
0.985261
0.985129
0.984995
0.984861
0.984726
0.98459
0.984454
0.984317
0.984178
0.984039
0.9839
0.983759
0.983617
0.983475
0.983332
0.983188
0.983043
0.982897
0.98275
0.982603
0.982454
0.982305
0.982155
0.982004
0.981852
0.981699
0.981545
0.98139
0.981234
0.981077
0.98092
0.980761
0.980602
0.980441
0.98028
0.980117
0.979954
0.97979
0.979624
0.979458
0.97929
0.979122
0.978953
0.978782
0.978611
0.978438
0.978265
0.97809
0.977914
0.977738
0.97756
0.977381
0.977201
0.97702
0.976838
0.976655
0.976471
0.976286
0.976099
0.975912
0.975723
0.975533
0.975342
0.97515
0.974957
0.974762
0.974567
0.97437
0.974172
0.973973
0.973773
0.973571
0.973369
0.973165
0.97296
0.972753
0.972546
0.972337
0.972127
0.971916
0.971703
0.97149
0.971275
0.971059
0.970841
0.970622
0.970402
0.970181
0.969958
0.969734
0.969509
0.969282
0.969054
0.968825
0.968594
0.968362
0.968129
0.967894
0.967658
0.967421
0.967182
0.966942
0.9667
0.966458
0.966213
0.965967
0.96572
0.965472
0.965222
0.96497
0.964717
0.964463
0.964207
0.96395
0.963691
0.963431
0.963169
0.962906
0.962641
0.962375
0.962107
0.961838
0.961567
0.961295
0.961021
0.960746
0.960469
0.960191
0.95991
0.959629
0.959346
0.959061
0.958775
0.958487
0.958197
0.957906
0.957613
0.957319
0.957023
0.956725
0.956426
0.956125
0.955822
0.955518
0.955212
0.954904
0.954595
0.954284
0.953971
0.953656
0.95334
0.953022
0.952703
0.952381
0.952058
0.951733
0.951407
0.951078
0.950748
0.950416
0.950082
0.949747
0.94941
0.94907
0.948729
0.948387
0.948042
0.947696
0.947347
0.946997
0.946645
0.946292
0.945936
0.945578
0.945219
0.944857
0.944494
0.944129
0.943762
0.943393
0.943022
0.942649
0.942274
0.941898
0.941519
0.941138
0.940756
0.940371
0.939984
0.939596
0.939205
0.938813
0.938418
0.938021
0.937623
0.937222
0.936819
0.936415
0.936008
0.935599
0.935188
0.934775
0.93436
0.933943
0.933523
0.933102
0.932678
0.932253
0.931825
0.931395
0.930963
0.930529
0.930092
0.929654
0.929213
0.92877
0.928325
0.927878
0.927429
0.926977
0.926523
0.926067
0.925609
0.925148
0.924686
0.924221
0.923753
0.923284
0.922812
0.922338
0.921862
0.921383
0.920902
0.920419
0.919933
0.919445
0.918955
0.918463
0.917968
0.91747
0.916971
0.916469
0.915965
0.915458
0.914949
0.914438
0.913924
0.913407
0.912889
0.912368
0.911844
0.911318
0.91079
0.910259
0.909726
0.90919
0.908652
0.908111
0.907568
0.907023
0.906475
0.905924
0.905371
0.904815
0.904257
0.903697
0.903133
0.902568
0.901999
0.901429
0.900855
0.900279
0.899701
0.89912
0.898536
0.89795
0.897361
0.896769
0.896175
0.895578
0.894979
0.894377
0.893772
0.893165
0.892555
0.891943
0.891327
0.89071
0.890089
0.889466
0.88884
0.888211
0.88758
0.886946
0.886309
0.885669
0.885027
0.884382
0.883734
0.883084
0.88243
0.881774
0.881116
0.880454
0.87979
0.879123
0.878453
0.87778
0.877105
0.876426
0.875745
0.875061
0.874374
0.873685
0.872992
0.872297
0.871599
0.870898
0.870194
0.869487
0.868777
0.868065
0.867349
0.866631
0.86591
0.865185
0.864458
0.863728
0.862996
0.86226
0.861521
0.860779
0.860035
0.859287
0.858536
0.857783
0.857026
0.856267
0.855504
0.854739
0.853971
0.853199
0.852425
0.851647
0.850867
0.850083
0.849297
0.848507
0.847715
0.846919
0.84612
0.845319
0.844514
0.843706
0.842895
0.842081
0.841264
0.840444
0.839621
0.838795
0.837966
0.837133
0.836297
0.835459
0.834617
0.833772
0.832924
0.832073
0.831219
0.830361
0.829501
0.828637
0.82777
0.8269
0.826027
0.82515
0.824271
0.823388
0.822502
0.821613
0.820721
0.819825
0.818927
0.818025
0.81712
0.816212
0.8153
0.814386
0.813468
0.812547
0.811622
0.810695
0.809764
0.80883
0.807892
0.806952
0.806008
0.805061
0.804111
0.803157
0.8022
0.80124
0.800277
0.79931
0.79834
0.797367
0.796391
0.795411
0.794428
0.793442
0.792452
0.791459
0.790463
0.789463
0.78846
0.787454
0.786445
0.785432
0.784416
0.783396
0.782373
0.781347
0.780318
0.779285
0.778249
0.77721
0.776167
0.775121
0.774071
0.773018
0.771962
0.770903
0.76984
0.768773
0.767704
0.766631
0.765554
0.764475
0.763392
0.762305
0.761215
0.760122
0.759026
0.757926
0.756822
0.755716
0.754606
0.753492
0.752375
0.751255
0.750131
0.749004
0.747874
0.74674
0.745603
0.744462
0.743318
0.742171
0.74102
0.739866
0.738708
0.737547
0.736383
0.735215
0.734044
0.732869
0.731691
0.73051
0.729325
0.728137
0.726945
0.72575
0.724552
0.72335
0.722145
0.720936
0.719724
0.718509
0.71729
0.716068
0.714842
0.713613
0.71238
0.711145
0.709905
0.708663
0.707416
0.706167
0.704914
0.703658
0.702398
0.701135
0.699868
0.698598
0.697325
0.696048
0.694768
0.693485
0.692198
0.690907
0.689614
0.688316
0.687016
0.685712
0.684405
0.683094
0.68178
0.680463
0.679142
0.677818
0.67649
0.675159
0.673825
0.672487
0.671146
0.669801
0.668454
0.667102
0.665748
0.66439
0.663029
0.661664
0.660296
0.658925
0.65755
0.656172
0.65479
0.653406
0.652018
0.650626
0.649232
0.647833
0.646432
0.645027
0.643619
0.642208
0.640793
0.639375
0.637954
0.636529
0.635101
0.63367
0.632236
0.630798
0.629357
0.627912
0.626465
0.625014
0.62356
0.622102
0.620641
0.619177
0.61771
0.61624
0.614766
0.613289
0.611809
0.610325
0.608838
0.607348
0.605855
0.604359
0.602859
0.601356
0.59985
0.598341
0.596829
0.595313
0.593794
0.592272
0.590747
0.589219
0.587687
0.586153
0.584615
0.583074
0.58153
0.579983
0.578432
0.576879
0.575322
0.573763
0.5722
0.570634
0.569065
0.567493
0.565917
0.564339
0.562758
0.561173
0.559586
0.557995
0.556402
0.554805
0.553206
0.551603
0.549997
0.548388
0.546777
0.545162
0.543544
0.541923
0.5403
0.538673
0.537043
0.535411
0.533775
0.532137
0.530495
0.528851
0.527204
0.525553
0.5239
0.522244
0.520585
0.518924
0.517259
0.515591
0.513921
0.512248
0.510571
0.508893
0.507211
0.505526
0.503839
0.502148
0.500455
0.49876
0.497061
0.49536
0.493656
0.491949
0.490239
0.488527
0.486812
0.485094
0.483373
0.48165
0.479924
0.478195
0.476464
0.47473
0.472993
0.471254
0.469512
0.467768
0.466021
0.464271
0.462518
0.460763
0.459006
0.457246
0.455483
0.453718
0.45195
0.45018
0.448407
0.446632
0.444854
0.443073
0.441291
0.439505
0.437718
0.435927
0.434135
0.43234
0.430542
0.428742
0.42694
0.425135
0.423328
0.421518
0.419707
0.417892
0.416076
0.414257
0.412436
0.410612
0.408787
0.406959
0.405128
0.403296
0.401461
0.399624
0.397785
0.395943
0.394099
0.392253
0.390405
0.388555
0.386703
0.384848
0.382991
0.381133
0.379272
0.377409
0.375544
0.373676
0.371807
0.369936
0.368063
0.366187
0.36431
0.36243
0.360549
0.358666
0.35678
0.354893
0.353004
0.351113
0.34922
0.347325
0.345428
0.343529
0.341629
0.339726
0.337822
0.335916
0.334008
0.332098
0.330187
0.328273
0.326358
0.324441
0.322523
0.320603
0.318681
0.316757
0.314832
0.312905
0.310976
0.309046
0.307114
0.30518
0.303245
0.301308
0.29937
0.29743
0.295488
0.293545
0.291601
0.289655
0.287707
0.285758
0.283808
0.281856
0.279902
0.277948
0.275992
0.274034
0.272075
0.270115
0.268153
0.26619
0.264226
0.26226
0.260293
0.258325
0.256355
0.254385
0.252413
0.25044
0.248465
0.24649
0.244513
0.242535
0.240556
0.238576
0.236594
0.234612
0.232629
0.230644
0.228659
0.226672
0.224684
0.222696
0.220706
0.218716
0.216724
0.214732
0.212738
0.210744
0.208749
0.206753
0.204756
0.202758
0.20076
0.198761
0.196761
0.19476
0.192758
0.190756
0.188753
0.18675
0.184745
0.18274
0.180735
0.178729
0.176722
0.174715
0.172707
0.170699
0.16869
0.166681
0.164672
0.162662
0.160652
0.158641
0.15663
0.154619
0.152607
0.150596
0.148584
0.146572
0.14456
0.142549
0.140537
0.138525
0.136513
0.134502
0.132491
0.130481
0.128471
0.126462
0.124454
0.122446
0.120441
0.118436
0.116434
0.114434
0.112438
0.110445
0.108458
0.106477
0.104504
0.102542
0.100587
0.0987355
0.0959073
0.778129
1.15864
0.912095
1.02909
0.997293
0.999613
0.999535
0.999465
0.999394
0.999323
0.999252
0.999181
0.99911
0.999038
0.998967
0.998896
0.998824
0.998752
0.998681
0.998609
0.998537
0.998464
0.998392
0.99832
0.998247
0.998175
0.998102
0.998029
0.997956
0.997883
0.99781
0.997736
0.997663
0.997589
0.997515
0.997441
0.997367
0.997292
0.997218
0.997143
0.997068
0.996993
0.996918
0.996842
0.996767
0.996691
0.996615
0.996538
0.996462
0.996385
0.996308
0.996231
0.996153
0.996076
0.995998
0.99592
0.995841
0.995763
0.995684
0.995605
0.995525
0.995445
0.995365
0.995285
0.995204
0.995124
0.995042
0.994961
0.994879
0.994797
0.994715
0.994632
0.994549
0.994465
0.994382
0.994298
0.994213
0.994128
0.994043
0.993958
0.993872
0.993786
0.993699
0.993612
0.993525
0.993437
0.993349
0.993261
0.993172
0.993082
0.992993
0.992902
0.992812
0.992721
0.992629
0.992538
0.992445
0.992353
0.992259
0.992166
0.992072
0.991977
0.991882
0.991786
0.99169
0.991594
0.991497
0.991399
0.991301
0.991203
0.991104
0.991004
0.990904
0.990804
0.990703
0.990601
0.990499
0.990396
0.990293
0.990189
0.990085
0.98998
0.989875
0.989768
0.989662
0.989555
0.989447
0.989338
0.989229
0.98912
0.989009
0.988899
0.988787
0.988675
0.988562
0.988449
0.988335
0.98822
0.988105
0.987989
0.987872
0.987755
0.987637
0.987518
0.987399
0.987279
0.987158
0.987037
0.986915
0.986792
0.986668
0.986544
0.986419
0.986293
0.986167
0.98604
0.985912
0.985783
0.985654
0.985523
0.985392
0.985261
0.985128
0.984995
0.984861
0.984726
0.98459
0.984453
0.984316
0.984178
0.984039
0.983899
0.983758
0.983617
0.983475
0.983331
0.983187
0.983042
0.982897
0.98275
0.982602
0.982454
0.982305
0.982154
0.982003
0.981851
0.981698
0.981544
0.981389
0.981234
0.981077
0.980919
0.980761
0.980601
0.980441
0.980279
0.980117
0.979953
0.979789
0.979624
0.979457
0.97929
0.979121
0.978952
0.978782
0.97861
0.978438
0.978264
0.97809
0.977914
0.977737
0.97756
0.977381
0.977201
0.97702
0.976838
0.976655
0.97647
0.976285
0.976099
0.975911
0.975722
0.975532
0.975342
0.975149
0.974956
0.974762
0.974566
0.974369
0.974172
0.973972
0.973772
0.973571
0.973368
0.973164
0.972959
0.972753
0.972545
0.972337
0.972127
0.971915
0.971703
0.971489
0.971274
0.971058
0.97084
0.970622
0.970401
0.97018
0.969957
0.969733
0.969508
0.969282
0.969054
0.968824
0.968594
0.968362
0.968128
0.967894
0.967658
0.96742
0.967182
0.966941
0.9667
0.966457
0.966213
0.965967
0.96572
0.965471
0.965221
0.96497
0.964717
0.964462
0.964206
0.963949
0.96369
0.96343
0.963168
0.962905
0.962641
0.962374
0.962107
0.961837
0.961567
0.961294
0.961021
0.960745
0.960468
0.96019
0.95991
0.959628
0.959345
0.95906
0.958774
0.958486
0.958196
0.957905
0.957613
0.957318
0.957022
0.956724
0.956425
0.956124
0.955821
0.955517
0.955211
0.954903
0.954594
0.954283
0.95397
0.953656
0.95334
0.953022
0.952702
0.952381
0.952058
0.951733
0.951406
0.951078
0.950748
0.950416
0.950082
0.949746
0.949409
0.94907
0.948729
0.948386
0.948042
0.947695
0.947347
0.946997
0.946645
0.946291
0.945935
0.945578
0.945218
0.944857
0.944494
0.944128
0.943761
0.943392
0.943021
0.942649
0.942274
0.941897
0.941518
0.941138
0.940755
0.94037
0.939984
0.939595
0.939205
0.938812
0.938418
0.938021
0.937622
0.937222
0.936819
0.936414
0.936007
0.935598
0.935187
0.934774
0.934359
0.933942
0.933523
0.933101
0.932678
0.932252
0.931824
0.931394
0.930962
0.930528
0.930092
0.929653
0.929213
0.92877
0.928325
0.927878
0.927428
0.926977
0.926523
0.926067
0.925608
0.925148
0.924685
0.92422
0.923753
0.923283
0.922811
0.922337
0.921861
0.921382
0.920901
0.920418
0.919933
0.919445
0.918955
0.918462
0.917967
0.91747
0.91697
0.916469
0.915964
0.915458
0.914949
0.914437
0.913923
0.913407
0.912888
0.912367
0.911844
0.911318
0.91079
0.910259
0.909726
0.90919
0.908652
0.908111
0.907568
0.907022
0.906474
0.905924
0.905371
0.904815
0.904257
0.903696
0.903133
0.902567
0.901999
0.901428
0.900855
0.900279
0.899701
0.899119
0.898536
0.897949
0.897361
0.896769
0.896175
0.895578
0.894979
0.894377
0.893772
0.893165
0.892555
0.891943
0.891327
0.890709
0.890089
0.889466
0.88884
0.888211
0.88758
0.886946
0.886309
0.885669
0.885027
0.884382
0.883734
0.883084
0.882431
0.881775
0.881116
0.880454
0.87979
0.879123
0.878453
0.87778
0.877105
0.876426
0.875745
0.875061
0.874374
0.873685
0.872992
0.872297
0.871599
0.870898
0.870194
0.869487
0.868778
0.868065
0.86735
0.866631
0.86591
0.865186
0.864459
0.863729
0.862996
0.86226
0.861521
0.86078
0.860035
0.859287
0.858537
0.857783
0.857027
0.856267
0.855505
0.85474
0.853971
0.8532
0.852425
0.851648
0.850867
0.850084
0.849297
0.848508
0.847715
0.84692
0.846121
0.845319
0.844515
0.843707
0.842896
0.842082
0.841265
0.840445
0.839622
0.838795
0.837966
0.837134
0.836298
0.835459
0.834618
0.833773
0.832925
0.832073
0.831219
0.830362
0.829501
0.828637
0.827771
0.8269
0.826027
0.825151
0.824271
0.823389
0.822503
0.821614
0.820721
0.819826
0.818927
0.818026
0.81712
0.816212
0.815301
0.814386
0.813468
0.812547
0.811623
0.810695
0.809764
0.80883
0.807893
0.806952
0.806009
0.805062
0.804111
0.803158
0.802201
0.801241
0.800278
0.799311
0.798341
0.797368
0.796391
0.795412
0.794429
0.793442
0.792453
0.79146
0.790463
0.789464
0.788461
0.787455
0.786445
0.785432
0.784416
0.783397
0.782374
0.781348
0.780318
0.779286
0.77825
0.77721
0.776167
0.775121
0.774072
0.773019
0.771963
0.770903
0.76984
0.768774
0.767704
0.766631
0.765555
0.764475
0.763392
0.762306
0.761216
0.760123
0.759026
0.757926
0.756823
0.755716
0.754606
0.753493
0.752376
0.751256
0.750132
0.749005
0.747874
0.746741
0.745603
0.744463
0.743319
0.742171
0.741021
0.739867
0.738709
0.737548
0.736384
0.735216
0.734045
0.73287
0.731692
0.730511
0.729326
0.728138
0.726946
0.725751
0.724553
0.723351
0.722145
0.720937
0.719725
0.718509
0.71729
0.716068
0.714842
0.713613
0.712381
0.711145
0.709906
0.708663
0.707417
0.706167
0.704914
0.703658
0.702398
0.701135
0.699869
0.698599
0.697325
0.696049
0.694768
0.693485
0.692198
0.690908
0.689614
0.688317
0.687016
0.685712
0.684405
0.683094
0.68178
0.680463
0.679142
0.677818
0.67649
0.675159
0.673825
0.672487
0.671146
0.669802
0.668454
0.667103
0.665748
0.66439
0.663029
0.661664
0.660296
0.658925
0.65755
0.656172
0.654791
0.653406
0.652018
0.650627
0.649232
0.647834
0.646432
0.645028
0.64362
0.642208
0.640794
0.639376
0.637954
0.63653
0.635102
0.633671
0.632236
0.630798
0.629357
0.627913
0.626465
0.625014
0.62356
0.622102
0.620642
0.619178
0.61771
0.61624
0.614766
0.613289
0.611809
0.610325
0.608839
0.607349
0.605856
0.604359
0.60286
0.601357
0.599851
0.598341
0.596829
0.595313
0.593795
0.592273
0.590748
0.589219
0.587688
0.586153
0.584615
0.583074
0.58153
0.579983
0.578433
0.576879
0.575323
0.573763
0.5722
0.570634
0.569065
0.567493
0.565918
0.564339
0.562758
0.561174
0.559586
0.557996
0.556402
0.554805
0.553206
0.551603
0.549997
0.548389
0.546777
0.545162
0.543544
0.541924
0.5403
0.538673
0.537044
0.535411
0.533775
0.532137
0.530495
0.528851
0.527204
0.525554
0.5239
0.522244
0.520586
0.518924
0.517259
0.515591
0.513921
0.512248
0.510572
0.508893
0.507211
0.505526
0.503839
0.502149
0.500456
0.49876
0.497061
0.49536
0.493656
0.491949
0.490239
0.488527
0.486812
0.485094
0.483373
0.48165
0.479924
0.478196
0.476464
0.47473
0.472994
0.471254
0.469512
0.467768
0.466021
0.464271
0.462519
0.460764
0.459006
0.457246
0.455483
0.453718
0.45195
0.45018
0.448407
0.446632
0.444854
0.443074
0.441291
0.439505
0.437718
0.435927
0.434135
0.43234
0.430542
0.428742
0.42694
0.425135
0.423328
0.421519
0.419707
0.417893
0.416076
0.414257
0.412436
0.410613
0.408787
0.406959
0.405128
0.403296
0.401461
0.399624
0.397785
0.395943
0.394099
0.392254
0.390405
0.388555
0.386703
0.384848
0.382992
0.381133
0.379272
0.377409
0.375544
0.373677
0.371807
0.369936
0.368063
0.366187
0.36431
0.362431
0.360549
0.358666
0.356781
0.354893
0.353004
0.351113
0.34922
0.347325
0.345428
0.343529
0.341629
0.339726
0.337822
0.335916
0.334008
0.332098
0.330187
0.328273
0.326358
0.324442
0.322523
0.320603
0.318681
0.316757
0.314832
0.312905
0.310976
0.309046
0.307114
0.30518
0.303245
0.301308
0.29937
0.29743
0.295488
0.293545
0.291601
0.289655
0.287707
0.285758
0.283808
0.281856
0.279903
0.277948
0.275992
0.274034
0.272075
0.270115
0.268153
0.26619
0.264226
0.26226
0.260293
0.258325
0.256355
0.254385
0.252413
0.25044
0.248465
0.24649
0.244513
0.242535
0.240556
0.238576
0.236594
0.234612
0.232629
0.230644
0.228659
0.226672
0.224684
0.222696
0.220706
0.218716
0.216724
0.214732
0.212738
0.210744
0.208749
0.206753
0.204756
0.202758
0.20076
0.198761
0.196761
0.19476
0.192758
0.190756
0.188753
0.186749
0.184745
0.18274
0.180735
0.178729
0.176722
0.174715
0.172707
0.170699
0.16869
0.166681
0.164671
0.162661
0.160651
0.15864
0.156629
0.154618
0.152606
0.150595
0.148583
0.146571
0.144559
0.142547
0.140535
0.138523
0.136511
0.1345
0.132488
0.130477
0.128467
0.126458
0.124449
0.122441
0.120434
0.118428
0.116424
0.114422
0.112422
0.110425
0.108431
0.10644
0.104452
0.102466
0.100482
0.0986083
0.0957635
0.778111
1.15863
0.912093
1.02908
0.997288
0.999609
0.999533
0.999463
0.999393
0.999322
0.999252
0.999181
0.99911
0.999039
0.998967
0.998896
0.998824
0.998752
0.998681
0.998609
0.998537
0.998465
0.998392
0.99832
0.998247
0.998175
0.998102
0.998029
0.997956
0.997883
0.99781
0.997736
0.997663
0.997589
0.997515
0.997441
0.997367
0.997292
0.997218
0.997143
0.997068
0.996993
0.996918
0.996842
0.996767
0.996691
0.996615
0.996538
0.996462
0.996385
0.996308
0.996231
0.996154
0.996076
0.995998
0.99592
0.995841
0.995763
0.995684
0.995605
0.995525
0.995446
0.995365
0.995285
0.995205
0.995124
0.995043
0.994961
0.994879
0.994797
0.994715
0.994632
0.994549
0.994466
0.994382
0.994298
0.994213
0.994129
0.994044
0.993958
0.993872
0.993786
0.993699
0.993613
0.993525
0.993437
0.993349
0.993261
0.993172
0.993083
0.992993
0.992903
0.992812
0.992721
0.99263
0.992538
0.992446
0.992353
0.99226
0.992166
0.992072
0.991977
0.991882
0.991787
0.991691
0.991594
0.991497
0.9914
0.991302
0.991203
0.991104
0.991005
0.990905
0.990804
0.990703
0.990602
0.990499
0.990397
0.990293
0.99019
0.990085
0.98998
0.989875
0.989769
0.989662
0.989555
0.989447
0.989339
0.98923
0.98912
0.98901
0.988899
0.988788
0.988675
0.988563
0.988449
0.988335
0.988221
0.988105
0.987989
0.987873
0.987755
0.987638
0.987519
0.9874
0.98728
0.987159
0.987037
0.986915
0.986792
0.986669
0.986545
0.98642
0.986294
0.986167
0.98604
0.985912
0.985784
0.985654
0.985524
0.985393
0.985261
0.985129
0.984995
0.984861
0.984726
0.98459
0.984454
0.984317
0.984178
0.984039
0.9839
0.983759
0.983617
0.983475
0.983332
0.983188
0.983043
0.982897
0.98275
0.982603
0.982454
0.982305
0.982155
0.982004
0.981852
0.981699
0.981545
0.98139
0.981234
0.981078
0.98092
0.980761
0.980602
0.980441
0.98028
0.980117
0.979954
0.97979
0.979624
0.979458
0.97929
0.979122
0.978953
0.978782
0.978611
0.978438
0.978265
0.97809
0.977915
0.977738
0.97756
0.977381
0.977201
0.97702
0.976838
0.976655
0.976471
0.976286
0.976099
0.975912
0.975723
0.975533
0.975342
0.97515
0.974957
0.974762
0.974567
0.97437
0.974172
0.973973
0.973773
0.973571
0.973369
0.973165
0.97296
0.972753
0.972546
0.972337
0.972127
0.971916
0.971703
0.97149
0.971275
0.971059
0.970841
0.970622
0.970402
0.970181
0.969958
0.969734
0.969509
0.969282
0.969054
0.968825
0.968594
0.968362
0.968129
0.967894
0.967658
0.967421
0.967182
0.966942
0.9667
0.966458
0.966213
0.965967
0.96572
0.965472
0.965222
0.96497
0.964717