/*--------------------------------*- C++ -*----------------------------------*\
| =========                 |                                                 |
| \\      /  F ield         | OpenFOAM: The Open Source CFD Toolbox           |
|  \\    /   O peration     | Version:  2512                                  |
|   \\  /    A nd           | Website:  www.openfoam.com                      |
|    \\/     M anipulation  |                                                 |
\*---------------------------------------------------------------------------*/
FoamFile
{
    version     2.0;
    format      ascii;
    arch        "LSB;label=32;scalar=64";
    class       volScalarField;
    location    "1e-05";
    object      Uy;
}
// * * * * * * * * * * * * * * * * * * * * * * * * * * * * * * * * * * * * * //

dimensions      [0 1 -1 0 0 0 0];

internalField   nonuniform List<scalar> 
100000
(
2.99698e-05
7.20539e-07
7.48504e-05
4.59247e-05
5.17961e-05
5.10241e-05
5.07054e-05
5.04704e-05
5.0302e-05
5.01952e-05
5.01357e-05
5.01145e-05
5.01196e-05
5.01446e-05
5.01823e-05
5.02254e-05
5.02715e-05
5.03192e-05
5.03677e-05
5.04165e-05
5.04654e-05
5.05143e-05
5.05631e-05
5.06121e-05
5.06617e-05
5.07122e-05
5.0764e-05
5.0817e-05
5.08714e-05
5.09277e-05
5.09855e-05
5.10448e-05
5.11056e-05
5.11681e-05
5.1232e-05
5.12973e-05
5.1364e-05
5.1432e-05
5.15012e-05
5.15717e-05
5.16435e-05
5.17169e-05
5.17921e-05
5.18694e-05
5.19488e-05
5.20307e-05
5.21151e-05
5.22022e-05
5.2292e-05
5.23846e-05
5.248e-05
5.25778e-05
5.26781e-05
5.27805e-05
5.28848e-05
5.29909e-05
5.30984e-05
5.32074e-05
5.33178e-05
5.34296e-05
5.35428e-05
5.36577e-05
5.37747e-05
5.38942e-05
5.40166e-05
5.4142e-05
5.42705e-05
5.44018e-05
5.45359e-05
5.46727e-05
5.48121e-05
5.49539e-05
5.50979e-05
5.52441e-05
5.5392e-05
5.55417e-05
5.5693e-05
5.58457e-05
5.59998e-05
5.61555e-05
5.63127e-05
5.64716e-05
5.66322e-05
5.67948e-05
5.69596e-05
5.71269e-05
5.72968e-05
5.74696e-05
5.76453e-05
5.78238e-05
5.80051e-05
5.81892e-05
5.83759e-05
5.85651e-05
5.87566e-05
5.89503e-05
5.91465e-05
5.93459e-05
5.95471e-05
5.97495e-05
5.99531e-05
6.0158e-05
6.03648e-05
6.05736e-05
6.07846e-05
6.09983e-05
6.12148e-05
6.14343e-05
6.16569e-05
6.18825e-05
6.21111e-05
6.23427e-05
6.2577e-05
6.28139e-05
6.30534e-05
6.32951e-05
6.35388e-05
6.37844e-05
6.40316e-05
6.42803e-05
6.45303e-05
6.47818e-05
6.50349e-05
6.52899e-05
6.55474e-05
6.58077e-05
6.60712e-05
6.63379e-05
6.66077e-05
6.68805e-05
6.71561e-05
6.74346e-05
6.77158e-05
6.8e-05
6.8287e-05
6.85769e-05
6.88694e-05
6.91645e-05
6.94618e-05
6.97612e-05
7.00631e-05
7.03672e-05
7.06735e-05
7.09818e-05
7.12921e-05
7.16043e-05
7.19185e-05
7.22348e-05
7.25536e-05
7.28749e-05
7.31992e-05
7.35264e-05
7.38564e-05
7.41891e-05
7.45244e-05
7.48625e-05
7.52039e-05
7.55501e-05
7.59002e-05
7.6253e-05
7.66082e-05
7.6966e-05
7.73261e-05
7.76883e-05
7.80526e-05
7.84188e-05
7.87874e-05
7.91585e-05
7.95324e-05
7.99092e-05
8.02888e-05
8.06711e-05
8.10559e-05
8.14434e-05
8.18337e-05
8.22268e-05
8.26227e-05
8.30213e-05
8.34225e-05
8.38266e-05
8.42335e-05
8.46435e-05
8.50561e-05
8.54712e-05
8.58886e-05
8.6308e-05
8.67295e-05
8.71533e-05
8.75792e-05
8.80074e-05
8.84378e-05
8.88704e-05
8.93049e-05
8.97416e-05
9.01804e-05
9.06213e-05
9.10647e-05
9.15108e-05
9.1961e-05
9.24171e-05
9.28782e-05
9.33431e-05
9.38109e-05
9.42815e-05
9.4755e-05
9.52315e-05
9.57109e-05
9.61931e-05
9.6678e-05
9.71653e-05
9.76546e-05
9.81459e-05
9.86389e-05
9.91338e-05
9.96303e-05
0.000100129
0.000100629
0.000101131
0.000101635
0.000102142
0.000102652
0.000103165
0.000103683
0.000104208
0.000104738
0.000105272
0.00010581
0.000106351
0.000106895
0.000107443
0.000107994
0.000108549
0.000109109
0.000109674
0.000110244
0.000110819
0.000111398
0.00011198
0.000112564
0.00011315
0.000113737
0.000114325
0.000114916
0.000115507
0.000116101
0.000116698
0.000117296
0.000117898
0.000118502
0.000119109
0.000119719
0.000120332
0.000120948
0.000121567
0.000122188
0.000122812
0.000123437
0.000124064
0.000124693
0.000125323
0.000125955
0.000126587
0.000127221
0.000127857
0.000128494
0.000129132
0.000129771
0.000130413
0.000131057
0.000131703
0.000132351
0.000133003
0.000133658
0.000134315
0.000134976
0.000135639
0.000136305
0.000136974
0.000137644
0.000138317
0.000138992
0.000139668
0.000140346
0.000141026
0.000141706
0.000142388
0.000143071
0.000143755
0.000144441
0.000145129
0.000145818
0.000146509
0.000147202
0.000147898
0.000148596
0.000149298
0.000150002
0.000150709
0.00015142
0.000152133
0.000152849
0.000153568
0.000154289
0.000155012
0.000155737
0.000156464
0.000157192
0.000157921
0.000158652
0.000159384
0.000160117
0.000160852
0.000161589
0.000162327
0.000163068
0.00016381
0.000164555
0.000165303
0.000166054
0.000166808
0.000167565
0.000168326
0.00016909
0.000169857
0.000170628
0.000171401
0.000172176
0.000172954
0.000173734
0.000174515
0.000175298
0.000176083
0.000176869
0.000177657
0.000178446
0.000179236
0.000180029
0.000180824
0.00018162
0.00018242
0.000183221
0.000184026
0.000184833
0.000185644
0.000186457
0.000187274
0.000188094
0.000188917
0.000189743
0.000190572
0.000191403
0.000192236
0.000193071
0.000193908
0.000194746
0.000195585
0.000196425
0.000197268
0.000198111
0.000198957
0.000199805
0.000200655
0.000201508
0.000202362
0.000203219
0.000204078
0.00020494
0.000205804
0.000206672
0.000207542
0.000208415
0.000209292
0.000210172
0.000211054
0.00021194
0.000212828
0.000213718
0.00021461
0.000215504
0.0002164
0.000217297
0.000218197
0.000219097
0.000219999
0.000220903
0.000221807
0.000222713
0.000223619
0.000224527
0.000225435
0.000226344
0.000227254
0.000228165
0.000229078
0.000229992
0.000230907
0.000231824
0.000232742
0.00023366
0.000234579
0.000235497
0.000236415
0.000237333
0.00023825
0.000239166
0.000240082
0.000240997
0.000241911
0.000242824
0.000243737
0.000244649
0.00024556
0.00024647
0.000247379
0.000248287
0.000249195
0.000250102
0.000251009
0.000251917
0.000252825
0.000253734
0.000254642
0.000255551
0.000256459
0.000257367
0.000258273
0.000259178
0.000260081
0.000260984
0.000261884
0.000262784
0.000263682
0.000264579
0.000265474
0.000266368
0.00026726
0.000268151
0.00026904
0.000269927
0.000270814
0.000271699
0.000272584
0.000273469
0.000274354
0.000275239
0.000276125
0.000277011
0.000277896
0.000278781
0.000279665
0.000280549
0.000281431
0.000282313
0.000283193
0.000284072
0.000284951
0.000285828
0.000286704
0.00028758
0.000288453
0.000289326
0.000290197
0.000291067
0.000291936
0.000292803
0.000293668
0.000294531
0.000295393
0.000296252
0.000297111
0.000297968
0.000298823
0.000299676
0.000300526
0.000301372
0.000302216
0.000303057
0.000303894
0.000304728
0.000305558
0.000306386
0.00030721
0.00030803
0.000308847
0.00030966
0.000310469
0.000311273
0.000312073
0.000312869
0.000313661
0.000314449
0.000315233
0.000316013
0.000316791
0.000317564
0.000318335
0.000319102
0.000319865
0.000320624
0.00032138
0.000322132
0.000322881
0.000323626
0.000324367
0.000325104
0.000325836
0.000326564
0.000327287
0.000328006
0.00032872
0.000329429
0.000330134
0.000330835
0.000331532
0.000332225
0.000332914
0.000333599
0.000334281
0.00033496
0.000335635
0.000336306
0.000336973
0.000337635
0.000338292
0.000338944
0.00033959
0.00034023
0.000340864
0.000341493
0.000342116
0.000342733
0.000343345
0.000343952
0.000344554
0.000345151
0.000345744
0.000346333
0.000346917
0.000347498
0.000348074
0.000348645
0.000349212
0.000349773
0.000350329
0.00035088
0.000351425
0.000351964
0.000352497
0.000353025
0.000353548
0.000354067
0.000354581
0.000355091
0.000355597
0.0003561
0.0003566
0.000357098
0.000357595
0.00035809
0.000358586
0.000359082
0.00035958
0.00036008
0.000360582
0.000361089
0.0003616
0.000362117
0.000362642
0.000363176
0.000363717
0.000364266
0.000364822
0.000365386
0.000365957
0.000366535
0.000367119
0.00036771
0.000368306
0.000368909
0.000369516
0.00037013
0.000370748
0.000371371
0.000371999
0.000372632
0.000373269
0.000373912
0.000374558
0.000375209
0.000375865
0.000376524
0.000377188
0.000377856
0.000378528
0.000379203
0.000379882
0.000380564
0.000381249
0.000381937
0.000382629
0.000383323
0.000384021
0.000384721
0.000385424
0.00038613
0.000386839
0.00038755
0.000388264
0.00038898
0.000389699
0.00039042
0.000391144
0.000391871
0.000392599
0.00039333
0.000394063
0.000394798
0.000395535
0.000396275
0.000397016
0.000397759
0.000398504
0.000399251
0.0004
0.000400751
0.000401505
0.00040226
0.000403019
0.000403781
0.000404545
0.000405312
0.000406082
0.000406854
0.000407628
0.000408405
0.000409185
0.000409969
0.000410755
0.000411545
0.000412337
0.000413132
0.000413929
0.000414728
0.000415529
0.000416332
0.000417136
0.000417943
0.000418751
0.000419561
0.000420373
0.000421188
0.000422004
0.000422824
0.000423646
0.00042447
0.000425297
0.000426126
0.000426957
0.000427789
0.000428623
0.000429457
0.000430293
0.000431129
0.000431966
0.000432803
0.000433642
0.00043448
0.000435319
0.000436159
0.000436999
0.000437839
0.000438679
0.000439521
0.000440362
0.000441204
0.000442046
0.000442889
0.000443733
0.000444577
0.000445421
0.000446265
0.00044711
0.000447955
0.0004488
0.000449645
0.000450491
0.000451338
0.000452186
0.000453035
0.000453884
0.000454732
0.00045558
0.000456428
0.000457276
0.000458123
0.000458971
0.000459817
0.000460664
0.000461511
0.000462358
0.000463205
0.000464052
0.000464899
0.000465746
0.000466593
0.000467439
0.000468284
0.000469129
0.000469973
0.000470817
0.000471661
0.000472504
0.000473347
0.000474189
0.000475031
0.000475873
0.000476714
0.000477555
0.000478396
0.000479238
0.00048008
0.000480922
0.000481765
0.000482608
0.000483451
0.000484294
0.000485138
0.000485981
0.000486823
0.000487665
0.000488507
0.000489347
0.000490187
0.000491026
0.000491864
0.000492701
0.000493538
0.000494373
0.000495207
0.000496041
0.000496873
0.000497706
0.000498538
0.000499371
0.000500203
0.000501035
0.000501866
0.000502697
0.000503526
0.000504355
0.000505182
0.000506009
0.000506835
0.00050766
0.000508484
0.000509307
0.000510129
0.000510949
0.000511768
0.000512585
0.0005134
0.000514213
0.000515025
0.000515835
0.000516644
0.000517451
0.000518257
0.000519061
0.000519863
0.000520664
0.000521463
0.000522261
0.000523056
0.00052385
0.000524642
0.000525432
0.00052622
0.000527006
0.00052779
0.000528573
0.000529353
0.000530131
0.000530908
0.000531682
0.000532454
0.000533225
0.000533993
0.000534758
0.000535522
0.000536284
0.000537044
0.000537802
0.000538559
0.000539314
0.000540068
0.00054082
0.000541571
0.000542321
0.000543068
0.000543814
0.000544558
0.000545301
0.000546041
0.00054678
0.000547516
0.000548249
0.00054898
0.000549708
0.000550433
0.000551155
0.000551874
0.00055259
0.000553303
0.000554014
0.000554722
0.000555428
0.000556131
0.000556833
0.000557532
0.000558228
0.000558922
0.000559614
0.000560302
0.000560988
0.000561671
0.000562351
0.000563028
0.000563701
0.000564371
0.000565038
0.000565701
0.000566361
0.000567018
0.000567671
0.000568321
0.000568969
0.000569613
0.000570255
0.000570895
0.000571532
0.000572166
0.000572797
0.000573426
0.000574052
0.000574675
0.000575295
0.000575912
0.000576526
0.000577137
0.000577745
0.000578349
0.00057895
0.000579547
0.000580141
0.000580731
0.000581317
0.000581899
0.000582477
0.000583052
0.000583623
0.000584191
0.000584755
0.000585316
0.000585873
0.000586427
0.000586978
0.000587525
0.000588069
0.00058861
0.000589149
0.000589685
0.000590217
0.000590747
0.000591273
0.000591796
0.000592315
0.00059283
0.000593342
0.000593849
0.000594352
0.000594852
0.000595347
0.000595838
0.000596324
0.000596807
0.000597286
0.000597762
0.000598234
0.000598702
0.000599167
0.000599628
0.000600085
0.000600539
0.000600989
0.000601434
0.000601876
0.000602314
0.000602748
0.000603178
0.000603604
0.000604027
0.000604446
0.000604861
0.000605273
0.000605681
0.000606084
0.000606483
0.000606877
0.000607267
0.000607652
0.000608033
0.000608409
0.00060878
0.000609147
0.000609509
0.000609867
0.000610221
0.00061057
0.000610914
0.000611253
0.000611588
0.000611917
0.000612241
0.00061256
0.000612875
0.000613187
0.000613496
0.000613802
0.000614105
0.000614405
0.000614701
0.000614993
0.000615281
0.000615564
0.000615842
0.000616115
0.000616382
0.000616644
0.0006169
0.00061715
0.000617394
0.000617632
0.000617865
0.000618092
0.000618315
0.000618533
0.000618748
0.000618959
0.000619167
0.000619372
0.000619573
0.000619772
0.000619968
0.00062016
0.000620348
0.000620529
0.000620704
0.000620873
0.000621037
0.000621195
0.00062135
0.0006215
0.000621646
0.000621786
0.000621921
0.000622051
0.000622178
0.000622305
0.000622434
0.000622566
0.000622702
0.000622841
0.000622982
0.000623122
0.000623259
0.000623391
0.000623521
0.000623651
0.000623782
0.000623916
0.000624047
0.000624169
0.000624282
0.000624385
0.00062448
0.000624563
0.000624627
0.000624665
0.00062467
0.000624639
0.00062455
0.000624365
0.000624029
0.0006234
0.00062214
0.00061939
0.00061285
0.000596235
0.000553751
0.000419093
-6.85347e-05
-8.0198e-05
-1.30107e-05
-2.4079e-05
-1.4187e-05
-9.96081e-06
-7.33213e-06
-5.76513e-06
-4.7462e-06
-4.03643e-06
-3.55099e-06
-3.19229e-06
-2.92378e-06
-2.73074e-06
-2.59255e-06
-2.48091e-06
-2.38486e-06
-2.29962e-06
-2.22251e-06
-2.15182e-06
-2.08616e-06
-2.02428e-06
-1.9652e-06
-1.90842e-06
-1.85384e-06
-1.80167e-06
-1.75172e-06
-1.70349e-06
-1.65712e-06
-1.61261e-06
-1.56926e-06
-1.52613e-06
-1.48275e-06
-1.43889e-06
-1.39441e-06
-1.34918e-06
-1.30304e-06
-1.25589e-06
-1.20766e-06
-1.15831e-06
-1.10788e-06
-1.05646e-06
-1.00419e-06
-9.51204e-07
-8.97665e-07
-8.43716e-07
-7.89482e-07
-7.35026e-07
-6.80395e-07
-6.25563e-07
-5.70454e-07
-5.14918e-07
-4.58778e-07
-4.01854e-07
-3.43978e-07
-2.84981e-07
-2.24739e-07
-1.63156e-07
-1.00183e-07
-3.5763e-08
3.01359e-08
9.75158e-08
1.66295e-07
2.36326e-07
3.07346e-07
3.791e-07
4.513e-07
5.23851e-07
5.96813e-07
6.70262e-07
7.44278e-07
8.1899e-07
8.9456e-07
9.71158e-07
1.04898e-06
1.12817e-06
1.2089e-06
1.29125e-06
1.37527e-06
1.46097e-06
1.54833e-06
1.63726e-06
1.72766e-06
1.81933e-06
1.91204e-06
2.00553e-06
2.09953e-06
2.19383e-06
2.28833e-06
2.38303e-06
2.47806e-06
2.57359e-06
2.66974e-06
2.76662e-06
2.86427e-06
2.96257e-06
3.06099e-06
3.15904e-06
3.25785e-06
3.35794e-06
3.45931e-06
3.56159e-06
3.66437e-06
3.76768e-06
3.87177e-06
3.9768e-06
4.08277e-06
4.18959e-06
4.29717e-06
4.40543e-06
4.51435e-06
4.62399e-06
4.73442e-06
4.84577e-06
4.95818e-06
5.07182e-06
5.18688e-06
5.30355e-06
5.42199e-06
5.54231e-06
5.66458e-06
5.7888e-06
5.91489e-06
6.04272e-06
6.17208e-06
6.30281e-06
6.43475e-06
6.56782e-06
6.70194e-06
6.83709e-06
6.97321e-06
7.1103e-06
7.24835e-06
7.38739e-06
7.52747e-06
7.66869e-06
7.81112e-06
7.95483e-06
8.09976e-06
8.24573e-06
8.39248e-06
8.54003e-06
8.68868e-06
8.83873e-06
8.99043e-06
9.14386e-06
9.29904e-06
9.45588e-06
9.61427e-06
9.77404e-06
9.93507e-06
1.00973e-05
1.02607e-05
1.04252e-05
1.0591e-05
1.07579e-05
1.09255e-05
1.10934e-05
1.12618e-05
1.14312e-05
1.16018e-05
1.17737e-05
1.19469e-05
1.21218e-05
1.22984e-05
1.24768e-05
1.2657e-05
1.28388e-05
1.30222e-05
1.32072e-05
1.33936e-05
1.35815e-05
1.37709e-05
1.39616e-05
1.41535e-05
1.43467e-05
1.45411e-05
1.47368e-05
1.49339e-05
1.51324e-05
1.53324e-05
1.55339e-05
1.5737e-05
1.59421e-05
1.61491e-05
1.63583e-05
1.65696e-05
1.67831e-05
1.69987e-05
1.72165e-05
1.74364e-05
1.76585e-05
1.78827e-05
1.81089e-05
1.83371e-05
1.85672e-05
1.8799e-05
1.90324e-05
1.92668e-05
1.95021e-05
1.97381e-05
1.99752e-05
2.02137e-05
2.04535e-05
2.06949e-05
2.09379e-05
2.11824e-05
2.14287e-05
2.16768e-05
2.19269e-05
2.21792e-05
2.24336e-05
2.26904e-05
2.29494e-05
2.32108e-05
2.34744e-05
2.37402e-05
2.40083e-05
2.42784e-05
2.45504e-05
2.48242e-05
2.50994e-05
2.53757e-05
2.56529e-05
2.59311e-05
2.62102e-05
2.64904e-05
2.67719e-05
2.70547e-05
2.73388e-05
2.76243e-05
2.79112e-05
2.81994e-05
2.84891e-05
2.87802e-05
2.9073e-05
2.93677e-05
2.96645e-05
2.99636e-05
3.02652e-05
3.05693e-05
3.08759e-05
3.1185e-05
3.14963e-05
3.18098e-05
3.21251e-05
3.24421e-05
3.27606e-05
3.30803e-05
3.34012e-05
3.37234e-05
3.40469e-05
3.43717e-05
3.46982e-05
3.50264e-05
3.53568e-05
3.56894e-05
3.60244e-05
3.6362e-05
3.67024e-05
3.70457e-05
3.73919e-05
3.77411e-05
3.80933e-05
3.84485e-05
3.88066e-05
3.91674e-05
3.95308e-05
3.98966e-05
4.02646e-05
4.06345e-05
4.10063e-05
4.13797e-05
4.17548e-05
4.21317e-05
4.25105e-05
4.28913e-05
4.32744e-05
4.36599e-05
4.40482e-05
4.44393e-05
4.48335e-05
4.5231e-05
4.56318e-05
4.60361e-05
4.64439e-05
4.68554e-05
4.72703e-05
4.76888e-05
4.81107e-05
4.85358e-05
4.89639e-05
4.93948e-05
4.98284e-05
5.02643e-05
5.07026e-05
5.1143e-05
5.15856e-05
5.20305e-05
5.24777e-05
5.29275e-05
5.338e-05
5.38354e-05
5.4294e-05
5.47561e-05
5.52217e-05
5.56911e-05
5.61643e-05
5.66415e-05
5.71227e-05
5.76079e-05
5.8097e-05
5.85898e-05
5.90863e-05
5.95862e-05
6.00893e-05
6.05954e-05
6.11043e-05
6.16157e-05
6.21295e-05
6.26455e-05
6.31637e-05
6.3684e-05
6.42067e-05
6.47318e-05
6.52595e-05
6.57902e-05
6.63242e-05
6.68616e-05
6.74026e-05
6.79474e-05
6.8496e-05
6.90485e-05
6.96049e-05
7.01652e-05
7.07292e-05
7.12967e-05
7.18676e-05
7.24417e-05
7.30185e-05
7.35979e-05
7.41797e-05
7.47639e-05
7.53501e-05
7.59384e-05
7.65285e-05
7.71204e-05
7.77142e-05
7.83099e-05
7.8908e-05
7.95087e-05
8.01124e-05
8.07193e-05
8.13297e-05
8.19436e-05
8.25609e-05
8.31816e-05
8.38054e-05
8.44319e-05
8.50611e-05
8.56925e-05
8.63262e-05
8.69621e-05
8.76003e-05
8.82407e-05
8.88833e-05
8.95281e-05
9.01749e-05
9.08233e-05
9.14729e-05
9.21235e-05
9.27749e-05
9.34273e-05
9.40809e-05
9.4736e-05
9.53928e-05
9.60515e-05
9.67123e-05
9.73754e-05
9.80409e-05
9.87087e-05
9.93787e-05
0.000100051
0.000100725
0.000101402
0.000102081
0.000102763
0.000103447
0.000104133
0.000104822
0.000105514
0.000106208
0.000106904
0.000107602
0.000108302
0.000109003
0.000109706
0.00011041
0.000111117
0.000111827
0.000112539
0.000113254
0.000113973
0.000114695
0.00011542
0.000116149
0.00011688
0.000117615
0.000118353
0.000119094
0.000119838
0.000120586
0.000121337
0.000122091
0.000122849
0.000123609
0.000124373
0.000125139
0.000125907
0.000126677
0.000127449
0.000128223
0.000128999
0.000129778
0.000130561
0.000131347
0.000132136
0.000132929
0.000133726
0.000134526
0.000135329
0.000136136
0.000136947
0.000137761
0.000138579
0.000139401
0.000140226
0.000141056
0.000141889
0.000142725
0.000143566
0.000144409
0.000145255
0.000146103
0.000146953
0.000147806
0.000148661
0.000149519
0.000150381
0.000151246
0.000152114
0.000152986
0.000153861
0.00015474
0.000155623
0.00015651
0.000157401
0.000158295
0.000159193
0.000160095
0.000161001
0.000161911
0.000162824
0.000163741
0.000164663
0.000165588
0.000166517
0.00016745
0.000168387
0.000169327
0.000170271
0.000171218
0.000172169
0.000173124
0.000174084
0.000175048
0.000176017
0.00017699
0.000177968
0.00017895
0.000179937
0.000180928
0.000181924
0.000182925
0.00018393
0.00018494
0.000185956
0.000186976
0.000188
0.000189029
0.000190062
0.000191099
0.00019214
0.000193184
0.000194231
0.00019528
0.000196333
0.000197388
0.000198446
0.000199506
0.000200569
0.000201633
0.000202699
0.000203766
0.000204833
0.0002059
0.000206967
0.000208032
0.000209096
0.000210157
0.000211213
0.000212265
0.000213311
0.000214349
0.000215381
0.000216406
0.000217424
0.000218434
0.000219436
0.000220432
0.00022142
0.000222402
0.000223377
0.000224345
0.000225307
0.000226263
0.000227212
0.000228154
0.000229091
0.00023002
0.000230944
0.000231861
0.000232771
0.000233675
0.000234572
0.000235462
0.000236344
0.000237218
0.000238085
0.000238943
0.000239794
0.000240638
0.000241476
0.000242308
0.000243136
0.000243958
0.000244775
0.000245588
0.000246397
0.000247203
0.000248005
0.000248804
0.000249601
0.000250396
0.000251188
0.000251979
0.000252768
0.000253557
0.000254345
0.000255132
0.00025592
0.000256709
0.0002575
0.000258293
0.000259089
0.00025989
0.000260696
0.000261509
0.000262329
0.000263156
0.000263989
0.00026483
0.000265677
0.00026653
0.000267389
0.000268255
0.000269126
0.000270003
0.000270886
0.000271775
0.000272669
0.000273568
0.000274473
0.000275383
0.000276297
0.000277216
0.00027814
0.000279067
0.000279999
0.000280936
0.000281876
0.000282819
0.000283767
0.000284718
0.000285673
0.000286632
0.000287594
0.000288559
0.000289528
0.000290501
0.000291476
0.000292455
0.000293436
0.000294421
0.000295408
0.000296398
0.000297391
0.000298387
0.000299385
0.000300385
0.000301388
0.000302393
0.000303401
0.00030441
0.000305422
0.000306436
0.000307451
0.000308469
0.000309489
0.000310511
0.000311534
0.00031256
0.000313587
0.000314615
0.000315645
0.000316676
0.000317708
0.000318741
0.000319775
0.000320809
0.000321843
0.000322878
0.000323914
0.00032495
0.000325986
0.000327023
0.000328059
0.000329095
0.000330131
0.000331167
0.000332203
0.000333239
0.000334276
0.000335312
0.000336349
0.000337387
0.000338425
0.000339462
0.0003405
0.000341538
0.000342576
0.000343614
0.000344651
0.000345688
0.000346724
0.00034776
0.000348796
0.000349832
0.000350867
0.000351903
0.000352938
0.000353974
0.000355011
0.000356047
0.000357084
0.000358122
0.00035916
0.000360198
0.000361236
0.000362275
0.000363314
0.000364353
0.000365393
0.000366432
0.000367472
0.000368511
0.000369551
0.00037059
0.000371629
0.000372668
0.000373707
0.000374746
0.000375785
0.000376823
0.000377861
0.000378899
0.000379936
0.000380972
0.000382007
0.000383042
0.000384077
0.000385112
0.000386147
0.000387181
0.000388215
0.000389248
0.000390281
0.000391314
0.000392346
0.000393377
0.000394406
0.000395435
0.000396463
0.000397491
0.000398517
0.000399544
0.000400569
0.000401594
0.000402618
0.000403641
0.000404663
0.000405684
0.000406704
0.000407723
0.000408741
0.000409758
0.000410774
0.000411788
0.0004128
0.000413811
0.000414819
0.000415825
0.000416829
0.000417832
0.000418832
0.00041983
0.000420826
0.000421821
0.000422814
0.000423805
0.000424794
0.000425782
0.000426769
0.000427754
0.000428737
0.000429719
0.000430699
0.000431678
0.000432654
0.000433629
0.000434602
0.000435573
0.000436542
0.000437507
0.00043847
0.000439431
0.000440389
0.000441345
0.0004423
0.000443252
0.000444202
0.00044515
0.000446096
0.00044704
0.000447981
0.000448921
0.000449858
0.000450794
0.000451727
0.000452659
0.000453589
0.000454517
0.000455444
0.000456368
0.00045729
0.000458209
0.000459127
0.000460042
0.000460955
0.000461866
0.000462775
0.000463681
0.000464585
0.000465488
0.000466387
0.000467285
0.00046818
0.000469073
0.000469963
0.000470852
0.000471737
0.000472621
0.000473501
0.000474379
0.000475255
0.000476129
0.000477
0.000477868
0.000478734
0.000479598
0.000480458
0.000481316
0.000482171
0.000483022
0.000483869
0.000484714
0.000485555
0.000486393
0.000487227
0.000488059
0.000488887
0.000489712
0.000490534
0.000491353
0.000492169
0.000492983
0.000493794
0.000494602
0.000495408
0.000496211
0.000497011
0.000497809
0.000498604
0.000499397
0.000500186
0.000500972
0.000501755
0.000502534
0.000503309
0.000504081
0.00050485
0.000505616
0.000506378
0.000507137
0.000507894
0.000508647
0.000509397
0.000510145
0.000510889
0.000511631
0.00051237
0.000513106
0.000513839
0.000514569
0.000515295
0.000516019
0.000516738
0.000517454
0.000518166
0.000518874
0.000519579
0.000520279
0.000520976
0.000521668
0.000522357
0.000523043
0.000523725
0.000524403
0.000525077
0.000525748
0.000526415
0.000527079
0.000527739
0.000528396
0.00052905
0.0005297
0.000530348
0.000530992
0.000531632
0.000532269
0.000532903
0.000533532
0.000534158
0.00053478
0.000535398
0.000536011
0.000536621
0.000537226
0.000537827
0.000538423
0.000539014
0.000539601
0.000540183
0.000540761
0.000541334
0.000541904
0.000542469
0.000543031
0.000543588
0.000544141
0.000544691
0.000545237
0.000545779
0.000546317
0.000546851
0.00054738
0.000547905
0.000548426
0.000548941
0.000549452
0.000549958
0.00055046
0.000550957
0.000551449
0.000551937
0.00055242
0.000552899
0.000553373
0.000553843
0.000554307
0.000554767
0.000555221
0.000555669
0.000556113
0.000556552
0.000556986
0.000557416
0.000557842
0.000558263
0.000558679
0.000559091
0.000559498
0.000559901
0.000560299
0.000560692
0.00056108
0.000561463
0.00056184
0.000562213
0.000562581
0.000562944
0.000563301
0.000563654
0.000564002
0.000564343
0.000564677
0.000565004
0.000565322
0.000565633
0.000565936
0.000566233
0.000566522
0.000566804
0.00056708
0.000567349
0.000567611
0.000567866
0.000568115
0.000568357
0.000568592
0.00056882
0.000569041
0.000569255
0.00056946
0.000569657
0.000569843
0.000570018
0.000570181
0.000570333
0.000570471
0.000570597
0.000570709
0.000570809
0.000570894
0.000570967
0.000571027
0.000571074
0.000571107
0.000571123
0.00057112
0.000571097
0.000571052
0.000570985
0.000570897
0.000570785
0.000570648
0.000570481
0.000570279
0.000570037
0.000569751
0.000569417
0.000569031
0.000568591
0.000568095
0.000567538
0.000566912
0.000566208
0.000565411
0.00056451
0.00056349
0.000562338
0.000561036
0.000559554
0.000557861
0.000555911
0.000553653
0.000551017
0.000547907
0.000544199
0.000539702
0.000534149
0.000527161
0.00051812
0.00050604
0.000489266
0.000464817
0.000427205
0.000366043
0.000263379
6.17704e-05
-1.65191e-05
-7.61151e-06
6.91093e-06
7.85462e-06
1.17475e-05
1.37309e-05
1.49276e-05
1.55742e-05
1.60139e-05
1.64232e-05
1.68515e-05
1.7206e-05
1.74948e-05
1.77411e-05
1.79587e-05
1.81401e-05
1.82877e-05
1.84067e-05
1.8503e-05
1.85822e-05
1.86484e-05
1.87043e-05
1.87521e-05
1.87934e-05
1.883e-05
1.88638e-05
1.88956e-05
1.89256e-05
1.89544e-05
1.89818e-05
1.90082e-05
1.90335e-05
1.90576e-05
1.90806e-05
1.91025e-05
1.91235e-05
1.91436e-05
1.9163e-05
1.91815e-05
1.91994e-05
1.92167e-05
1.92336e-05
1.92502e-05
1.92667e-05
1.92834e-05
1.93004e-05
1.93179e-05
1.93359e-05
1.93546e-05
1.9374e-05
1.9394e-05
1.94146e-05
1.94355e-05
1.94568e-05
1.94782e-05
1.94998e-05
1.95215e-05
1.95431e-05
1.95647e-05
1.95862e-05
1.96076e-05
1.96289e-05
1.96502e-05
1.96713e-05
1.96926e-05
1.97143e-05
1.97368e-05
1.97602e-05
1.97846e-05
1.98098e-05
1.98358e-05
1.98626e-05
1.98899e-05
1.99176e-05
1.99457e-05
1.9974e-05
2.00022e-05
2.00304e-05
2.00585e-05
2.00864e-05
2.01143e-05
2.0142e-05
2.01699e-05
2.01979e-05
2.02264e-05
2.02555e-05
2.02856e-05
2.03167e-05
2.0349e-05
2.03825e-05
2.04171e-05
2.04526e-05
2.0489e-05
2.05261e-05
2.05637e-05
2.06017e-05
2.06395e-05
2.06767e-05
2.07137e-05
2.07506e-05
2.07875e-05
2.08245e-05
2.08617e-05
2.08992e-05
2.09369e-05
2.09749e-05
2.10133e-05
2.10522e-05
2.10918e-05
2.11321e-05
2.11733e-05
2.12152e-05
2.12579e-05
2.13013e-05
2.13451e-05
2.13894e-05
2.14338e-05
2.14784e-05
2.1523e-05
2.15675e-05
2.16119e-05
2.16562e-05
2.17004e-05
2.17446e-05
2.17888e-05
2.18331e-05
2.18775e-05
2.19222e-05
2.19673e-05
2.2013e-05
2.20593e-05
2.21063e-05
2.2154e-05
2.22023e-05
2.22511e-05
2.23003e-05
2.23498e-05
2.23994e-05
2.24492e-05
2.24992e-05
2.25494e-05
2.25998e-05
2.26503e-05
2.27008e-05
2.27513e-05
2.28018e-05
2.28522e-05
2.29028e-05
2.29535e-05
2.30046e-05
2.3056e-05
2.3108e-05
2.31605e-05
2.32135e-05
2.32672e-05
2.33213e-05
2.33757e-05
2.34295e-05
2.3483e-05
2.35366e-05
2.35903e-05
2.36441e-05
2.36978e-05
2.37515e-05
2.38049e-05
2.38582e-05
2.39112e-05
2.39641e-05
2.40169e-05
2.40696e-05
2.41223e-05
2.41752e-05
2.42282e-05
2.42816e-05
2.43353e-05
2.43894e-05
2.44439e-05
2.44988e-05
2.4554e-05
2.46093e-05
2.46648e-05
2.47201e-05
2.47753e-05
2.48302e-05
2.48848e-05
2.4939e-05
2.49926e-05
2.50457e-05
2.50984e-05
2.51504e-05
2.5202e-05
2.52532e-05
2.5304e-05
2.53545e-05
2.54048e-05
2.5455e-05
2.55051e-05
2.55551e-05
2.56048e-05
2.56534e-05
2.57015e-05
2.57494e-05
2.57975e-05
2.58456e-05
2.58938e-05
2.59418e-05
2.59897e-05
2.60372e-05
2.60844e-05
2.61311e-05
2.61773e-05
2.62229e-05
2.6268e-05
2.63125e-05
2.63564e-05
2.63998e-05
2.64427e-05
2.64852e-05
2.65271e-05
2.65686e-05
2.66096e-05
2.66502e-05
2.66901e-05
2.6729e-05
2.67669e-05
2.68047e-05
2.68426e-05
2.68808e-05
2.69193e-05
2.69578e-05
2.69962e-05
2.70342e-05
2.70714e-05
2.71075e-05
2.71421e-05
2.71753e-05
2.72076e-05
2.72391e-05
2.72699e-05
2.73001e-05
2.73297e-05
2.73587e-05
2.73873e-05
2.74156e-05
2.74437e-05
2.74721e-05
2.75011e-05
2.75311e-05
2.75622e-05
2.75945e-05
2.76279e-05
2.76625e-05
2.7698e-05
2.77343e-05
2.77711e-05
2.78084e-05
2.7846e-05
2.78838e-05
2.79216e-05
2.79594e-05
2.79969e-05
2.80341e-05
2.8071e-05
2.81078e-05
2.81444e-05
2.81809e-05
2.82175e-05
2.82543e-05
2.82916e-05
2.83297e-05
2.83688e-05
2.84091e-05
2.84505e-05
2.84931e-05
2.85368e-05
2.85814e-05
2.86268e-05
2.86727e-05
2.87189e-05
2.87653e-05
2.88116e-05
2.88577e-05
2.89034e-05
2.89487e-05
2.89935e-05
2.90376e-05
2.90812e-05
2.91241e-05
2.91664e-05
2.92083e-05
2.92499e-05
2.92913e-05
2.93328e-05
2.93746e-05
2.94169e-05
2.94598e-05
2.95034e-05
2.95476e-05
2.95922e-05
2.96373e-05
2.96826e-05
2.97279e-05
2.9773e-05
2.98178e-05
2.98619e-05
2.99053e-05
2.99478e-05
2.99893e-05
3.00297e-05
3.00689e-05
3.0107e-05
3.01439e-05
3.01798e-05
3.02147e-05
3.02489e-05
3.02825e-05
3.03157e-05
3.03487e-05
3.03815e-05
3.04143e-05
3.04473e-05
3.04803e-05
3.05134e-05
3.05464e-05
3.05792e-05
3.06114e-05
3.06429e-05
3.06733e-05
3.07024e-05
3.07301e-05
3.07561e-05
3.07804e-05
3.0803e-05
3.08238e-05
3.08428e-05
3.086e-05
3.08757e-05
3.089e-05
3.0903e-05
3.0915e-05
3.09261e-05
3.09365e-05
3.09461e-05
3.09551e-05
3.09636e-05
3.09718e-05
3.09796e-05
3.09872e-05
3.09942e-05
3.10005e-05
3.10055e-05
3.10092e-05
3.1011e-05
3.1011e-05
3.10089e-05
3.10047e-05
3.09988e-05
3.09911e-05
3.09822e-05
3.09722e-05
3.09613e-05
3.09498e-05
3.09376e-05
3.09247e-05
3.0911e-05
3.08964e-05
3.08812e-05
3.08654e-05
3.08496e-05
3.08341e-05
3.08193e-05
3.08054e-05
3.07923e-05
3.07798e-05
3.07676e-05
3.07555e-05
3.07435e-05
3.07312e-05
3.07187e-05
3.07059e-05
3.0693e-05
3.06803e-05
3.06679e-05
3.06559e-05
3.06444e-05
3.06333e-05
3.06228e-05
3.06128e-05
3.06035e-05
3.05949e-05
3.05873e-05
3.05808e-05
3.05759e-05
3.05731e-05
3.05728e-05
3.05755e-05
3.0581e-05
3.05895e-05
3.06005e-05
3.06139e-05
3.06292e-05
3.06466e-05
3.06658e-05
3.0687e-05
3.07103e-05
3.07358e-05
3.07636e-05
3.07937e-05
3.08263e-05
3.08614e-05
3.0899e-05
3.09389e-05
3.09813e-05
3.10259e-05
3.10729e-05
3.11225e-05
3.11751e-05
3.12312e-05
3.1291e-05
3.13549e-05
3.1423e-05
3.14951e-05
3.15707e-05
3.16497e-05
3.17316e-05
3.18165e-05
3.19044e-05
3.19953e-05
3.20895e-05
3.21869e-05
3.22877e-05
3.2392e-05
3.24996e-05
3.26107e-05
3.27251e-05
3.28429e-05
3.29641e-05
3.30887e-05
3.32168e-05
3.33485e-05
3.34841e-05