/*--------------------------------*- C++ -*----------------------------------*\
| =========                 |                                                 |
| \\      /  F ield         | OpenFOAM: The Open Source CFD Toolbox           |
|  \\    /   O peration     | Version:  2512                                  |
|   \\  /    A nd           | Website:  www.openfoam.com                      |
|    \\/     M anipulation  |                                                 |
\*---------------------------------------------------------------------------*/
FoamFile
{
    version     2.0;
    format      ascii;
    arch        "LSB;label=32;scalar=64";
    class       volVectorField;
    location    "0.1";
    object      B;
}
// * * * * * * * * * * * * * * * * * * * * * * * * * * * * * * * * * * * * * //

dimensions      [1 0 -2 0 0 -1 0];

internalField   nonuniform List<vector> 
8333
(
(0.000221258 20 2.07752e-20)
(0.000221302 20 2.06491e-20)
(0.00022134 20 2.06921e-20)
(0.000221379 20 2.08156e-20)
(0.000221418 20 2.10015e-20)
(0.000221457 20 2.11699e-20)
(0.000221496 20 2.12909e-20)
(0.000221535 20 2.13839e-20)
(0.000221573 20 2.15243e-20)
(0.000221611 20 2.16457e-20)
(0.000221649 20 2.17795e-20)
(0.000221686 20 2.18865e-20)
(0.000221724 20 2.19772e-20)
(0.000221762 20 2.2106e-20)
(0.000221799 20 2.20908e-20)
(0.000221836 20 2.24967e-20)
(0.000221873 20 2.17262e-20)
(0.00022191 20 2.42522e-20)
(0.000221947 20 1.84887e-20)
(0.000221984 20 3.07322e-20)
(0.00022202 20 1.0949e-20)
(0.000222057 20 3.88802e-20)
(0.000222093 20 1.73205e-21)
(0.00022213 20 2.15749e-21)
(0.000222166 20 1.24361e-21)
(0.000222202 20 3.78689e-21)
(0.000222238 20 9.03481e-21)
(0.000222274 20 1.44052e-20)
(0.000222309 20 1.83395e-20)
(0.000222345 20 2.06397e-20)
(0.00022238 20 2.17638e-20)
(0.000222415 20 2.21964e-20)
(0.00022245 20 2.23923e-20)
(0.000222485 20 2.24217e-20)
(0.000222519 20 2.23755e-20)
(0.000222554 20 2.23191e-20)
(0.000222588 20 2.23082e-20)
(0.000222622 20 2.22878e-20)
(0.000222656 20 2.22498e-20)
(0.00022269 20 2.22312e-20)
(0.000222724 20 2.22905e-20)
(0.000222757 20 2.23347e-20)
(0.00022279 20 2.23242e-20)
(0.000222824 20 2.22745e-20)
(0.000222857 20 2.2245e-20)
(0.00022289 20 2.22136e-20)
(0.000222923 20 2.21463e-20)
(0.000222956 20 2.20342e-20)
(0.000222988 20 2.19155e-20)
(0.000223021 20 2.20009e-20)
(0.000223053 20 2.18527e-20)
(0.000223086 20 2.20928e-20)
(0.000223118 20 2.16261e-20)
(0.00022315 20 2.18214e-20)
(0.000223182 20 2.13078e-20)
(0.000223214 20 2.07093e-20)
(0.000223246 20 2.03406e-20)
(0.000223278 20 2.04136e-20)
(0.000223309 20 2.08192e-20)
(0.000223341 20 2.13474e-20)
(0.000223372 20 2.17179e-20)
(0.000223404 20 2.19084e-20)
(0.000223435 20 2.20767e-20)
(0.000223466 20 2.21466e-20)
(0.000223497 20 2.21572e-20)
(0.000223528 20 2.21776e-20)
(0.000223559 20 2.22481e-20)
(0.00022359 20 2.23313e-20)
(0.000223621 20 2.23845e-20)
(0.000223651 20 2.2424e-20)
(0.000223682 20 2.2437e-20)
(0.000223712 20 2.24132e-20)
(0.000223743 20 2.23882e-20)
(0.000223773 20 2.23305e-20)
(0.000223803 20 2.22839e-20)
(0.000223833 20 2.22821e-20)
(0.000223863 20 2.22299e-20)
(0.000223893 20 2.21669e-20)
(0.000223923 20 2.212e-20)
(0.000223952 20 2.20201e-20)
(0.000223982 20 2.1968e-20)
(0.000224011 20 2.17573e-20)
(0.000224041 20 2.19905e-20)
(0.00022407 20 2.15278e-20)
(0.000224099 20 2.16654e-20)
(0.000224128 20 2.11052e-20)
(0.000224157 20 2.04189e-20)
(0.000224186 20 1.99584e-20)
(0.000224215 20 1.99332e-20)
(0.000224243 20 2.02809e-20)
(0.000224272 20 2.07524e-20)
(0.0002243 20 2.1219e-20)
(0.000224329 20 2.14866e-20)
(0.000224357 20 2.15748e-20)
(0.000224385 20 2.16156e-20)
(0.000224413 20 2.17107e-20)
(0.000224441 20 2.18276e-20)
(0.000224469 20 2.19211e-20)
(0.000224496 20 2.20112e-20)
(0.000224524 20 2.20984e-20)
(0.000224552 20 2.21167e-20)
(0.000224579 20 2.21414e-20)
(0.000224606 20 2.22236e-20)
(0.000224633 20 2.22825e-20)
(0.00022466 20 2.22485e-20)
(0.000224687 20 2.22481e-20)
(0.000224714 20 2.22202e-20)
(0.000224741 20 2.22044e-20)
(0.000224768 20 2.22493e-20)
(0.000224794 20 2.23183e-20)
(0.00022482 20 2.23564e-20)
(0.000224847 20 2.23614e-20)
(0.000224873 20 2.23533e-20)
(0.000224899 20 2.23648e-20)
(0.000224925 20 2.23534e-20)
(0.000224951 20 2.23203e-20)
(0.000224976 20 2.23025e-20)
(0.000225002 20 2.23135e-20)
(0.000225028 20 2.23308e-20)
(0.000225053 20 2.2313e-20)
(0.000225078 20 2.23193e-20)
(0.000225103 20 2.23058e-20)
(0.000225128 20 2.23303e-20)
(0.000225153 20 2.23467e-20)
(0.000225178 20 2.22311e-20)
(0.000225203 20 2.22833e-20)
(0.000225227 20 2.20344e-20)
(0.000225252 20 2.29181e-20)
(0.000225276 20 2.10781e-20)
(0.000225301 20 2.50974e-20)
(0.000225325 20 1.96554e-20)
(0.000225349 20 2.53477e-20)
(0.000225372 20 2.07805e-20)
(0.000225396 20 1.7897e-20)
(0.00022542 20 1.65131e-20)
(0.000225443 20 1.72329e-20)
(0.000225467 20 1.91377e-20)
(0.00022549 20 2.09199e-20)
(0.000225513 20 2.19932e-20)
(0.000225536 20 2.24393e-20)
(0.000225559 20 2.25588e-20)
(0.000225582 20 2.24891e-20)
(0.000225605 20 2.24483e-20)
(0.000225627 20 2.23596e-20)
(0.00022565 20 2.22994e-20)
(0.000225672 20 2.23161e-20)
(0.000225694 20 2.2341e-20)
(0.000225716 20 2.23311e-20)
(0.000225738 20 2.2356e-20)
(0.00022576 20 2.23791e-20)
(0.000225782 20 2.23576e-20)
(0.000225803 20 2.24136e-20)
(0.000225825 20 2.24647e-20)
(0.000225846 20 2.25142e-20)
(0.000225867 20 2.25501e-20)
(0.000225888 20 2.25276e-20)
(0.000225909 20 2.25101e-20)
(0.00022593 20 2.24956e-20)
(0.00022595 20 2.24946e-20)
(0.000225971 20 2.25024e-20)
(0.000225991 20 2.25277e-20)
(0.000226012 20 2.24948e-20)
(0.000226032 20 2.2468e-20)
(0.000226052 20 2.24665e-20)
(0.000226072 20 2.24648e-20)
(0.000226092 20 2.2477e-20)
(0.000226111 20 2.24983e-20)
(0.000226131 20 2.25257e-20)
(0.00022615 20 2.25725e-20)
(0.000226169 20 2.26112e-20)
(0.000226188 20 2.26325e-20)
(0.000226207 20 2.26353e-20)
(0.000226226 20 2.26153e-20)
(0.000226245 20 2.26291e-20)
(0.000226264 20 2.26527e-20)
(0.000226282 20 2.2688e-20)
(0.0002263 20 2.26552e-20)
(0.000226319 20 2.26106e-20)
(0.000226337 20 2.25807e-20)
(0.000226355 20 2.25761e-20)
(0.000226373 20 2.25834e-20)
(0.00022639 20 2.25362e-20)
(0.000226408 20 2.25862e-20)
(0.000226424 20 2.26711e-20)
(0.000226445 20 2.26912e-20)
(0.000421335 20 6.13839e-20)
(0.000421303 20 6.1537e-20)
(0.000421262 20 6.19092e-20)
(0.000421218 20 6.24719e-20)
(0.000421175 20 6.2977e-20)
(0.000421134 20 6.33342e-20)
(0.000421095 20 6.36009e-20)
(0.000421056 20 6.40264e-20)
(0.000421017 20 6.43846e-20)
(0.000420979 20 6.47877e-20)
(0.00042094 20 6.5102e-20)
(0.000420902 20 6.53695e-20)
(0.000420864 20 6.57494e-20)
(0.000420826 20 6.57486e-20)
(0.000420788 20 6.67182e-20)
(0.00042075 20 6.53628e-20)
(0.000420712 20 6.98229e-20)
(0.000420674 20 6.12022e-20)
(0.000420636 20 7.73155e-20)
(0.000420598 20 5.92271e-20)
(0.00042056 20 7.20271e-20)
(0.000420522 20 9.07952e-20)
(0.000420484 20 6.86599e-20)
(0.000420446 20 4.77304e-20)
(0.000420407 20 3.87158e-20)
(0.000420369 20 4.14526e-20)
(0.000420331 20 4.95197e-20)
(0.000420293 20 5.72437e-20)
(0.000420254 20 6.23747e-20)
(0.000420216 20 6.50715e-20)
(0.000420177 20 6.61187e-20)
(0.000420138 20 6.66404e-20)
(0.000420099 20 6.67038e-20)
(0.00042006 20 6.65561e-20)
(0.000420021 20 6.63805e-20)
(0.000419982 20 6.63542e-20)
(0.000419943 20 6.62949e-20)
(0.000419903 20 6.6178e-20)
(0.000419864 20 6.61156e-20)
(0.000419824 20 6.63025e-20)
(0.000419784 20 6.64408e-20)
(0.000419745 20 6.64088e-20)
(0.000419705 20 6.62524e-20)
(0.000419665 20 6.61676e-20)
(0.000419625 20 6.60797e-20)
(0.000419585 20 6.58809e-20)
(0.000419545 20 6.55422e-20)
(0.000419505 20 6.51625e-20)
(0.000419465 20 6.54684e-20)
(0.000419425 20 6.49557e-20)
(0.000419385 20 6.57986e-20)
(0.000419345 20 6.42469e-20)
(0.000419304 20 6.49947e-20)
(0.000419264 20 6.33731e-20)
(0.000419224 20 6.15626e-20)
(0.000419183 20 6.0454e-20)
(0.000419143 20 6.06899e-20)
(0.000419102 20 6.19205e-20)
(0.000419061 20 6.35233e-20)
(0.000419021 20 6.46262e-20)
(0.00041898 20 6.5171e-20)
(0.000418939 20 6.56802e-20)
(0.000418898 20 6.5883e-20)
(0.000418857 20 6.59055e-20)
(0.000418816 20 6.59604e-20)
(0.000418774 20 6.61746e-20)
(0.000418733 20 6.64283e-20)
(0.000418692 20 6.65846e-20)
(0.00041865 20 6.67045e-20)
(0.000418609 20 6.67446e-20)
(0.000418567 20 6.6669e-20)
(0.000418525 20 6.65973e-20)
(0.000418483 20 6.64199e-20)
(0.000418442 20 6.62764e-20)
(0.0004184 20 6.62835e-20)
(0.000418357 20 6.61241e-20)
(0.000418315 20 6.59346e-20)
(0.000418273 20 6.58038e-20)
(0.000418231 20 6.5496e-20)
(0.000418188 20 6.53639e-20)
(0.000418146 20 6.46658e-20)
(0.000418103 20 6.54927e-20)
(0.00041806 20 6.39616e-20)
(0.000418017 20 6.45277e-20)
(0.000417974 20 6.27739e-20)
(0.000417931 20 6.06993e-20)
(0.000417888 20 5.93187e-20)
(0.000417845 20 5.92557e-20)
(0.000417802 20 6.03167e-20)
(0.000417758 20 6.17314e-20)
(0.000417715 20 6.31404e-20)
(0.000417671 20 6.3934e-20)
(0.000417627 20 6.41794e-20)
(0.000417583 20 6.42875e-20)
(0.000417539 20 6.45758e-20)
(0.000417495 20 6.49306e-20)
(0.000417451 20 6.52054e-20)
(0.000417407 20 6.54728e-20)
(0.000417363 20 6.57401e-20)
(0.000417318 20 6.57851e-20)
(0.000417274 20 6.58515e-20)
(0.000417229 20 6.6106e-20)
(0.000417184 20 6.62913e-20)
(0.000417139 20 6.61746e-20)
(0.000417094 20 6.61814e-20)
(0.000417049 20 6.60943e-20)
(0.000417004 20 6.60396e-20)
(0.000416959 20 6.61764e-20)
(0.000416913 20 6.63899e-20)
(0.000416868 20 6.65033e-20)
(0.000416822 20 6.65159e-20)
(0.000416776 20 6.64876e-20)
(0.000416731 20 6.65268e-20)
(0.000416685 20 6.64931e-20)
(0.000416639 20 6.63903e-20)
(0.000416592 20 6.63363e-20)
(0.000416546 20 6.63716e-20)
(0.0004165 20 6.64283e-20)
(0.000416453 20 6.63675e-20)
(0.000416407 20 6.63912e-20)
(0.00041636 20 6.63447e-20)
(0.000416313 20 6.64242e-20)
(0.000416266 20 6.64818e-20)
(0.000416219 20 6.61247e-20)
(0.000416172 20 6.62475e-20)
(0.000416125 20 6.56271e-20)
(0.000416077 20 6.78895e-20)
(0.00041603 20 6.33664e-20)
(0.000415982 20 7.3381e-20)
(0.000415934 20 6.00184e-20)
(0.000415886 20 7.51843e-20)
(0.000415838 20 6.0076e-20)
(0.00041579 20 5.47576e-20)
(0.000415742 20 5.26743e-20)
(0.000415694 20 5.47192e-20)
(0.000415645 20 5.9268e-20)
(0.000415597 20 6.34798e-20)
(0.000415548 20 6.59778e-20)
(0.000415499 20 6.69561e-20)
(0.00041545 20 6.71776e-20)
(0.000415401 20 6.69055e-20)
(0.000415352 20 6.67831e-20)
(0.000415303 20 6.65065e-20)
(0.000415253 20 6.63204e-20)
(0.000415204 20 6.63784e-20)
(0.000415154 20 6.64586e-20)
(0.000415104 20 6.64197e-20)
(0.000415054 20 6.64976e-20)
(0.000415004 20 6.65716e-20)
(0.000414954 20 6.6492e-20)
(0.000414904 20 6.66689e-20)
(0.000414854 20 6.68212e-20)
(0.000414803 20 6.697e-20)
(0.000414753 20 6.70818e-20)
(0.000414702 20 6.70068e-20)
(0.000414651 20 6.69554e-20)
(0.0004146 20 6.69106e-20)
(0.000414549 20 6.69085e-20)
(0.000414498 20 6.69301e-20)
(0.000414446 20 6.70171e-20)
(0.000414395 20 6.69109e-20)
(0.000414343 20 6.68285e-20)
(0.000414291 20 6.68272e-20)
(0.000414239 20 6.68207e-20)
(0.000414187 20 6.68575e-20)
(0.000414135 20 6.69199e-20)
(0.000414083 20 6.69984e-20)
(0.00041403 20 6.71412e-20)
(0.000413978 20 6.72575e-20)
(0.000413925 20 6.73214e-20)
(0.000413872 20 6.73309e-20)
(0.000413819 20 6.7265e-20)
(0.000413766 20 6.73098e-20)
(0.000413713 20 6.73802e-20)
(0.00041366 20 6.7496e-20)
(0.000413606 20 6.73904e-20)
(0.000413553 20 6.72536e-20)
(0.000413499 20 6.71632e-20)
(0.000413445 20 6.71512e-20)
(0.000413391 20 6.71815e-20)
(0.000413336 20 6.70223e-20)
(0.000413283 20 6.71779e-20)
(0.000413228 20 6.74429e-20)
(0.000413174 20 6.75034e-20)
(0.000489768 20 1.02126e-19)
(0.000489691 20 1.02757e-19)
(0.000489609 20 1.03726e-19)
(0.000489522 20 1.04578e-19)
(0.000489435 20 1.05163e-19)
(0.000489351 20 1.05572e-19)
(0.000489268 20 1.06308e-19)
(0.000489185 20 1.0689e-19)
(0.000489102 20 1.0758e-19)
(0.00048902 20 1.08091e-19)
(0.000488938 20 1.08523e-19)
(0.000488856 20 1.09169e-19)
(0.000488774 20 1.09186e-19)
(0.000488693 20 1.10551e-19)
(0.000488611 20 1.09312e-19)
(0.00048853 20 1.13671e-19)
(0.000488449 20 1.06921e-19)
(0.000488368 20 1.17932e-19)
(0.000488287 20 1.14284e-19)
(0.000488206 20 1.00272e-19)
(0.000488126 20 1.6218e-19)
(0.000488045 20 1.36605e-19)
(0.000487964 20 1.04625e-19)
(0.000487883 20 8.53721e-20)
(0.000487802 20 8.27687e-20)
(0.000487722 20 8.99387e-20)
(0.000487641 20 9.87691e-20)
(0.00048756 20 1.05174e-19)
(0.000487479 20 1.08691e-19)
(0.000487397 20 1.09979e-19)
(0.000487316 20 1.10739e-19)
(0.000487235 20 1.1078e-19)
(0.000487153 20 1.10505e-19)
(0.000487072 20 1.10189e-19)
(0.00048699 20 1.10168e-19)
(0.000486908 20 1.10072e-19)
(0.000486826 20 1.09863e-19)
(0.000486744 20 1.09737e-19)
(0.000486662 20 1.10084e-19)
(0.00048658 20 1.10331e-19)
(0.000486498 20 1.10274e-19)
(0.000486415 20 1.09985e-19)
(0.000486333 20 1.09854e-19)
(0.000486251 20 1.09725e-19)
(0.000486169 20 1.09399e-19)
(0.000486086 20 1.08821e-19)
(0.000486004 20 1.08098e-19)
(0.000485922 20 1.08794e-19)
(0.00048584 20 1.07674e-19)
(0.000485757 20 1.09549e-19)
(0.000485675 20 1.06357e-19)
(0.000485593 20 1.08253e-19)
(0.00048551 20 1.05202e-19)
(0.000485428 20 1.02073e-19)
(0.000485346 20 1.00183e-19)
(0.000485263 20 1.00652e-19)
(0.000485181 20 1.02787e-19)
(0.000485098 20 1.0556e-19)
(0.000485015 20 1.07389e-19)
(0.000484933 20 1.08214e-19)
(0.00048485 20 1.09092e-19)
(0.000484767 20 1.09409e-19)
(0.000484684 20 1.09416e-19)
(0.000484601 20 1.09489e-19)
(0.000484518 20 1.09861e-19)
(0.000484435 20 1.10303e-19)
(0.000484352 20 1.10554e-19)
(0.000484269 20 1.10761e-19)
(0.000484185 20 1.10833e-19)
(0.000484102 20 1.10691e-19)
(0.000484018 20 1.10583e-19)
(0.000483935 20 1.1027e-19)
(0.000483851 20 1.10015e-19)
(0.000483767 20 1.10069e-19)
(0.000483684 20 1.09787e-19)
(0.0004836 20 1.09462e-19)
(0.000483516 20 1.09274e-19)
(0.000483432 20 1.08723e-19)
(0.000483348 20 1.08589e-19)
(0.000483263 20 1.07172e-19)
(0.000483179 20 1.09037e-19)
(0.000483095 20 1.05912e-19)
(0.00048301 20 1.07469e-19)
(0.000482925 20 1.04221e-19)
(0.000482841 20 1.00638e-19)
(0.000482756 20 9.83018e-20)
(0.000482671 20 9.82529e-20)
(0.000482586 20 1.00121e-19)
(0.000482501 20 1.02513e-19)
(0.000482416 20 1.04923e-19)
(0.000482331 20 1.06225e-19)
(0.000482245 20 1.06572e-19)
(0.00048216 20 1.06705e-19)
(0.000482074 20 1.07202e-19)
(0.000481989 20 1.07816e-19)
(0.000481903 20 1.0826e-19)
(0.000481817 20 1.08702e-19)
(0.000481731 20 1.09175e-19)
(0.000481645 20 1.09216e-19)
(0.000481559 20 1.09303e-19)
(0.000481472 20 1.09761e-19)
(0.000481386 20 1.10102e-19)
(0.0004813 20 1.0985e-19)
(0.000481213 20 1.09893e-19)
(0.000481126 20 1.09733e-19)
(0.00048104 20 1.09619e-19)
(0.000480953 20 1.0986e-19)
(0.000480866 20 1.10241e-19)
(0.000480779 20 1.10428e-19)
(0.000480691 20 1.10441e-19)
(0.000480604 20 1.10379e-19)
(0.000480517 20 1.10463e-19)
(0.000480429 20 1.10405e-19)
(0.000480342 20 1.10218e-19)
(0.000480254 20 1.10125e-19)
(0.000480166 20 1.10194e-19)
(0.000480078 20 1.10306e-19)
(0.00047999 20 1.10177e-19)
(0.000479902 20 1.10236e-19)
(0.000479814 20 1.10134e-19)
(0.000479725 20 1.10291e-19)
(0.000479637 20 1.10417e-19)
(0.000479548 20 1.0978e-19)
(0.000479459 20 1.09869e-19)
(0.000479371 20 1.09232e-19)
(0.000479282 20 1.1191e-19)
(0.000479193 20 1.06945e-19)
(0.000479103 20 1.18718e-19)
(0.000479014 20 1.03457e-19)
(0.000478925 20 1.23624e-19)
(0.000478835 20 9.80826e-20)
(0.000478746 20 9.65849e-20)
(0.000478656 20 9.67697e-20)
(0.000478566 20 9.96492e-20)
(0.000478476 20 1.04541e-19)
(0.000478386 20 1.0883e-19)
(0.000478296 20 1.11142e-19)
(0.000478206 20 1.11788e-19)
(0.000478115 20 1.11769e-19)
(0.000478025 20 1.1111e-19)
(0.000477934 20 1.10912e-19)
(0.000477843 20 1.10409e-19)
(0.000477752 20 1.10078e-19)
(0.000477661 20 1.10204e-19)
(0.00047757 20 1.10358e-19)
(0.000477479 20 1.10259e-19)
(0.000477387 20 1.10404e-19)
(0.000477296 20 1.10547e-19)
(0.000477204 20 1.10359e-19)
(0.000477113 20 1.10691e-19)
(0.000477021 20 1.10942e-19)
(0.000476929 20 1.11194e-19)
(0.000476837 20 1.11399e-19)
(0.000476744 20 1.11244e-19)
(0.000476652 20 1.11162e-19)
(0.00047656 20 1.11083e-19)
(0.000476467 20 1.11084e-19)
(0.000476374 20 1.11111e-19)
(0.000476282 20 1.11295e-19)
(0.000476189 20 1.11089e-19)
(0.000476095 20 1.10944e-19)
(0.000476002 20 1.10952e-19)
(0.000475909 20 1.10936e-19)
(0.000475815 20 1.11001e-19)
(0.000475722 20 1.11105e-19)
(0.000475628 20 1.11225e-19)
(0.000475534 20 1.11476e-19)
(0.00047544 20 1.11671e-19)
(0.000475346 20 1.11778e-19)
(0.000475252 20 1.11796e-19)
(0.000475157 20 1.11662e-19)
(0.000475063 20 1.1175e-19)
(0.000474968 20 1.11865e-19)
(0.000474873 20 1.12096e-19)
(0.000474778 20 1.11893e-19)
(0.000474683 20 1.11653e-19)
(0.000474588 20 1.11499e-19)
(0.000474492 20 1.11485e-19)
(0.000474397 20 1.11566e-19)
(0.000474301 20 1.11235e-19)
(0.000474205 20 1.1152e-19)
(0.00047411 20 1.12001e-19)
(0.000474013 20 1.12102e-19)
(0.000502626 20 1.43042e-19)
(0.000502536 20 1.44463e-19)
(0.000502436 20 1.4568e-19)
(0.000502336 20 1.46484e-19)
(0.000502238 20 1.46973e-19)
(0.00050214 20 1.4807e-19)
(0.000502042 20 1.48854e-19)
(0.000501944 20 1.4987e-19)
(0.000501847 20 1.50558e-19)
(0.00050175 20 1.51114e-19)
(0.000501654 20 1.52098e-19)
(0.000501558 20 1.51998e-19)
(0.000501462 20 1.53971e-19)
(0.000501366 20 1.52376e-19)
(0.000501271 20 1.58162e-19)
(0.000501175 20 1.48519e-19)
(0.00050108 20 1.66823e-19)
(0.000500985 20 1.50132e-19)
(0.00050089 20 1.60024e-19)
(0.000500795 20 1.73204e-19)
(0.0005007 20 1.5686e-19)
(0.000500605 20 1.32745e-19)
(0.00050051 20 1.18343e-19)
(0.000500415 20 1.19422e-19)
(0.00050032 20 1.29603e-19)
(0.000500225 20 1.40569e-19)
(0.00050013 20 1.48154e-19)
(0.000500035 20 1.52222e-19)
(0.00049994 20 1.53451e-19)
(0.000499844 20 1.54418e-19)
(0.000499748 20 1.54357e-19)
(0.000499652 20 1.53927e-19)
(0.000499556 20 1.53431e-19)
(0.00049946 20 1.53454e-19)
(0.000499364 20 1.53319e-19)
(0.000499267 20 1.53e-19)
(0.000499171 20 1.52776e-19)
(0.000499074 20 1.53334e-19)
(0.000498977 20 1.53713e-19)
(0.00049888 20 1.53633e-19)
(0.000498783 20 1.53159e-19)
(0.000498686 20 1.52997e-19)
(0.00049859 20 1.52858e-19)
(0.000498493 20 1.52414e-19)
(0.000498396 20 1.51576e-19)
(0.000498299 20 1.50358e-19)
(0.000498202 20 1.51752e-19)
(0.000498105 20 1.49575e-19)
(0.000498008 20 1.53279e-19)
(0.000497911 20 1.47359e-19)
(0.000497815 20 1.5166e-19)
(0.000497718 20 1.46405e-19)
(0.000497621 20 1.41823e-19)
(0.000497524 20 1.39157e-19)
(0.000497427 20 1.40032e-19)
(0.00049733 20 1.43194e-19)
(0.000497233 20 1.47282e-19)
(0.000497136 20 1.49801e-19)
(0.000497039 20 1.50748e-19)
(0.000496941 20 1.52049e-19)
(0.000496844 20 1.52438e-19)
(0.000496747 20 1.52385e-19)
(0.000496649 20 1.52444e-19)
(0.000496552 20 1.53001e-19)
(0.000496455 20 1.53665e-19)
(0.000496357 20 1.5399e-19)
(0.000496259 20 1.543e-19)
(0.000496162 20 1.54414e-19)
(0.000496064 20 1.54184e-19)
(0.000495966 20 1.54053e-19)
(0.000495868 20 1.53576e-19)
(0.00049577 20 1.5318e-19)
(0.000495672 20 1.53356e-19)
(0.000495574 20 1.52916e-19)
(0.000495476 20 1.52444e-19)
(0.000495378 20 1.52247e-19)
(0.000495279 20 1.51393e-19)
(0.000495181 20 1.51395e-19)
(0.000495082 20 1.48835e-19)
(0.000494984 20 1.52561e-19)
(0.000494885 20 1.46805e-19)
(0.000494786 20 1.50541e-19)
(0.000494687 20 1.45062e-19)
(0.000494588 20 1.39812e-19)
(0.000494489 20 1.36546e-19)
(0.00049439 20 1.36648e-19)
(0.000494291 20 1.39476e-19)
(0.000494192 20 1.4287e-19)
(0.000494092 20 1.46353e-19)
(0.000493993 20 1.48115e-19)
(0.000493893 20 1.4846e-19)
(0.000493793 20 1.48539e-19)
(0.000493693 20 1.49278e-19)
(0.000493594 20 1.50197e-19)
(0.000493494 20 1.50782e-19)
(0.000493394 20 1.51389e-19)
(0.000493293 20 1.52115e-19)
(0.000493193 20 1.52096e-19)
(0.000493093 20 1.52167e-19)
(0.000492992 20 1.52886e-19)
(0.000492892 20 1.53442e-19)
(0.000492791 20 1.52951e-19)
(0.00049269 20 1.53092e-19)
(0.000492589 20 1.52841e-19)
(0.000492488 20 1.52631e-19)
(0.000492387 20 1.52991e-19)
(0.000492286 20 1.5359e-19)
(0.000492185 20 1.53841e-19)
(0.000492083 20 1.53843e-19)
(0.000491982 20 1.53719e-19)
(0.00049188 20 1.5388e-19)
(0.000491779 20 1.53794e-19)
(0.000491677 20 1.53496e-19)
(0.000491575 20 1.53362e-19)
(0.000491473 20 1.53485e-19)
(0.000491371 20 1.53682e-19)
(0.000491269 20 1.5343e-19)
(0.000491166 20 1.53557e-19)
(0.000491064 20 1.53359e-19)
(0.000490961 20 1.53636e-19)
(0.000490859 20 1.53878e-19)
(0.000490756 20 1.52886e-19)
(0.000490653 20 1.52763e-19)
(0.00049055 20 1.52735e-19)
(0.000490447 20 1.54168e-19)
(0.000490344 20 1.52662e-19)
(0.00049024 20 1.5825e-19)
(0.000490137 20 1.54999e-19)
(0.000490034 20 1.5959e-19)
(0.00048993 20 1.58319e-19)
(0.000489826 20 1.57479e-19)
(0.000489722 20 1.56329e-19)
(0.000489618 20 1.55856e-19)
(0.000489514 20 1.56797e-19)
(0.00048941 20 1.57719e-19)
(0.000489306 20 1.57647e-19)
(0.000489201 20 1.56801e-19)
(0.000489097 20 1.56109e-19)
(0.000488992 20 1.54789e-19)
(0.000488887 20 1.54561e-19)
(0.000488782 20 1.5376e-19)
(0.000488677 20 1.5325e-19)
(0.000488572 20 1.53494e-19)
(0.000488467 20 1.53757e-19)
(0.000488362 20 1.53535e-19)
(0.000488256 20 1.53775e-19)
(0.000488151 20 1.5402e-19)
(0.000488045 20 1.53628e-19)
(0.000487939 20 1.54183e-19)
(0.000487833 20 1.54525e-19)
(0.000487727 20 1.54885e-19)
(0.000487621 20 1.55215e-19)
(0.000487515 20 1.54924e-19)
(0.000487408 20 1.54828e-19)
(0.000487302 20 1.54706e-19)
(0.000487195 20 1.54724e-19)
(0.000487088 20 1.54728e-19)
(0.000486981 20 1.55088e-19)
(0.000486874 20 1.54726e-19)
(0.000486767 20 1.54509e-19)
(0.00048666 20 1.54542e-19)
(0.000486552 20 1.54509e-19)
(0.000486445 20 1.5461e-19)
(0.000486337 20 1.54757e-19)
(0.000486229 20 1.54891e-19)
(0.000486121 20 1.55276e-19)
(0.000486013 20 1.5555e-19)
(0.000485905 20 1.557e-19)
(0.000485797 20 1.55733e-19)
(0.000485688 20 1.55491e-19)
(0.00048558 20 1.55649e-19)
(0.000485471 20 1.55801e-19)
(0.000485362 20 1.56218e-19)
(0.000485253 20 1.55865e-19)
(0.000485144 20 1.55503e-19)
(0.000485034 20 1.55281e-19)
(0.000484925 20 1.55275e-19)
(0.000484815 20 1.55463e-19)
(0.000484706 20 1.54844e-19)
(0.000484595 20 1.55305e-19)
(0.000484486 20 1.56062e-19)
(0.000484374 20 1.56205e-19)
(0.000497563 20 1.80932e-19)
(0.000497466 20 1.8284e-19)
(0.000497367 20 1.84443e-19)
(0.000497265 20 1.85461e-19)
(0.000497165 20 1.85942e-19)
(0.000497065 20 1.87463e-19)
(0.000496965 20 1.88428e-19)
(0.000496866 20 1.8985e-19)
(0.000496766 20 1.90669e-19)
(0.000496668 20 1.91246e-19)
(0.00049657 20 1.92692e-19)
(0.000496471 20 1.92317e-19)
(0.000496374 20 1.95027e-19)
(0.000496276 20 1.93062e-19)
(0.000496179 20 2.00397e-19)
(0.000496081 20 1.8711e-19)
(0.000495984 20 2.14742e-19)
(0.000495887 20 1.80835e-19)
(0.000495791 20 2.20509e-19)
(0.000495694 20 1.80591e-19)
(0.000495597 20 1.71388e-19)
(0.000495501 20 1.57268e-19)
(0.000495404 20 1.50482e-19)
(0.000495307 20 1.56653e-19)
(0.00049521 20 1.69727e-19)
(0.000495113 20 1.82032e-19)
(0.000495016 20 1.89937e-19)
(0.000494919 20 1.94016e-19)
(0.000494822 20 1.94747e-19)
(0.000494724 20 1.95884e-19)
(0.000494626 20 1.9557e-19)
(0.000494528 20 1.94984e-19)
(0.00049443 20 1.94254e-19)
(0.000494332 20 1.94372e-19)
(0.000494233 20 1.94176e-19)
(0.000494134 20 1.93727e-19)
(0.000494035 20 1.93385e-19)
(0.000493935 20 1.94196e-19)
(0.000493836 20 1.94725e-19)
(0.000493737 20 1.94653e-19)
(0.000493637 20 1.93902e-19)
(0.000493537 20 1.93728e-19)
(0.000493438 20 1.93632e-19)
(0.000493338 20 1.93095e-19)
(0.000493239 20 1.91968e-19)
(0.000493139 20 1.90062e-19)
(0.00049304 20 1.92526e-19)
(0.00049294 20 1.88755e-19)
(0.00049284 20 1.95265e-19)
(0.000492741 20 1.85092e-19)
(0.000492641 20 1.93981e-19)
(0.000492542 20 1.84729e-19)
(0.000492442 20 1.78814e-19)
(0.000492343 20 1.75774e-19)
(0.000492243 20 1.77476e-19)
(0.000492143 20 1.8175e-19)
(0.000492044 20 1.87213e-19)
(0.000491944 20 1.90237e-19)
(0.000491844 20 1.90981e-19)
(0.000491744 20 1.9276e-19)
(0.000491645 20 1.93131e-19)
(0.000491545 20 1.92959e-19)
(0.000491445 20 1.92956e-19)
(0.000491345 20 1.9373e-19)
(0.000491245 20 1.94682e-19)
(0.000491145 20 1.95033e-19)
(0.000491045 20 1.95479e-19)
(0.000490944 20 1.95655e-19)
(0.000490844 20 1.95317e-19)
(0.000490744 20 1.95162e-19)
(0.000490643 20 1.94486e-19)
(0.000490543 20 1.93895e-19)
(0.000490442 20 1.94301e-19)
(0.000490342 20 1.93644e-19)
(0.000490241 20 1.93043e-19)
(0.00049014 20 1.92888e-19)
(0.000490039 20 1.91683e-19)
(0.000489938 20 1.91953e-19)
(0.000489837 20 1.87768e-19)
(0.000489736 20 1.94354e-19)
(0.000489635 20 1.8451e-19)
(0.000489534 20 1.92492e-19)
(0.000489433 20 1.83036e-19)
(0.000489331 20 1.76223e-19)
(0.00048923 20 1.72484e-19)
(0.000489128 20 1.73101e-19)
(0.000489026 20 1.77005e-19)
(0.000488925 20 1.81276e-19)
(0.000488823 20 1.85768e-19)
(0.000488721 20 1.87841e-19)
(0.000488619 20 1.88007e-19)
(0.000488517 20 1.87906e-19)
(0.000488415 20 1.88945e-19)
(0.000488312 20 1.9026e-19)
(0.00048821 20 1.90918e-19)
(0.000488107 20 1.91657e-19)
(0.000488005 20 1.92702e-19)
(0.000487902 20 1.92548e-19)
(0.000487799 20 1.92552e-19)
(0.000487697 20 1.93603e-19)
(0.000487594 20 1.94469e-19)
(0.00048749 20 1.93583e-19)
(0.000487387 20 1.93938e-19)
(0.000487284 20 1.93597e-19)
(0.000487181 20 1.93244e-19)
(0.000487077 20 1.93715e-19)
(0.000486974 20 1.94621e-19)
(0.00048687 20 1.94902e-19)
(0.000486766 20 1.94879e-19)
(0.000486662 20 1.94651e-19)
(0.000486559 20 1.94936e-19)
(0.000486454 20 1.94806e-19)
(0.00048635 20 1.94373e-19)
(0.000486246 20 1.9421e-19)
(0.000486142 20 1.94417e-19)
(0.000486037 20 1.94734e-19)
(0.000485933 20 1.94267e-19)
(0.000485828 20 1.94503e-19)
(0.000485723 20 1.94159e-19)
(0.000485618 20 1.94608e-19)
(0.000485513 20 1.95042e-19)
(0.000485408 20 1.935e-19)
(0.000485303 20 1.93208e-19)
(0.000485198 20 1.93839e-19)
(0.000485092 20 1.94032e-19)
(0.000484987 20 1.95753e-19)
(0.000484881 20 1.95802e-19)
(0.000484775 20 2.03332e-19)
(0.00048467 20 1.94525e-19)
(0.000484564 20 2.1545e-19)
(0.000484458 20 2.15351e-19)
(0.000484351 20 2.13642e-19)
(0.000484245 20 2.10353e-19)
(0.000484139 20 2.07598e-19)
(0.000484032 20 2.04991e-19)
(0.000483926 20 2.02203e-19)
(0.000483819 20 1.99576e-19)
(0.000483712 20 1.98181e-19)
(0.000483605 20 1.95999e-19)
(0.000483498 20 1.95902e-19)
(0.000483391 20 1.94702e-19)
(0.000483284 20 1.93976e-19)
(0.000483176 20 1.94407e-19)
(0.000483069 20 1.94842e-19)
(0.000482961 20 1.94379e-19)
(0.000482853 20 1.94758e-19)
(0.000482745 20 1.95148e-19)
(0.000482638 20 1.94414e-19)
(0.000482529 20 1.95298e-19)
(0.000482421 20 1.95713e-19)
(0.000482313 20 1.96183e-19)
(0.000482204 20 1.9668e-19)
(0.000482096 20 1.96141e-19)
(0.000481987 20 1.96091e-19)
(0.000481878 20 1.95916e-19)
(0.000481769 20 1.95984e-19)
(0.00048166 20 1.95886e-19)
(0.000481551 20 1.96577e-19)
(0.000481442 20 1.95968e-19)
(0.000481333 20 1.95674e-19)
(0.000481223 20 1.95756e-19)
(0.000481113 20 1.95692e-19)
(0.000481003 20 1.95849e-19)
(0.000480894 20 1.96034e-19)
(0.000480783 20 1.96112e-19)
(0.000480673 20 1.96684e-19)
(0.000480563 20 1.97021e-19)
(0.000480452 20 1.97212e-19)
(0.000480342 20 1.97272e-19)
(0.000480231 20 1.9688e-19)
(0.00048012 20 1.97153e-19)
(0.000480009 20 1.97324e-19)
(0.000479898 20 1.98052e-19)
(0.000479786 20 1.97446e-19)
(0.000479675 20 1.96927e-19)
(0.000479563 20 1.9665e-19)
(0.000479452 20 1.96666e-19)
(0.00047934 20 1.97045e-19)
(0.000479228 20 1.95981e-19)
(0.000479115 20 1.9669e-19)
(0.000479003 20 1.97775e-19)
(0.00047889 20 1.97979e-19)
(0.000487709 20 2.11802e-19)
(0.000487611 20 2.13795e-19)
(0.000487512 20 2.15045e-19)
(0.000487413 20 2.15463e-19)
(0.000487314 20 2.17412e-19)
(0.000487216 20 2.18569e-19)
(0.000487118 20 2.20557e-19)
(0.000487021 20 2.21418e-19)
(0.000486924 20 2.21759e-19)
(0.000486828 20 2.23841e-19)
(0.000486732 20 2.2319e-19)
(0.000486636 20 2.26299e-19)
(0.00048654 20 2.25267e-19)
(0.000486445 20 2.30973e-19)
(0.00048635 20 2.21352e-19)
(0.000486254 20 2.43187e-19)
(0.00048616 20 2.18677e-19)
(0.000486065 20 2.47412e-19)
(0.00048597 20 2.25573e-19)
(0.000485875 20 2.15208e-19)
(0.000485781 20 2.02926e-19)
(0.000485686 20 1.9589e-19)
(0.000485591 20 1.99428e-19)
(0.000485496 20 2.09041e-19)
(0.000485401 20 2.1849e-19)
(0.000485306 20 2.24308e-19)
(0.000485211 20 2.27322e-19)
(0.000485115 20 2.26964e-19)
(0.000485019 20 2.28143e-19)
(0.000484923 20 2.27296e-19)
(0.000484827 20 2.26658e-19)
(0.00048473 20 2.25639e-19)
(0.000484633 20 2.25892e-19)
(0.000484535 20 2.25544e-19)
(0.000484438 20 2.24975e-19)
(0.00048434 20 2.24582e-19)
(0.000484242 20 2.25572e-19)
(0.000484143 20 2.26233e-19)
(0.000484045 20 2.26287e-19)
(0.000483946 20 2.25144e-19)
(0.000483848 20 2.24944e-19)
(0.000483749 20 2.24954e-19)
(0.000483651 20 2.24396e-19)
(0.000483552 20 2.22931e-19)
(0.000483453 20 2.20294e-19)
(0.000483355 20 2.23832e-19)
(0.000483256 20 2.186e-19)
(0.000483157 20 2.27795e-19)
(0.000483059 20 2.12921e-19)
(0.00048296 20 2.28723e-19)
(0.000482862 20 2.12064e-19)
(0.000482763 20 2.06396e-19)
(0.000482664 20 2.04634e-19)
(0.000482566 20 2.07905e-19)
(0.000482467 20 2.12925e-19)
(0.000482368 20 2.19255e-19)
(0.00048227 20 2.22156e-19)
(0.000482171 20 2.22096e-19)
(0.000482072 20 2.24274e-19)
(0.000481973 20 2.24442e-19)
(0.000481875 20 2.24101e-19)
(0.000481776 20 2.23996e-19)
(0.000481677 20 2.24974e-19)
(0.000481578 20 2.26328e-19)
(0.000481479 20 2.26591e-19)
(0.00048138 20 2.2722e-19)
(0.000481281 20 2.27472e-19)
(0.000481181 20 2.27091e-19)
(0.000481082 20 2.2684e-19)
(0.000480983 20 2.25931e-19)
(0.000480883 20 2.2508e-19)
(0.000480784 20 2.25803e-19)
(0.000480684 20 2.24854e-19)
(0.000480585 20 2.24279e-19)
(0.000480485 20 2.2412e-19)
(0.000480385 20 2.22651e-19)
(0.000480286 20 2.23033e-19)
(0.000480186 20 2.17412e-19)
(0.000480086 20 2.2675e-19)
(0.000479986 20 2.12353e-19)
(0.000479886 20 2.26802e-19)
(0.000479786 20 2.0997e-19)
(0.000479685 20 2.03258e-19)
(0.000479585 20 2.00822e-19)
(0.000479485 20 2.02617e-19)
(0.000479384 20 2.07213e-19)
(0.000479283 20 2.11664e-19)
(0.000479183 20 2.16517e-19)
(0.000479082 20 2.18482e-19)
(0.000478981 20 2.18182e-19)
(0.00047888 20 2.17756e-19)
(0.000478779 20 2.19167e-19)
(0.000478678 20 2.20969e-19)
(0.000478577 20 2.21594e-19)
(0.000478476 20 2.22382e-19)