/*--------------------------------*- C++ -*----------------------------------*\
| =========                 |                                                 |
| \\      /  F ield         | OpenFOAM: The Open Source CFD Toolbox           |
|  \\    /   O peration     | Version:  2512                                  |
|   \\  /    A nd           | Website:  www.openfoam.com                      |
|    \\/     M anipulation  |                                                 |
\*---------------------------------------------------------------------------*/
FoamFile
{
    version     2.0;
    format      ascii;
    arch        "LSB;label=32;scalar=64";
    class       volScalarField;
    location    "0.1";
    object      p;
}
// * * * * * * * * * * * * * * * * * * * * * * * * * * * * * * * * * * * * * //

dimensions      [1 -1 -2 0 0 0 0];

internalField   nonuniform List<scalar> 
8333
(
-18.9756
-19.2058
-19.437
-19.6702
-19.9049
-20.1413
-20.3792
-20.6186
-20.8596
-21.1022
-21.3462
-21.5919
-21.839
-22.0877
-22.3379
-22.5896
-22.8428
-23.0976
-23.3539
-23.6117
-23.871
-24.1318
-24.3941
-24.6579
-24.9232
-25.1901
-25.4584
-25.7282
-25.9995
-26.2723
-26.5466
-26.8224
-27.0997
-27.3784
-27.6586
-27.9403
-28.2235
-28.5081
-28.7942
-29.0818
-29.3708
-29.6613
-29.9532
-30.2466
-30.5414
-30.8378
-31.1355
-31.4347
-31.7354
-32.0375
-32.341
-32.646
-32.9524
-33.2603
-33.5697
-33.8804
-34.1926
-34.5063
-34.8214
-35.1379
-35.4559
-35.7753
-36.0961
-36.4184
-36.7422
-37.0673
-37.3939
-37.7219
-38.0514
-38.3823
-38.7147
-39.0484
-39.3836
-39.7203
-40.0583
-40.3978
-40.7388
-41.0811
-41.4249
-41.7701
-42.1168
-42.4648
-42.8143
-43.1653
-43.5176
-43.8714
-44.2266
-44.5832
-44.9413
-45.3008
-45.6617
-46.024
-46.3878
-46.7529
-47.1195
-47.4875
-47.857
-48.2278
-48.6001
-48.9738
-49.3489
-49.7254
-50.1033
-50.4827
-50.8634
-51.2456
-51.6292
-52.0142
-52.4006
-52.7884
-53.1777
-53.5683
-53.9604
-54.3538
-54.7487
-55.145
-55.5427
-55.9417
-56.3422
-56.7441
-57.1474
-57.5521
-57.9582
-58.3657
-58.7746
-59.1849
-59.5966
-60.0097
-60.4242
-60.8401
-61.2574
-61.6761
-62.0961
-62.5176
-62.9405
-63.3647
-63.7903
-64.2174
-64.6458
-65.0756
-65.5068
-65.9393
-66.3733
-66.8086
-67.2453
-67.6834
-68.1229
-68.5637
-69.006
-69.4496
-69.8946
-70.3409
-70.7887
-71.2378
-71.6883
-72.1401
-72.5933
-73.0479
-73.5039
-73.9612
-74.4199
-74.8799
-75.3414
-75.8041
-76.2683
-76.7338
-77.2006
-77.6688
-78.1384
-78.6093
-79.0816
-79.5553
-80.0302
-80.5066
-80.9843
-81.4633
-81.9437
-82.4254
-82.9085
-83.3929
-83.8787
-84.3658
-84.8543
-85.3441
-85.8352
-23.4457
-23.6778
-23.9108
-24.1455
-24.3819
-24.6198
-24.8592
-25.1002
-25.3427
-25.5868
-25.8324
-26.0796
-26.3283
-26.5785
-26.8302
-27.0834
-27.3382
-27.5945
-27.8523
-28.1116
-28.3724
-28.6347
-28.8985
-29.1638
-29.4307
-29.699
-29.9688
-30.2401
-30.5129
-30.7872
-31.063
-31.3403
-31.619
-31.8992
-32.1809
-32.4641
-32.7487
-33.0348
-33.3224
-33.6114
-33.9019
-34.1938
-34.4872
-34.7821
-35.0784
-35.3761
-35.6753
-35.976
-36.2781
-36.5816
-36.8866
-37.1931
-37.501
-37.8103
-38.1211
-38.4333
-38.7469
-39.062
-39.3786
-39.6965
-40.0159
-40.3368
-40.6591
-40.9828
-41.308
-41.6346
-41.9626
-42.2921
-42.623
-42.9553
-43.2891
-43.6243
-43.9609
-44.299
-44.6385
-44.9794
-45.3218
-45.6656
-46.0108
-46.3574
-46.7055
-47.055
-47.4059
-47.7583
-48.1121
-48.4673
-48.8239
-49.182
-49.5415
-49.9024
-50.2647
-50.6284
-50.9936
-51.3602
-51.7282
-52.0976
-52.4685
-52.8408
-53.2144
-53.5895
-53.9661
-54.344
-54.7233
-55.1041
-55.4863
-55.8699
-56.2549
-56.6413
-57.0291
-57.4184
-57.809
-58.2011
-58.5945
-58.9894
-59.3857
-59.7834
-60.1824
-60.5829
-60.9848
-61.3881
-61.7928
-62.1989
-62.6065
-63.0154
-63.4257
-63.8374
-64.2505
-64.665
-65.0808
-65.4981
-65.9168
-66.3369
-66.7583
-67.1812
-67.6054
-68.0311
-68.4581
-68.8865
-69.3163
-69.7475
-70.1801
-70.614
-71.0494
-71.4861
-71.9242
-72.3636
-72.8045
-73.2467
-73.6903
-74.1353
-74.5817
-75.0294
-75.4785
-75.929
-76.3809
-76.8341
-77.2887
-77.7446
-78.202
-78.6607
-79.1207
-79.5821
-80.0449
-80.5091
-80.9746
-81.4414
-81.9096
-82.3792
-82.8501
-83.3224
-83.796
-84.271
-84.7474
-85.2251
-85.7041
-86.1845
-86.6662
-87.1493
-87.6337
-88.1195
-88.6066
-89.0951
-89.5849
-90.0761
-27.9158
-28.1494
-28.3841
-28.6204
-28.8583
-29.0978
-29.3388
-29.5813
-29.8254
-30.071
-30.3182
-30.5669
-30.8171
-31.0688
-31.322
-31.5768
-31.8331
-32.0908
-32.3501
-32.611
-32.8733
-33.1371
-33.4024
-33.6692
-33.9376
-34.2074
-34.4787
-34.7515
-35.0258
-35.3016
-35.5788
-35.8576
-36.1378
-36.4195
-36.7027
-36.9873
-37.2734
-37.5609
-37.85
-38.1405
-38.4324
-38.7258
-39.0206
-39.3169
-39.6147
-39.9139
-40.2146
-40.5167
-40.8202
-41.1252
-41.4316
-41.7395
-42.0489
-42.3596
-42.6718
-42.9855
-43.3006
-43.6171
-43.9351
-44.2545
-44.5753
-44.8976
-45.2214
-45.5465
-45.8731
-46.2011
-46.5306
-46.8615
-47.1938
-47.5276
-47.8628
-48.1995
-48.5375
-48.877
-49.2179
-49.5603
-49.9041
-50.2493
-50.596
-50.944
-51.2935
-51.6445
-51.9968
-52.3506
-52.7058
-53.0624
-53.4205
-53.78
-54.1409
-54.5032
-54.8669
-55.2321
-55.5987
-55.9667
-56.3361
-56.707
-57.0793
-57.4529
-57.828
-58.2046
-58.5825
-58.9618
-59.3426
-59.7248
-60.1084
-60.4934
-60.8798
-61.2676
-61.6568
-62.0475
-62.4395
-62.833
-63.2279
-63.6242
-64.0218
-64.4209
-64.8214
-65.2233
-65.6266
-66.0313
-66.4374
-66.8449
-67.2538
-67.6641
-68.0758
-68.4889
-68.9034
-69.3193
-69.7366
-70.1553
-70.5753
-70.9968
-71.4196
-71.8439
-72.2695
-72.6965
-73.125
-73.5548
-73.9859
-74.4185
-74.8525
-75.2878
-75.7245
-76.1626
-76.6021
-77.0429
-77.4852
-77.9288
-78.3738
-78.8201
-79.2679
-79.717
-80.1674
-80.6193
-81.0725
-81.5271
-81.9831
-82.4404
-82.8991
-83.3591
-83.8205
-84.2833
-84.7474
-85.2129
-85.6798
-86.148
-86.6176
-87.0885
-87.5608
-88.0344
-88.5094
-88.9858
-89.4634
-89.9425
-90.4229
-90.9046
-91.3877
-91.8721
-92.3579
-92.845
-93.3334
-93.8232
-94.3144
-32.3873
-32.622
-32.8584
-33.0963
-33.3357
-33.5767
-33.8193
-34.0634
-34.309
-34.5561
-34.8048
-35.055
-35.3067
-35.56
-35.8147
-36.071
-36.3288
-36.5881
-36.8489
-37.1112
-37.375
-37.6404
-37.9072
-38.1755
-38.4453
-38.7167
-38.9895
-39.2638
-39.5395
-39.8168
-40.0955
-40.3758
-40.6574
-40.9406
-41.2252
-41.5113
-41.7989
-42.0879
-42.3784
-42.6704
-42.9638
-43.2586
-43.5549
-43.8527
-44.1519
-44.4525
-44.7546
-45.0582
-45.3632
-45.6696
-45.9775
-46.2868
-46.5976
-46.9098
-47.2234
-47.5385
-47.8551
-48.173
-48.4925
-48.8133
-49.1356
-49.4593
-49.7845
-50.1111
-50.4391
-50.7686
-51.0995
-51.4318
-51.7656
-52.1008
-52.4374
-52.7755
-53.115
-53.4559
-53.7983
-54.1421
-54.4873
-54.8339
-55.182
-55.5315
-55.8824
-56.2348
-56.5886
-56.9438
-57.3004
-57.6585
-58.0179
-58.3788
-58.7412
-59.1049
-59.4701
-59.8367
-60.2047
-60.5741
-60.945
-61.3172
-61.6909
-62.066
-62.4425
-62.8205
-63.1998
-63.5806
-63.9627
-64.3463
-64.7313
-65.1178
-65.5056
-65.8948
-66.2855
-66.6775
-67.071
-67.4658
-67.8621
-68.2598
-68.6589
-69.0594
-69.4613
-69.8646
-70.2693
-70.6754
-71.0829
-71.4918
-71.9021
-72.3138
-72.7269
-73.1414
-73.5573
-73.9745
-74.3932
-74.8133
-75.2348
-75.6576
-76.0819
-76.5075
-76.9345
-77.3629
-77.7927
-78.2239
-78.6565
-79.0904
-79.5257
-79.9625
-80.4006
-80.84
-81.2809
-81.7231
-82.1667
-82.6117
-83.0581
-83.5058
-83.9549
-84.4054
-84.8573
-85.3105
-85.7651
-86.221
-86.6783
-87.137
-87.5971
-88.0585
-88.5213
-88.9854
-89.4509
-89.9178
-90.386
-90.8556
-91.3265
-91.7988
-92.2724
-92.7474
-93.2237
-93.7014
-94.1804
-94.6608
-95.1426
-95.6256
-96.1101
-96.5958
-97.0829
-97.5714
-98.0612
-98.5524
-36.6247
-36.86
-37.0963
-37.3342
-37.5736
-37.8146
-38.0572
-38.3013
-38.5469
-38.794
-39.0427
-39.2929
-39.5446
-39.7979
-40.0526
-40.3089
-40.5667
-40.826
-41.0868
-41.3491
-41.613
-41.8783
-42.1451
-42.4135
-42.6833
-42.9546
-43.2274
-43.5017
-43.7775
-44.0547
-44.3335
-44.6137
-44.8954
-45.1786
-45.4632
-45.7493
-46.0369
-46.3259
-46.6164
-46.9083
-47.2017
-47.4966
-47.7929
-48.0906
-48.3898
-48.6905
-48.9926
-49.2961
-49.6011
-49.9076
-50.2154
-50.5248
-50.8355
-51.1478
-51.4614
-51.7765
-52.093
-52.411
-52.7304
-53.0513
-53.3735
-53.6973
-54.0224
-54.349
-54.6771
-55.0065
-55.3374
-55.6698
-56.0035
-56.3387
-56.6754
-57.0134
-57.3529
-57.6939
-58.0362
-58.38
-58.7252
-59.0719
-59.4199
-59.7694
-60.1204
-60.4727
-60.8265
-61.1817
-61.5384
-61.8964
-62.2559
-62.6168
-62.9791
-63.3429
-63.708
-64.0746
-64.4426
-64.8121
-65.1829
-65.5552
-65.9289
-66.304
-66.6805
-67.0584
-67.4378
-67.8185
-68.2007
-68.5843
-68.9693
-69.3557
-69.7435
-70.1328
-70.5234
-70.9155
-71.3089
-71.7038
-72.1001
-72.4978
-72.8968
-73.2973
-73.6992
-74.1025
-74.5072
-74.9133
-75.3208
-75.7297
-76.14
-76.5517
-76.9648
-77.3793
-77.7952
-78.2125
-78.6312
-79.0512
-79.4727
-79.8956
-80.3198
-80.7454
-81.1725
-81.6009
-82.0307
-82.4618
-82.8944
-83.3284
-83.7637
-84.2004
-84.6385
-85.078
-85.5188
-85.9611
-86.4047
-86.8497
-87.296
-87.7438
-88.1929
-88.6434
-89.0952
-89.5484
-90.003
-90.459
-90.9163
-91.375
-91.835
-92.2964
-92.7592
-93.2234
-93.6889
-94.1557
-94.6239
-95.0935
-95.5644
-96.0367
-96.5103
-96.9853
-97.4617
-97.9394
-98.4184
-98.8988
-99.3805
-99.8636
-100.348
-100.834
-101.321
-101.809
-102.299
-102.79
-41.0973
-41.3342
-41.572
-41.8115
-42.0525
-42.2951
-42.5392
-42.7848
-43.032
-43.2806
-43.5308
-43.7826
-44.0358
-44.2906
-44.5468
-44.8046
-45.0639
-45.3248
-45.5871
-45.8509
-46.1162
-46.3831
-46.6514
-46.9212
-47.1925
-47.4653
-47.7396
-48.0154
-48.2927
-48.5714
-48.8516
-49.1333
-49.4165
-49.7011
-49.9872
-50.2748
-50.5638
-50.8543
-51.1463
-51.4396
-51.7345
-52.0308
-52.3286
-52.6278
-52.9284
-53.2305
-53.5341
-53.8391
-54.1455
-54.4534
-54.7627
-55.0735
-55.3857
-55.6994
-56.0144
-56.331
-56.649
-56.9684
-57.2892
-57.6115
-57.9352
-58.2604
-58.587
-58.915
-59.2445
-59.5754
-59.9077
-60.2415
-60.5767
-60.9133
-61.2514
-61.5909
-61.9318
-62.2742
-62.618
-62.9632
-63.3098
-63.6579
-64.0074
-64.3583
-64.7107
-65.0645
-65.4197
-65.7763
-66.1344
-66.4938
-66.8547
-67.2171
-67.5808
-67.946
-68.3126
-68.6806
-69.05
-69.4209
-69.7931
-70.1668
-70.5419
-70.9184
-71.2964
-71.6757
-72.0565
-72.4386
-72.8222
-73.2072
-73.5937
-73.9815
-74.3707
-74.7614
-75.1534
-75.5469
-75.9417
-76.338
-76.7357
-77.1348
-77.5353
-77.9372
-78.3405
-78.7452
-79.1513
-79.5588
-79.9677
-80.378
-80.7897
-81.2028
-81.6173
-82.0332
-82.4504
-82.8691
-83.2892
-83.7107
-84.1335
-84.5577
-84.9834
-85.4104
-85.8388
-86.2686
-86.6998
-87.1324
-87.5663
-88.0016
-88.4384
-88.8765
-89.3159
-89.7568
-90.199
-90.6426
-91.0876
-91.534
-91.9817
-92.4308
-92.8813
-93.3331
-93.7864
-94.241
-94.6969
-95.1542
-95.6129
-96.073
-96.5344
-96.9972
-97.4613
-97.9268
-98.3937
-98.8619
-99.3314
-99.8024
-100.275
-100.748
-101.223
-101.7
-102.177
-102.656
-103.137
-103.618
-104.102
-104.586
-105.072
-105.559
-106.047
-106.537
-107.028
-45.5721
-45.8099
-46.0494
-46.2904
-46.533
-46.7771
-47.0227
-47.2698
-47.5185
-47.7687
-48.0205
-48.2737
-48.5285
-48.7847
-49.0425
-49.3018
-49.5627
-49.825
-50.0888
-50.3541
-50.621
-50.8893
-51.1591
-51.4304
-51.7033
-51.9775
-52.2533
-52.5306
-52.8093
-53.0896
-53.3713
-53.6544
-53.9391
-54.2252
-54.5127
-54.8018
-55.0922
-55.3842
-55.6776
-55.9724
-56.2687
-56.5665
-56.8657
-57.1664
-57.4685
-57.772
-58.077
-58.3835
-58.6913
-59.0007
-59.3114
-59.6236
-59.9373
-60.2524
-60.5689
-60.8869
-61.2063
-61.5272
-61.8494
-62.1732
-62.4983
-62.8249
-63.153
-63.4824
-63.8133
-64.1457
-64.4794
-64.8146
-65.1513
-65.4893
-65.8288
-66.1698
-66.5121
-66.8559
-67.2011
-67.5478
-67.8958
-68.2453
-68.5963
-68.9486
-69.3024
-69.6576
-70.0142
-70.3723
-70.7318
-71.0927
-71.455
-71.8188
-72.1839
-72.5505
-72.9185
-73.288
-73.6588
-74.0311
-74.4048
-74.7799
-75.1564
-75.5343
-75.9137
-76.2944
-76.6766
-77.0602
-77.4452
-77.8316
-78.2194
-78.6087
-78.9993
-79.3914
-79.7848
-80.1797
-80.576
-80.9736
-81.3727
-81.7732
-82.1751
-82.5784
-82.9831
-83.3892
-83.7967
-84.2056
-84.6159
-85.0276
-85.4407
-85.8552
-86.2711
-86.6884
-87.1071
-87.5271
-87.9486
-88.3714
-88.7957
-89.2213
-89.6483
-90.0768
-90.5065
-90.9377
-91.3703
-91.8042
-92.2396
-92.6763
-93.1144
-93.5539
-93.9947
-94.437
-94.8806
-95.3256
-95.7719
-96.2196
-96.6688
-97.1192
-97.5711
-98.0243
-98.4789
-98.9348
-99.3922
-99.8509
-100.311
-100.772
-101.235
-101.699
-102.165
-102.632
-103.1
-103.569
-104.04
-104.513
-104.986
-105.461
-105.938
-106.415
-106.894
-107.375
-107.856
-108.339
-108.824
-109.31
-109.797
-110.285
-110.775
-111.266
-49.8095
-50.0479
-50.2872
-50.5283
-50.7709
-51.015
-51.2606
-51.5077
-51.7564
-52.0066
-52.2583
-52.5116
-52.7664
-53.0226
-53.2804
-53.5397
-53.8005
-54.0629
-54.3267
-54.592
-54.8589
-55.1272
-55.397
-55.6683
-55.9412
-56.2155
-56.4912
-56.7685
-57.0473
-57.3275
-57.6092
-57.8923
-58.177
-58.4631
-58.7507
-59.0397
-59.3302
-59.6221
-59.9155
-60.2104
-60.5067
-60.8044
-61.1036
-61.4043
-61.7064
-62.01
-62.315
-62.6214
-62.9293
-63.2386
-63.5494
-63.8616
-64.1752
-64.4903
-64.8069
-65.1248
-65.4442
-65.7651
-66.0874
-66.4111
-66.7363
-67.0629
-67.3909
-67.7204
-68.0513
-68.3836
-68.7174
-69.0526
-69.3892
-69.7273
-70.0668
-70.4077
-70.7501
-71.0938
-71.4391
-71.7857
-72.1338
-72.4833
-72.8342
-73.1866
-73.5403
-73.8956
-74.2522
-74.6102
-74.9697
-75.3306
-75.6929
-76.0567
-76.4219
-76.7885
-77.1565
-77.5259
-77.8967
-78.269
-78.6427
-79.0178
-79.3943
-79.7722
-80.1516
-80.5323
-80.9145
-81.2981
-81.6831
-82.0695
-82.4574
-82.8466
-83.2372
-83.6293
-84.0228
-84.4176
-84.8139
-85.2116
-85.6107
-86.0112
-86.4131
-86.8163
-87.221
-87.6272
-88.0347
-88.4436
-88.8539
-89.2656
-89.6787
-90.0931
-90.509
-90.9263
-91.345
-91.7651
-92.1865
-92.6094
-93.0336
-93.4593
-93.8863
-94.3147
-94.7445
-95.1757
-95.6082
-96.0422
-96.4775
-96.9142
-97.3523
-97.7918
-98.2327
-98.6749
-99.1185
-99.5635
-100.01
-100.458
-100.907
-101.357
-101.809
-102.262
-102.717
-103.173
-103.63
-104.089
-104.549
-105.01
-105.473
-105.937
-106.403
-106.87
-107.338
-107.807
-108.278
-108.751
-109.224
-109.699
-110.175
-110.653
-111.132
-111.613
-112.094
-112.577
-113.062
-113.548
-114.035
-114.523
-115.013
-115.504
-54.2851
-54.5252
-54.7661
-55.0087
-55.2528
-55.4984
-55.7456
-55.9943
-56.2445
-56.4962
-56.7495
-57.0042
-57.2605
-57.5183
-57.7776
-58.0384
-58.3008
-58.5646
-58.8299
-59.0968
-59.3651
-59.6349
-59.9062
-60.1791
-60.4534
-60.7291
-61.0064
-61.2852
-61.5654
-61.8471
-62.1303
-62.4149
-62.701
-62.9886
-63.2776
-63.5681
-63.86
-64.1534
-64.4483
-64.7446
-65.0424
-65.3416
-65.6422
-65.9443
-66.2479
-66.5529
-66.8593
-67.1672
-67.4765
-67.7873
-68.0995
-68.4132
-68.7283
-69.0448
-69.3628
-69.6822
-70.003
-70.3253
-70.649
-70.9742
-71.3008
-71.6288
-71.9583
-72.2892
-72.6215
-72.9553
-73.2905
-73.6271
-73.9652
-74.3047
-74.6456
-74.988
-75.3318
-75.677
-76.0236
-76.3717
-76.7212
-77.0721
-77.4245
-77.7783
-78.1335
-78.4901
-78.8482
-79.2077
-79.5686
-79.9309
-80.2946
-80.6598
-81.0264
-81.3944
-81.7638
-82.1347
-82.5069
-82.8806
-83.2557
-83.6322
-84.0102
-84.3895
-84.7703
-85.1525
-85.536
-85.921
-86.3075
-86.6953
-87.0845
-87.4752
-87.8672
-88.2607
-88.6555
-89.0518
-89.4495
-89.8486
-90.2491
-90.651
-91.0543
-91.459
-91.8651
-92.2726
-92.6815
-93.0918
-93.5035
-93.9166
-94.3311
-94.747
-95.1642
-95.5829
-96.003
-96.4245
-96.8473
-97.2716
-97.6972
-98.1242
-98.5526
-98.9824
-99.4136
-99.8462
-100.28
-100.715
-101.152
-101.59
-102.03
-102.471
-102.913
-103.356
-103.801
-104.248
-104.696
-105.145
-105.595
-106.047
-106.5
-106.955
-107.411
-107.868
-108.327
-108.787
-109.248
-109.711
-110.175
-110.641
-111.107
-111.576
-112.045
-112.516
-112.988
-113.462
-113.937
-114.413
-114.891
-115.37
-115.851
-116.332
-116.815
-117.3
-117.785
-118.273
-118.761
-119.251
-119.742
-58.7624
-59.004
-59.2465
-59.4907
-59.7363
-59.9834
-60.2321
-60.4823
-60.7341
-60.9873
-61.2421
-61.4984
-61.7562
-62.0155
-62.2763
-62.5386
-62.8025
-63.0678
-63.3346
-63.603
-63.8728
-64.1441
-64.4169
-64.6912
-64.967
-65.2443
-65.5231
-65.8033
-66.085
-66.3682
-66.6528
-66.9389
-67.2265
-67.5155
-67.806
-68.098
-68.3914
-68.6862
-68.9825
-69.2803
-69.5795
-69.8802
-70.1823
-70.4858
-70.7908
-71.0972
-71.4051
-71.7145
-72.0252
-72.3374
-72.6511
-72.9662
-73.2827
-73.6007
-73.9201
-74.241
-74.5632
-74.887
-75.2121
-75.5387
-75.8668
-76.1962
-76.5271
-76.8595
-77.1932
-77.5284
-77.8651
-78.2031
-78.5426
-78.8836
-79.2259
-79.5697
-79.9149
-80.2616
-80.6096
-80.9591
-81.3101
-81.6624
-82.0162
-82.3714
-82.728
-83.0861
-83.4456
-83.8065
-84.1688
-84.5326
-84.8977
-85.2643
-85.6323
-86.0017
-86.3726
-86.7449
-87.1185
-87.4936
-87.8702
-88.2481
-88.6274
-89.0082
-89.3904
-89.774
-90.159
-90.5454
-90.9332
-91.3224
-91.7131
-92.1051
-92.4986
-92.8935
-93.2898
-93.6874
-94.0865
-94.487
-94.8889
-95.2922
-95.6969
-96.103
-96.5105
-96.9194
-97.3297
-97.7414
-98.1545
-98.569
-98.9849
-99.4022
-99.8208
-100.241
-100.662
-101.085
-101.509
-101.935
-102.362
-102.791
-103.22
-103.652
-104.084
-104.518
-104.953
-105.39
-105.828
-106.268
-106.709
-107.151
-107.594
-108.039
-108.486
-108.933
-109.383
-109.833
-110.285
-110.738
-111.193
-111.649
-112.106
-112.565
-113.025
-113.486
-113.949
-114.413
-114.879
-115.345
-115.814
-116.283
-116.754
-117.226
-117.7
-118.175
-118.651
-119.129
-119.608
-120.088
-120.57
-121.053
-121.538
-122.023
-122.511
-122.999
-123.489
-123.98
-63.2418
-63.4843
-63.7285
-63.9741
-64.2213
-64.47
-64.7202
-64.9719
-65.2252
-65.4799
-65.7362
-65.994
-66.2533
-66.5141
-66.7765
-67.0403
-67.3057
-67.5725
-67.8408
-68.1107
-68.382
-68.6548
-68.9291
-69.2049
-69.4822
-69.7609
-70.0412
-70.3229
-70.6061
-70.8907
-71.1768
-71.4644
-71.7534
-72.0439
-72.3359
-72.6293
-72.9241
-73.2204
-73.5182
-73.8174
-74.1181
-74.4202
-74.7237
-75.0287
-75.3352
-75.643
-75.9524
-76.2631
-76.5754
-76.889
-77.2041
-77.5206
-77.8386
-78.158
-78.4789
-78.8012
-79.1249
-79.45
-79.7766
-80.1047
-80.4341
-80.765
-81.0974
-81.4311
-81.7663
-82.103
-82.441
-82.7805
-83.1215
-83.4638
-83.8076
-84.1528
-84.4995
-84.8476
-85.1971
-85.548
-85.9003
-86.2541
-86.6093
-86.966
-87.324
-87.6835
-88.0444
-88.4067
-88.7705
-89.1356
-89.5022
-89.8702
-90.2397
-90.6105
-90.9828
-91.3565
-91.7316
-92.1081
-92.486
-92.8654
-93.2461
-93.6283
-94.0119
-94.3969
-94.7833
-95.1711
-95.5604
-95.951
-96.3431
-96.7365
-97.1314
-97.5277
-97.9254
-98.3244
-98.7249
-99.1268
-99.5301
-99.9348
-100.341
-100.748
-101.157
-101.568
-101.979
-102.392
-102.807
-103.223
-103.64
-104.059
-104.479
-104.9
-105.323
-105.747
-106.173
-106.6
-107.028
-107.458
-107.889
-108.322
-108.756
-109.191
-109.628
-110.066
-110.506
-110.946
-111.389
-111.832
-112.277
-112.724
-113.171
-113.62
-114.071
-114.523
-114.976
-115.431
-115.887
-116.344
-116.803
-117.263
-117.724
-118.187
-118.651
-119.116
-119.583
-120.052
-120.521
-120.992
-121.464
-121.938
-122.413
-122.889
-123.367
-123.846
-124.326
-124.808
-125.291
-125.776
-126.261
-126.748
-127.237
-127.727
-128.218
-67.4792
-67.7223
-67.9663
-68.2119
-68.4591
-68.7078
-68.958
-69.2097
-69.463
-69.7178
-69.974
-70.2318
-70.4912
-70.752
-71.0143
-71.2782
-71.5435
-71.8103
-72.0787
-72.3485
-72.6199
-72.8927
-73.167
-73.4428
-73.7201
-73.9988
-74.2791
-74.5608
-74.8439
-75.1286
-75.4147
-75.7023
-75.9913
-76.2818
-76.5738
-76.8672
-77.162
-77.4583
-77.7561
-78.0553
-78.356
-78.6581
-78.9616
-79.2666
-79.5731
-79.881
-80.1903
-80.5011
-80.8133
-81.1269
-81.442
-81.7586
-82.0765
-82.3959
-82.7168
-83.0391
-83.3628
-83.688
-84.0146
-84.3426
-84.6721
-85.003
-85.3353
-85.6691
-86.0043
-86.3409
-86.679
-87.0185
-87.3594
-87.7017
-88.0455
-88.3908
-88.7374
-89.0855
-89.435
-89.7859
-90.1383
-90.492
-90.8472
-91.2039
-91.5619
-91.9214
-92.2823
-92.6446
-93.0084
-93.3736
-93.7401
-94.1082
-94.4776
-94.8484
-95.2207
-95.5944
-95.9695
-96.346
-96.7239
-97.1033
-97.484
-97.8662
-98.2498
-98.6348
-99.0212
-99.409
-99.7983
-100.189
-100.581
-100.974
-101.369
-101.766
-102.163
-102.562
-102.963
-103.365
-103.768
-104.173
-104.579
-104.986
-105.395
-105.806
-106.217
-106.63
-107.045
-107.461
-107.878
-108.297
-108.717
-109.138
-109.561
-109.985
-110.411
-110.838
-111.266
-111.696
-112.127
-112.56
-112.994
-113.429
-113.866
-114.304
-114.743
-115.184
-115.627
-116.07
-116.515
-116.962
-117.409
-117.858
-118.309
-118.761
-119.214
-119.668
-120.124
-120.582
-121.04
-121.501
-121.962
-122.425
-122.889
-123.354
-123.821
-124.289
-124.759
-125.23
-125.702
-126.176
-126.651
-127.127
-127.605
-128.084
-128.564
-129.046
-129.529
-130.013
-130.499
-130.986
-131.475
-131.965
-132.456
-71.9595
-72.2041
-72.4497
-72.6969
-72.9456
-73.1958
-73.4475
-73.7008
-73.9556
-74.2119
-74.4697
-74.729
-74.9898
-75.2521
-75.516
-75.7813
-76.0482
-76.3165
-76.5864
-76.8577
-77.1305
-77.4048
-77.6806
-77.9579
-78.2367
-78.5169
-78.7986
-79.0818
-79.3665
-79.6526
-79.9402
-80.2292
-80.5197
-80.8117
-81.1051
-81.3999
-81.6962
-81.994
-82.2932
-82.5939
-82.896
-83.1995
-83.5045
-83.811
-84.1189
-84.4282
-84.739
-85.0512
-85.3648
-85.6799
-85.9965
-86.3144
-86.6338
-86.9547
-87.277
-87.6007
-87.9259
-88.2525
-88.5805
-88.91
-89.2409
-89.5732
-89.907
-90.2422
-90.5788
-90.9169
-91.2564
-91.5973
-91.9397
-92.2834
-92.6287
-92.9753
-93.3234
-93.6729
-94.0238
-94.3762
-94.7299
-95.0852
-95.4418
-95.7998
-96.1593
-96.5202
-96.8825
-97.2463
-97.6115
-97.9781
-98.3461
-98.7155
-99.0863
-99.4586
-99.8323
-100.207
-100.584
-100.962
-101.341
-101.722
-102.104
-102.488
-102.873
-103.259
-103.647
-104.036
-104.427
-104.819
-105.212
-105.607
-106.003
-106.401
-106.8
-107.201
-107.603
-108.006
-108.411
-108.817
-109.224
-109.633
-110.043
-110.455
-110.868
-111.283
-111.699
-112.116
-112.535
-112.955
-113.376
-113.799
-114.223
-114.649
-115.076
-115.504
-115.934
-116.365
-116.798
-117.232
-117.667
-118.104
-118.542
-118.981
-119.422
-119.864
-120.308
-120.753
-121.199
-121.647
-122.096
-122.547
-122.999
-123.452
-123.906
-124.362
-124.82
-125.278
-125.738
-126.2
-126.663
-127.127
-127.592
-128.059
-128.527
-128.997
-129.468
-129.94
-130.414
-130.889
-131.365
-131.843
-132.322
-132.802
-133.284
-133.767
-134.251
-134.737
-135.224
-135.713
-136.202
-136.694
-76.4419
-76.6875
-76.9346
-77.1834
-77.4336
-77.6853
-77.9386
-78.1934
-78.4497
-78.7075
-78.9668
-79.2276
-79.49
-79.7538
-80.0192
-80.286
-80.5544
-80.8242
-81.0955
-81.3684
-81.6427
-81.9185
-82.1958
-82.4745
-82.7548
-83.0365
-83.3197
-83.6043
-83.8905
-84.1781
-84.4671
-84.7576
-85.0496
-85.343
-85.6378
-85.9341
-86.2319
-86.5311
-86.8318
-87.1339
-87.4374
-87.7424
-88.0489
-88.3568
-88.6661
-88.9769
-89.2891
-89.6027
-89.9178
-90.2344
-90.5523
-90.8717
-91.1926
-91.5149
-91.8386
-92.1638
-92.4904
-92.8184
-93.1479
-93.4788
-93.8111
-94.1449
-94.4801
-94.8167
-95.1548
-95.4943
-95.8352
-96.1776
-96.5213
-96.8666
-97.2132
-97.5613
-97.9108
-98.2617
-98.6141
-98.9679
-99.3231
-99.6797
-100.038
-100.397
-100.758
-101.12
-101.484
-101.849
-102.216
-102.584
-102.953
-103.324
-103.697
-104.07
-104.445
-104.822
-105.2
-105.579
-105.96
-106.342
-106.726
-107.111
-107.497
-107.885
-108.274
-108.665
-109.057
-109.45
-109.845
-110.241
-110.639
-111.038
-111.439
-111.841
-112.244
-112.649
-113.055
-113.462
-113.871
-114.281
-114.693
-115.106
-115.521
-115.937
-116.354
-116.772
-117.193
-117.614
-118.037
-118.461
-118.887
-119.314
-119.742
-120.172
-120.603
-121.036
-121.47
-121.905
-122.342
-122.78
-123.219
-123.66
-124.102
-124.546
-124.991
-125.437
-125.885
-126.334
-126.785
-127.236
-127.69
-128.144
-128.6
-129.058
-129.516
-129.976
-130.438
-130.901
-131.365
-131.83
-132.297
-132.765
-133.235
-133.706
-134.178
-134.652
-135.127
-135.603
-136.081
-136.56
-137.04
-137.522
-138.005
-138.489
-138.975
-139.462
-139.951
-140.44
-140.932
-80.6792
-80.9254
-81.1724
-81.4211
-81.6714
-81.9231
-82.1764
-82.4312
-82.6875
-82.9453
-83.2046
-83.4654
-83.7278
-83.9916
-84.257
-84.5238
-84.7922
-85.062
-85.3334
-85.6062
-85.8805
-86.1563
-86.4336
-86.7124
-86.9926
-87.2744
-87.5576
-87.8422
-88.1283
-88.4159
-88.705
-88.9955
-89.2874
-89.5808
-89.8757
-90.172
-90.4698
-90.769
-91.0697
-91.3718
-91.6753
-91.9803
-92.2868
-92.5947
-92.904
-93.2148
-93.527
-93.8406
-94.1557
-94.4723
-94.7902
-95.1096
-95.4305
-95.7528
-96.0765
-96.4017
-96.7283
-97.0563
-97.3858
-97.7167
-98.049
-98.3828
-98.718
-99.0546
-99.3927
-99.7322
-100.073
-100.415
-100.759
-101.104
-101.451
-101.799
-102.149
-102.5
-102.852
-103.206
-103.561
-103.918
-104.276
-104.635
-104.996
-105.358
-105.722
-106.087
-106.454
-106.822
-107.191
-107.562
-107.934
-108.308
-108.683
-109.06
-109.438
-109.817
-110.198
-110.58
-110.964
-111.349
-111.735
-112.123
-112.512
-112.903
-113.295
-113.688
-114.083
-114.479
-114.877
-115.276
-115.677
-116.078
-116.482
-116.886
-117.293
-117.7
-118.109
-118.519
-118.931
-119.344
-119.759
-120.174
-120.592
-121.01
-121.43
-121.852
-122.275
-122.699
-123.125
-123.552
-123.98
-124.41
-124.841
-125.274
-125.708
-126.143
-126.58
-127.018
-127.457
-127.898
-128.34
-128.784
-129.229
-129.675
-130.123
-130.572
-131.023
-131.474
-131.928
-132.382
-132.838
-133.295
-133.754
-134.214
-134.676
-135.138
-135.603
-136.068
-136.535
-137.003
-137.473
-137.944
-138.416
-138.89
-139.364
-139.841
-140.319
-140.798
-141.278
-141.76
-142.243
-142.727
-143.213
-143.7
-144.188
-144.678
-145.169
-85.1625
-85.4103
-85.6589
-85.9091
-86.1609
-86.4141
-86.6689
-86.9252
-87.183
-87.4424
-87.7032
-87.9656
-88.2294
-88.4948
-88.7616
-89.03
-89.2998
-89.5712
-89.844
-90.1183
-90.3942
-90.6715
-90.9502
-91.2305
-91.5122
-91.7954
-92.0801
-92.3662
-92.6538
-92.9428
-93.2333
-93.5253
-93.8187
-94.1136
-94.4099
-94.7077
-95.0069
-95.3075
-95.6097
-95.9132
-96.2182
-96.5247
-96.8325
-97.1419
-97.4526
-97.7649
-98.0785
-98.3936
-98.7101
-99.0281
-99.3475
-99.6684
-99.9907
-100.314
-100.64
-100.966
-101.294
-101.624
-101.955
-102.287
-102.621
-102.956
-103.292
-103.631
-103.97
-104.311
-104.653
-104.997
-105.342
-105.689
-106.037
-106.387
-106.738
-107.09
-107.444
-107.799
-108.155
-108.514
-108.873
-109.234
-109.596
-109.96
-110.325
-110.692
-111.06
-111.429
-111.8
-112.172
-112.546
-112.921
-113.298
-113.676
-114.055
-114.436
-114.818
-115.201
-115.586
-115.973
-116.361
-116.75
-117.141
-117.533
-117.926
-118.321
-118.717
-119.115
-119.514
-119.914
-120.316
-120.72
-121.124
-121.53
-121.938
-122.347
-122.757
-123.169
-123.582
-123.996
-124.412
-124.83
-125.248
-125.668
-126.09
-126.513
-126.937
-127.363
-127.79
-128.218
-128.648
-129.079
-129.512
-129.945
-130.381
-130.818
-131.256
-131.695
-132.136
-132.578
-133.022
-133.467
-133.913
-134.361
-134.81
-135.26
-135.712
-136.166
-136.62
-137.076
-137.533
-137.992
-138.452
-138.914
-139.376
-139.84
-140.306
-140.773
-141.241
-141.711
-142.181
-142.654
-143.127
-143.602
-144.079
-144.556
-145.035
-145.516
-145.998
-146.481
-146.965
-147.451
-147.938
-148.426
-148.916
-149.407
-89.6474
-89.8966
-90.1469
-90.3986
-90.6519
-90.9067
-91.163
-91.4208
-91.6801
-91.941
-92.2033
-92.4672
-92.7325
-92.9994
-93.2678
-93.5376
-93.809
-94.0818
-94.3562
-94.632
-94.9093
-95.1881
-95.4683
-95.75
-96.0332
-96.3179
-96.604
-96.8916
-97.1807
-97.4712
-97.7632
-98.0566
-98.3515
-98.6478
-98.9455
-99.2448
-99.5454
-99.8475
-100.151
-100.456
-100.763
-101.07
-101.38
-101.691
-102.003
-102.316
-102.631
-102.948
-103.266
-103.585
-103.906
-104.229
-104.552
-104.877
-105.204
-105.532
-105.862
-106.192
-106.525
-106.859
-107.194
-107.53
-107.868
-108.208
-108.549
-108.891
-109.235
-109.58
-109.927
-110.275
-110.624
-110.975
-111.328
-111.682
-112.037
-112.393
-112.751
-113.111
-113.472
-113.834
-114.198
-114.563
-114.93
-115.298
-115.667
-116.038
-116.41
-116.784
-117.159
-117.535
-117.913
-118.293
-118.674
-119.056
-119.439
-119.824
-120.211
-120.599
-120.988
-121.378
-121.77
-122.164
-122.559
-122.955
-123.353
-123.752
-124.152
-124.554
-124.958
-125.362
-125.768
-126.176
-126.585
-126.995
-127.407
-127.82
-128.234
-128.65
-129.067
-129.486
-129.906
-130.328
-130.751
-131.175
-131.6
-132.027
-132.456
-132.886
-133.317
-133.749
-134.183
-134.619
-135.055
-135.493
-135.933
-136.374
-136.816
-137.26
-137.705
-138.151
-138.599
-139.048
-139.498
-139.95
-140.403
-140.858
-141.314
-141.771
-142.23
-142.69
-143.151
-143.614
-144.078
-144.544
-145.011
-145.479
-145.948
-146.419
-146.892
-147.365
-147.84
-148.317
-148.794
-149.273
-149.754
-150.235
-150.718
-151.203
-151.689
-152.176
-152.664
-153.154
-153.645
-94.1344
-94.3846
-94.6364
-94.8896
-95.1444
-95.4007
-95.6586
-95.9179
-96.1787
-96.4411
-96.705
-96.9703
-97.2372
-97.5055
-97.7754
-98.0468
-98.3196
-98.594
-98.8698
-99.1471
-99.4259
-99.7061
-99.9879
-100.271
-100.556
-100.842
-101.129
-101.419
-101.709
-102.001
-102.294
-102.589
-102.886
-103.183
-103.483
-103.783
-104.085
-104.389
-104.694
-105
-105.308
-105.618
-105.928
-106.241
-106.554
-106.869
-107.186
-107.504
-107.823
-108.144
-108.466
-108.79
-109.115
-109.442
-109.77
-110.099
-110.43
-110.763
-111.096
-111.432
-111.768
-112.106
-112.446
-112.787
-113.129
-113.473
-113.818
-114.165
-114.513
-114.862
-115.213
-115.566
-115.919
-116.275
-116.631
-116.989
-117.349
-117.71
-118.072
-118.436
-118.801
-119.168
-119.536
-119.905
-120.276
-120.648
-121.022
-121.397
-121.773
-122.151
-122.531
-122.911
-123.294
-123.677
-124.062
-124.449
-124.836
-125.226
-125.616
-126.008
-126.402
-126.797
-127.193
-127.591
-127.99
-128.39
-128.792
-129.195
-129.6
-130.006
-130.414
-130.823
-131.233
-131.645
-132.058
-132.472
-132.888
-133.305
-133.724
-134.144
-134.566
-134.988
-135.413
-135.838
-136.265
-136.694
-137.124
-137.555
-137.987
-138.421
-138.857
-139.293
-139.731
-140.171
-140.612
-141.054
-141.498
-141.943
-142.389
-142.837
-143.286
-143.736
-144.188
-144.641
-145.096
-145.552
-146.009
-146.468
-146.928
-147.389
-147.852
-148.316
-148.782
-149.249
-149.717
-150.186
-150.657
-151.13
-151.603
-152.078
-152.554
-153.032
-153.511
-153.992
-154.473
-154.956
-155.441
-155.927
-156.414
-156.902
-157.392
-157.883
-98.3717
-98.6225
-98.8741
-99.1274
-99.3822
-99.6385
-99.8963
-100.156
-100.416
-100.679
-100.943
-101.208
-101.475
-101.743
-102.013
-102.285
-102.557
-102.832
-103.108
-103.385
-103.664
-103.944
-104.226
-104.509
-104.794
-105.08
-105.367
-105.656
-105.947
-106.239
-106.532
-106.827
-107.123
-107.421
-107.72
-108.021
-108.323
-108.627
-108.932
-109.238
-109.546
-109.856
-110.166
-110.478
-110.792
-111.107
-111.424
-111.742
-112.061
-112.382
-112.704
-113.028
-113.353
-113.68
-114.008
-114.337
-114.668
-115.001