/*--------------------------------*- C++ -*----------------------------------*\
| =========                 |                                                 |
| \\      /  F ield         | OpenFOAM: The Open Source CFD Toolbox           |
|  \\    /   O peration     | Version:  2512                                  |
|   \\  /    A nd           | Website:  www.openfoam.com                      |
|    \\/     M anipulation  |                                                 |
\*---------------------------------------------------------------------------*/
FoamFile
{
    version     2.0;
    format      ascii;
    arch        "LSB;label=32;scalar=64";
    class       volScalarField;
    location    "0.1";
    object      pB;
}
// * * * * * * * * * * * * * * * * * * * * * * * * * * * * * * * * * * * * * //

dimensions      [1 1 -3 0 0 -1 0];

internalField   nonuniform List<scalar> 
8333
(
15.3067
15.3053
15.3027
15.2989
15.2939
15.2875
15.2796
15.2703
15.2594
15.2471
15.2333
15.218
15.2014
15.1834
15.1641
15.1435
15.1216
15.0985
15.0742
15.0488
15.0223
14.9947
14.9662
14.9368
14.9065
14.8754
14.8435
14.811
14.7778
14.744
14.7098
14.6751
14.64
14.6047
14.5691
14.5334
14.4975
14.4616
14.4257
14.3898
14.354
14.3184
14.2829
14.2476
14.2125
14.1777
14.1431
14.1087
14.0746
14.0408
14.0072
13.9739
13.9408
13.9079
13.8753
13.8429
13.8107
13.7787
13.7469
13.7152
13.6837
13.6523
13.6211
13.5899
13.5589
13.5279
13.4971
13.4662
13.4355
13.4048
13.3741
13.3434
13.3128
13.2821
13.2515
13.2208
13.1901
13.1594
13.1287
13.0979
13.067
13.0361
13.0052
12.9742
12.9431
12.9119
12.8806
12.8493
12.8179
12.7864
12.7548
12.7231
12.6913
12.6594
12.6274
12.5953
12.5631
12.5308
12.4983
12.4658
12.4331
12.4003
12.3674
12.3344
12.3013
12.268
12.2346
12.2011
12.1675
12.1338
12.0999
12.0659
12.0318
11.9976
11.9633
11.9288
11.8942
11.8595
11.8246
11.7896
11.7545
11.7193
11.684
11.6485
11.6129
11.5772
11.5414
11.5055
11.4694
11.4332
11.3969
11.3605
11.324
11.2873
11.2506
11.2137
11.1767
11.1396
11.1024
11.0651
11.0277
10.9902
10.9525
10.9148
10.877
10.839
10.801
10.7629
10.7246
10.6863
10.6479
10.6094
10.5708
10.5321
10.4934
10.4545
10.4156
10.3766
10.3375
10.2983
10.2591
10.2198
10.1804
10.141
10.1014
10.0618
10.0221
9.98238
9.94255
9.90264
9.86264
9.82256
9.78238
9.7421
9.70171
9.6612
9.62056
9.57977
9.53881
9.49767
9.45631
9.41473
9.37285
9.33065
9.28801
15.2853
15.2828
15.2791
15.2742
15.2678
15.26
15.2506
15.2398
15.2275
15.2138
15.1986
15.1821
15.1641
15.1448
15.1243
15.1024
15.0794
15.0551
15.0298
15.0033
14.9759
14.9474
14.9181
14.8878
14.8568
14.825
14.7925
14.7593
14.7256
14.6915
14.6568
14.6218
14.5865
14.551
14.5153
14.4795
14.4437
14.4078
14.372
14.3363
14.3007
14.2653
14.2301
14.1951
14.1603
14.1257
14.0914
14.0574
14.0236
13.9901
13.9568
13.9238
13.891
13.8584
13.8261
13.7939
13.762
13.7302
13.6986
13.6671
13.6358
13.6046
13.5735
13.5425
13.5116
13.4808
13.4501
13.4194
13.3887
13.3581
13.3275
13.2969
13.2663
13.2357
13.2051
13.1745
13.1438
13.1131
13.0824
13.0516
13.0207
12.9898
12.9588
12.9278
12.8967
12.8655
12.8342
12.8029
12.7714
12.7399
12.7082
12.6765
12.6446
12.6127
12.5806
12.5485
12.5162
12.4838
12.4513
12.4187
12.386
12.3532
12.3202
12.2871
12.2539
12.2206
12.1872
12.1536
12.12
12.0862
12.0522
12.0182
11.984
11.9497
11.9153
11.8808
11.8461
11.8113
11.7764
11.7414
11.7062
11.6709
11.6355
11.6
11.5644
11.5286
11.4927
11.4567
11.4206
11.3844
11.348
11.3116
11.275
11.2383
11.2015
11.1645
11.1275
11.0904
11.0531
11.0158
10.9783
10.9407
10.9031
10.8653
10.8274
10.7894
10.7514
10.7132
10.675
10.6366
10.5982
10.5597
10.521
10.4823
10.4436
10.4047
10.3658
10.3267
10.2877
10.2485
10.2092
10.1699
10.1305
10.0911
10.0515
10.0119
9.97223
9.93247
9.89262
9.85269
9.81268
9.77257
9.73236
9.69203
9.65159
9.61101
9.57029
9.5294
9.48832
9.44703
9.40551
9.36369
9.32155
9.27896
15.2494
15.2458
15.2409
15.2346
15.2269
15.2177
15.2069
15.1947
15.1811
15.166
15.1495
15.1316
15.1124
15.092
15.0702
15.0472
15.0231
14.9978
14.9715
14.9441
14.9158
14.8865
14.8564
14.8254
14.7937
14.7613
14.7283
14.6947
14.6606
14.6261
14.5912
14.556
14.5206
14.485
14.4493
14.4135
14.3778
14.3421
14.3065
14.271
14.2357
14.2005
14.1656
14.1309
14.0965
14.0623
14.0284
13.9947
13.9612
13.9281
13.8951
13.8624
13.83
13.7977
13.7656
13.7338
13.7021
13.6706
13.6392
13.608
13.5769
13.5459
13.515
13.4842
13.4535
13.4228
13.3922
13.3616
13.3311
13.3006
13.2701
13.2396
13.2091
13.1785
13.148
13.1174
13.0868
13.0562
13.0255
12.9947
12.9639
12.933
12.9021
12.8711
12.84
12.8088
12.7775
12.7462
12.7147
12.6832
12.6515
12.6198
12.5879
12.556
12.5239
12.4917
12.4594
12.427
12.3945
12.3619
12.3291
12.2963
12.2633
12.2302
12.197
12.1636
12.1302
12.0966
12.0629
12.0291
11.9951
11.9611
11.9269
11.8925
11.8581
11.8235
11.7889
11.754
11.7191
11.6841
11.6489
11.6136
11.5782
11.5426
11.507
11.4712
11.4353
11.3993
11.3632
11.3269
11.2906
11.2541
11.2175
11.1808
11.144
11.107
11.07
11.0329
10.9956
10.9583
10.9208
10.8832
10.8456
10.8078
10.77
10.732
10.6939
10.6558
10.6176
10.5792
10.5408
10.5023
10.4637
10.4251
10.3863
10.3475
10.3086
10.2696
10.2305
10.1914
10.1522
10.1129
10.0736
10.0341
9.99464
9.95507
9.91542
9.87569
9.83587
9.79597
9.75597
9.71587
9.67566
9.63533
9.59487
9.55426
9.51348
9.47252
9.43134
9.38992
9.34821
9.30617
9.26368
15.1964
15.1916
15.1854
15.1778
15.1686
15.158
15.146
15.1324
15.1175
15.1011
15.0834
15.0643
15.044
15.0223
14.9995
14.9755
14.9504
14.9242
14.8969
14.8687
14.8396
14.8096
14.7788
14.7472
14.715
14.6821
14.6486
14.6147
14.5803
14.5456
14.5106
14.4753
14.4399
14.4043
14.3687
14.3331
14.2976
14.2621
14.2268
14.1916
14.1566
14.1219
14.0873
14.053
14.019
13.9852
13.9516
13.9183
13.8853
13.8525
13.82
13.7876
13.7555
13.7236
13.6919
13.6603
13.6289
13.5977
13.5666
13.5357
13.5048
13.474
13.4434
13.4128
13.3823
13.3518
13.3213
13.2909
13.2606
13.2302
13.1998
13.1695
13.1391
13.1087
13.0782
13.0478
13.0172
12.9867
12.9561
12.9254
12.8946
12.8638
12.8329
12.802
12.7709
12.7398
12.7086
12.6773
12.6459
12.6144
12.5828
12.551
12.5192
12.4873
12.4553
12.4231
12.3909
12.3585
12.326
12.2934
12.2607
12.2279
12.1949
12.1618
12.1286
12.0953
12.0619
12.0283
11.9947
11.9609
11.9269
11.8929
11.8587
11.8244
11.79
11.7555
11.7208
11.686
11.6511
11.6161
11.581
11.5457
11.5103
11.4748
11.4392
11.4034
11.3676
11.3316
11.2955
11.2593
11.223
11.1866
11.15
11.1134
11.0766
11.0397
11.0027
10.9656
10.9284
10.8911
10.8537
10.8162
10.7786
10.7409
10.7031
10.6653
10.6273
10.5892
10.551
10.5128
10.4744
10.436
10.3975
10.3589
10.3203
10.2815
10.2427
10.2038
10.1649
10.1258
10.0867
10.0475
10.0083
9.96893
9.92952
9.89004
9.85048
9.81083
9.7711
9.73126
9.69134
9.65129
9.61113
9.57084
9.53039
9.48979
9.44899
9.40797
9.36672
9.32517
9.28328
9.24096
15.1311
15.1264
15.1204
15.1129
15.104
15.0935
15.0816
15.0683
15.0535
15.0373
15.0197
15.0008
14.9806
14.9592
14.9365
14.9127
14.8877
14.8617
14.8346
14.8066
14.7777
14.7479
14.7173
14.6859
14.6538
14.6211
14.5879
14.5541
14.52
14.4854
14.4506
14.4155
14.3803
14.3449
14.3095
14.2741
14.2388
14.2035
14.1684
14.1334
14.0986
14.0641
14.0297
13.9956
13.9618
13.9282
13.8948
13.8617
13.8289
13.7963
13.7639
13.7317
13.6998
13.6681
13.6365
13.6052
13.574
13.5429
13.512
13.4812
13.4506
13.42
13.3895
13.3591
13.3287
13.2984
13.2682
13.2379
13.2077
13.1776
13.1474
13.1172
13.087
13.0567
13.0265
12.9962
12.9659
12.9355
12.905
12.8745
12.844
12.8133
12.7826
12.7519
12.721
12.69
12.659
12.6279
12.5966
12.5653
12.5339
12.5024
12.4707
12.439
12.4072
12.3752
12.3431
12.3109
12.2786
12.2462
12.2137
12.1811
12.1483
12.1154
12.0824
12.0493
12.0161
11.9827
11.9492
11.9156
11.8819
11.848
11.814
11.7799
11.7457
11.7114
11.6769
11.6424
11.6076
11.5728
11.5379
11.5028
11.4676
11.4323
11.3969
11.3614
11.3257
11.29
11.2541
11.2181
11.182
11.1457
11.1094
11.0729
11.0364
10.9997
10.9629
10.9261
10.8891
10.852
10.8148
10.7775
10.7401
10.7026
10.6651
10.6274
10.5896
10.5517
10.5138
10.4758
10.4376
10.3994
10.3612
10.3228
10.2843
10.2458
10.2072
10.1685
10.1298
10.091
10.0521
10.0131
9.97408
9.93497
9.89579
9.85653
9.81718
9.77776
9.73825
9.69864
9.65893
9.61911
9.57917
9.5391
9.49888
9.45849
9.41791
9.37711
9.33607
9.29474
9.25306
9.21096
15.0459
15.04
15.0327
15.024
15.0137
15.002
14.9889
14.9743
14.9583
14.941
14.9223
14.9023
14.881
14.8586
14.835
14.8103
14.7844
14.7576
14.7298
14.7011
14.6715
14.6411
14.61
14.5782
14.5457
14.5127
14.4792
14.4453
14.411
14.3764
14.3416
14.3066
14.2715
14.2363
14.2012
14.1661
14.131
14.0962
14.0614
14.0269
13.9926
13.9585
13.9246
13.891
13.8576
13.8245
13.7916
13.759
13.7267
13.6945
13.6626
13.6309
13.5994
13.5681
13.5369
13.506
13.4751
13.4445
13.4139
13.3834
13.3531
13.3228
13.2926
13.2625
13.2324
13.2024
13.1724
13.1424
13.1124
13.0825
13.0525
13.0225
12.9925
12.9625
12.9324
12.9023
12.8721
12.8419
12.8116
12.7813
12.7509
12.7204
12.6898
12.6592
12.6285
12.5977
12.5667
12.5357
12.5047
12.4735
12.4422
12.4108
12.3792
12.3476
12.3159
12.2841
12.2521
12.22
12.1879
12.1556
12.1232
12.0906
12.058
12.0252
11.9923
11.9593
11.9262
11.893
11.8596
11.8261
11.7925
11.7588
11.7249
11.691
11.6569
11.6226
11.5883
11.5538
11.5193
11.4846
11.4498
11.4148
11.3798
11.3446
11.3093
11.2739
11.2384
11.2028
11.167
11.1312
11.0952
11.0591
11.0229
10.9866
10.9502
10.9137
10.8771
10.8404
10.8035
10.7666
10.7296
10.6925
10.6552
10.6179
10.5805
10.543
10.5054
10.4677
10.43
10.3921
10.3542
10.3161
10.278
10.2399
10.2016
10.1633
10.1249
10.0864
10.0479
10.0092
9.97055
9.93179
9.89295
9.85404
9.81505
9.77598
9.73683
9.69759
9.65826
9.61882
9.57928
9.53961
9.49982
9.45987
9.41975
9.37944
9.33892
9.29815
9.25708
9.21567
9.17385
14.9446
14.9375
14.929
14.919
14.9075
14.8946
14.8803
14.8645
14.8474
14.829
14.8092
14.7883
14.7661
14.7427
14.7182
14.6927
14.6661
14.6386
14.6101
14.5808
14.5507
14.5199
14.4883
14.4562
14.4234
14.3902
14.3566
14.3226
14.2883
14.2537
14.219
14.1842
14.1494
14.1145
14.0797
14.045
14.0104
13.9759
13.9417
13.9076
13.8738
13.8402
13.8069
13.7738
13.741
13.7084
13.6761
13.644
13.6121
13.5805
13.5491
13.5178
13.4868
13.4559
13.4252
13.3946
13.3642
13.3339
13.3037
13.2736
13.2436
13.2137
13.1838
13.154
13.1243
13.0945
13.0648
13.0351
13.0054
12.9757
12.9459
12.9162
12.8864
12.8566
12.8268
12.7969
12.7669
12.7369
12.7068
12.6767
12.6465
12.6162
12.5858
12.5553
12.5248
12.4942
12.4634
12.4326
12.4017
12.3706
12.3395
12.3083
12.2769
12.2455
12.2139
12.1822
12.1505
12.1186
12.0865
12.0544
12.0222
11.9898
11.9573
11.9247
11.892
11.8591
11.8262
11.7931
11.7599
11.7266
11.6931
11.6596
11.6259
11.5921
11.5582
11.5241
11.49
11.4557
11.4213
11.3868
11.3521
11.3174
11.2825
11.2475
11.2124
11.1772
11.1419
11.1064
11.0709
11.0352
10.9994
10.9635
10.9275
10.8914
10.8552
10.8189
10.7825
10.746
10.7094
10.6727
10.6358
10.5989
10.5619
10.5248
10.4876
10.4504
10.413
10.3755
10.338
10.3004
10.2627
10.2249
10.1871
10.1491
10.1111
10.073
10.0349
9.99666
9.95836
9.91999
9.88155
9.84303
9.80445
9.76578
9.72704
9.68821
9.6493
9.61029
9.57119
9.53197
9.49263
9.45316
9.41354
9.37375
9.33376
9.29356
9.25311
9.21237
9.17128
9.12978
14.8345
14.8276
14.8194
14.8096
14.7984
14.7858
14.7717
14.7563
14.7394
14.7213
14.7018
14.6811
14.6592
14.6362
14.612
14.5868
14.5605
14.5333
14.5052
14.4762
14.4464
14.4159
14.3846
14.3528
14.3204
14.2875
14.2542
14.2205
14.1865
14.1523
14.118
14.0835
14.049
14.0145
13.98
13.9456
13.9113
13.8772
13.8433
13.8096
13.7761
13.7429
13.7099
13.6771
13.6446
13.6123
13.5803
13.5486
13.517
13.4857
13.4546
13.4237
13.3929
13.3624
13.332
13.3017
13.2716
13.2416
13.2117
13.1819
13.1522
13.1226
13.093
13.0635
13.0341
13.0046
12.9752
12.9458
12.9164
12.887
12.8576
12.8281
12.7987
12.7691
12.7396
12.71
12.6803
12.6506
12.6209
12.591
12.5611
12.5311
12.5011
12.4709
12.4407
12.4104
12.3799
12.3494
12.3188
12.2881
12.2573
12.2264
12.1953
12.1642
12.1329
12.1016
12.0701
12.0385
12.0068
11.975
11.9431
11.9111
11.8789
11.8466
11.8142
11.7817
11.7491
11.7163
11.6835
11.6505
11.6174
11.5841
11.5508
11.5173
11.4837
11.45
11.4162
11.3823
11.3482
11.314
11.2797
11.2453
11.2108
11.1762
11.1414
11.1065
11.0716
11.0365
11.0012
10.9659
10.9305
10.895
10.8593
10.8236
10.7877
10.7518
10.7157
10.6796
10.6433
10.6069
10.5705
10.5339
10.4973
10.4606
10.4237
10.3868
10.3498
10.3127
10.2756
10.2383
10.201
10.1636
10.1261
10.0885
10.0509
10.0132
9.97539
9.93754
9.89962
9.86162
9.82355
9.78541
9.7472
9.70891
9.67054
9.63209
9.59355
9.55492
9.51619
9.47735
9.43839
9.39929
9.36005
9.32063
9.28103
9.2412
9.20112
9.16075
9.12004
9.07893
14.7034
14.6954
14.686
14.6751
14.6627
14.649
14.6339
14.6173
14.5995
14.5804
14.56
14.5385
14.5157
14.4919
14.467
14.4411
14.4142
14.3864
14.3578
14.3284
14.2982
14.2674
14.2359
14.2039
14.1714
14.1384
14.1051
14.0715
14.0377
14.0037
13.9696
13.9355
13.9013
13.8672
13.8332
13.7993
13.7656
13.7321
13.6987
13.6656
13.6327
13.6001
13.5677
13.5356
13.5037
13.4721
13.4406
13.4095
13.3785
13.3477
13.3172
13.2868
13.2566
13.2265
13.1966
13.1669
13.1372
13.1077
13.0783
13.0489
13.0196
12.9904
12.9612
12.9321
12.903
12.8739
12.8449
12.8158
12.7867
12.7576
12.7285
12.6994
12.6702
12.641
12.6118
12.5825
12.5531
12.5237
12.4942
12.4646
12.435
12.4053
12.3755
12.3456
12.3156
12.2856
12.2554
12.2251
12.1948
12.1643
12.1337
12.1031
12.0723
12.0414
12.0104
11.9793
11.9481
11.9167
11.8853
11.8537
11.8221
11.7903
11.7584
11.7263
11.6942
11.6619
11.6296
11.5971
11.5644
11.5317
11.4989
11.4659
11.4328
11.3996
11.3663
11.3328
11.2993
11.2656
11.2318
11.1979
11.1639
11.1297
11.0955
11.0611
11.0266
10.9921
10.9573
10.9225
10.8876
10.8526
10.8175
10.7822
10.7469
10.7114
10.6759
10.6402
10.6045
10.5686
10.5326
10.4966
10.4605
10.4242
10.3879
10.3515
10.315
10.2784
10.2417
10.205
10.1681
10.1312
10.0942
10.0571
10.02
9.98279
9.94549
9.90813
9.8707
9.8332
9.79562
9.75797
9.72026
9.68247
9.6446
9.60666
9.56863
9.53052
9.49231
9.45401
9.41559
9.37706
9.33839
9.29957
9.26058
9.2214
9.182
9.14234
9.1024
9.06212
9.02145
14.5574
14.5484
14.5378
14.5258
14.5124
14.4976
14.4815
14.464
14.4452
14.4252
14.404
14.3817
14.3582
14.3337
14.3082
14.2817
14.2543
14.2261
14.1971
14.1673
14.1369
14.1058
14.0742
14.0421
14.0096
13.9767
13.9435
13.9101
13.8765
13.8429
13.8091
13.7754
13.7417
13.7081
13.6747
13.6414
13.6083
13.5753
13.5426
13.5102
13.478
13.446
13.4143
13.3828
13.3516
13.3205
13.2898
13.2592
13.2288
13.1987
13.1687
13.1389
13.1092
13.0797
13.0503
13.0211
12.9919
12.9629
12.9339
12.905
12.8761
12.8474
12.8186
12.7899
12.7612
12.7325
12.7038
12.6751
12.6464
12.6177
12.589
12.5602
12.5314
12.5025
12.4736
12.4446
12.4156
12.3864
12.3573
12.328
12.2987
12.2693
12.2398
12.2102
12.1805
12.1507
12.1209
12.0909
12.0608
12.0307
12.0004
11.97
11.9395
11.9089
11.8782
11.8474
11.8165
11.7854
11.7543
11.723
11.6916
11.6601
11.6285
11.5968
11.5649
11.533
11.5009
11.4687
11.4364
11.4039
11.3714
11.3387
11.3059
11.273
11.24
11.2069
11.1736
11.1403
11.1068
11.0732
11.0395
11.0057
10.9718
10.9377
10.9036
10.8693
10.8349
10.8005
10.7659
10.7312
10.6964
10.6615
10.6265
10.5914
10.5562
10.5209
10.4855
10.45
10.4144
10.3787
10.3429
10.307
10.2711
10.235
10.1989
10.1627
10.1264
10.09
10.0536
10.017
9.98043
9.94375
9.907
9.87017
9.83328
9.79631
9.75928
9.72217
9.685
9.64775
9.61043
9.57304
9.53557
9.49801
9.46037
9.42264
9.38481
9.34687
9.30881
9.27061
9.23227
9.19375
9.15504
9.11612
9.07694
9.03747
8.99767
8.95749
14.3971
14.3869
14.3753
14.3623
14.3479
14.3321
14.315
14.2967
14.2771
14.2563
14.2343
14.2113
14.1872
14.1621
14.1361
14.1091
14.0813
14.0527
14.0234
13.9934
13.9628
13.9317
13.9
13.8679
13.8355
13.8028
13.7699
13.7368
13.7036
13.6703
13.637
13.6038
13.5707
13.5377
13.5048
13.4722
13.4397
13.4075
13.3755
13.3437
13.3122
13.2809
13.2499
13.2191
13.1886
13.1582
13.1281
13.0982
13.0684
13.0389
13.0095
12.9803
12.9512
12.9222
12.8934
12.8647
12.836
12.8075
12.779
12.7506
12.7222
12.6939
12.6656
12.6373
12.6091
12.5808
12.5525
12.5242
12.4959
12.4676
12.4392
12.4108
12.3824
12.3539
12.3253
12.2967
12.268
12.2393
12.2104
12.1815
12.1526
12.1235
12.0943
12.0651
12.0357
12.0063
11.9768
11.9471
11.9174
11.8876
11.8576
11.8276
11.7974
11.7671
11.7368
11.7063
11.6757
11.645
11.6142
11.5832
11.5522
11.521
11.4897
11.4583
11.4268
11.3952
11.3635
11.3316
11.2996
11.2676
11.2354
11.203
11.1706
11.138
11.1054
11.0726
11.0397
11.0067
10.9736
10.9404
10.907
10.8736
10.84
10.8064
10.7726
10.7387
10.7047
10.6706
10.6364
10.6021
10.5677
10.5332
10.4985
10.4638
10.429
10.3941
10.3591
10.324
10.2888
10.2535
10.2182
10.1827
10.1472
10.1116
10.0758
10.0401
10.0042
9.96825
9.93222
9.89613
9.85995
9.82371
9.7874
9.75102
9.71457
9.67805
9.64146
9.6048
9.56807
9.53127
9.49439
9.45744
9.4204
9.38328
9.34607
9.30876
9.27134
9.2338
9.19613
9.1583
9.12031
9.08213
9.04372
9.00507
8.96612
8.92685
8.88722
14.2326
14.2228
14.2116
14.199
14.185
14.1697
14.153
14.1351
14.1159
14.0956
14.0741
14.0515
14.0278
14.0032
13.9776
13.9511
13.9238
13.8957
13.8669
13.8374
13.8073
13.7766
13.7454
13.7139
13.682
13.6497
13.6173
13.5847
13.552
13.5192
13.4865
13.4538
13.4211
13.3886
13.3563
13.3242
13.2922
13.2605
13.229
13.1977
13.1667
13.1359
13.1054
13.075
13.045
13.0151
12.9855
12.956
12.9268
12.8977
12.8688
12.84
12.8114
12.7829
12.7545
12.7263
12.6981
12.67
12.642
12.614
12.5861
12.5582
12.5304
12.5026
12.4747
12.4469
12.4191
12.3913
12.3635
12.3356
12.3077
12.2797
12.2517
12.2237
12.1956
12.1674
12.1392
12.1109
12.0825
12.0541
12.0256
11.997
11.9683
11.9395
11.9106
11.8817
11.8526
11.8234
11.7942
11.7648
11.7353
11.7058
11.6761
11.6463
11.6164
11.5864
11.5563
11.5261
11.4957
11.4653
11.4347
11.4041
11.3733
11.3424
11.3114
11.2802
11.249
11.2176
11.1862
11.1546
11.1229
11.0911
11.0592
11.0271
10.995
10.9627
10.9303
10.8978
10.8652
10.8325
10.7997
10.7668
10.7337
10.7006
10.6673
10.634
10.6005
10.5669
10.5333
10.4995
10.4656
10.4316
10.3975
10.3634
10.3291
10.2947
10.2603
10.2257
10.1911
10.1563
10.1215
10.0866
10.0516
10.0165
9.98137
9.94613
9.91082
9.87542
9.83996
9.80441
9.7688
9.73311
9.69736
9.66154
9.62564
9.58968
9.55365
9.51756
9.48139
9.44515
9.40884
9.37245
9.33598
9.29942
9.26278
9.22603
9.18918
9.15221
9.1151
9.07784
9.04042
9.00281
8.96497
8.92689
8.88852
8.84983
8.81079
14.0458
14.035
14.0228
14.0093
13.9944
13.9782
13.9607
13.942
13.9222
13.9011
13.879
13.8559
13.8318
13.8067
13.7807
13.7539
13.7263
13.698
13.669
13.6394
13.6093
13.5787
13.5477
13.5163
13.4846
13.4527
13.4207
13.3885
13.3563
13.3241
13.2919
13.2598
13.2279
13.1961
13.1645
13.133
13.1019
13.0709
13.0402
13.0097
12.9794
12.9494
12.9196
12.8901
12.8607
12.8316
12.8027
12.7739
12.7453
12.7169
12.6887
12.6606
12.6326
12.6047
12.5769
12.5493
12.5217
12.4941
12.4667
12.4392
12.4119
12.3845
12.3572
12.3299
12.3026
12.2752
12.2479
12.2205
12.1932
12.1657
12.1383
12.1108
12.0832
12.0556
12.028
12.0002
11.9725
11.9446
11.9166
11.8886
11.8605
11.8323
11.804
11.7757
11.7472
11.7187
11.69
11.6613
11.6324
11.6035
11.5744
11.5452
11.516
11.4866
11.4571
11.4275
11.3978
11.368
11.3381
11.3081
11.2779
11.2477
11.2173
11.1868
11.1562
11.1255
11.0947
11.0638
11.0328
11.0016
10.9703
10.9389
10.9075
10.8759
10.8441
10.8123
10.7804
10.7483
10.7162
10.6839
10.6516
10.6191
10.5865
10.5538
10.521
10.4881
10.4551
10.422
10.3888
10.3555
10.3221
10.2886
10.255
10.2213
10.1875
10.1536
10.1197
10.0856
10.0515
10.0172
9.98292
9.94851
9.91403
9.87946
9.84482
9.8101
9.7753
9.74043
9.70549
9.67047
9.63539
9.60023
9.56501
9.52972
9.49437
9.45894
9.42345
9.38789
9.35225
9.31655
9.28077
9.24491
9.20896
9.17293
9.13679
9.10055
9.06419
9.0277
8.99106
8.95425
8.91725
8.88003
8.84257
8.80482
8.76676
8.72837
13.8459
13.8341
13.821
13.8066
13.7909
13.7739
13.7558
13.7364
13.7159
13.6943
13.6717
13.6481
13.6236
13.5981
13.5719
13.5449
13.5171
13.4887
13.4597
13.4301
13.4001
13.3696
13.3388
13.3077
13.2764
13.2449
13.2133
13.1817
13.1501
13.1185
13.087
13.0556
13.0244
12.9934
12.9626
12.9319
12.9016
12.8714
12.8415
12.8118
12.7824
12.7531
12.7241
12.6954
12.6668
12.6384
12.6102
12.5822
12.5543
12.5266
12.499
12.4716
12.4442
12.417
12.3899
12.3628
12.3358
12.3089
12.282
12.2551
12.2283
12.2015
12.1747
12.1479
12.1211
12.0943
12.0675
12.0406
12.0137
11.9868
11.9598
11.9328
11.9057
11.8786
11.8514
11.8242
11.7968
11.7694
11.7419
11.7144
11.6867
11.659
11.6311
11.6032
11.5752
11.5471
11.5189
11.4906
11.4622
11.4337
11.4051
11.3764
11.3476
11.3186
11.2896
11.2605
11.2312
11.2019
11.1724
11.1428
11.1131
11.0833
11.0534
11.0234
10.9933
10.9631
10.9327
10.9022
10.8717
10.841
10.8102
10.7793
10.7483
10.7172
10.6859
10.6546
10.6231
10.5916
10.5599
10.5282
10.4963
10.4643
10.4322
10.4
10.3678
10.3354
10.3029
10.2703
10.2376
10.2048
10.1719
10.1389
10.1059
10.0727
10.0395
10.0061
9.97268
9.93916
9.90556
9.87187
9.8381
9.80425
9.77032
9.73631
9.70222
9.66807
9.63383
9.59953
9.56516
9.53071
9.49621
9.46163
9.42699
9.39228
9.3575
9.32265
9.28774
9.25276
9.2177
9.18258
9.14737
9.11208
9.0767
9.04122
9.00563
8.96993
8.93409
8.89811
8.86196
8.82562
8.78907
8.75226
8.71519
8.67781
8.64009
13.6445
13.6332
13.6206
13.6067
13.5915
13.5751
13.5574
13.5386
13.5187
13.4977
13.4756
13.4526
13.4286
13.4038
13.3781
13.3517
13.3245
13.2967
13.2683
13.2393
13.2099
13.1801
13.1499
13.1194
13.0887
13.0578
13.0269
12.9958
12.9648
12.9339
12.903
12.8723
12.8417
12.8113
12.7811
12.7511
12.7213
12.6917
12.6624
12.6334
12.6045
12.5759
12.5475
12.5193
12.4913
12.4635
12.4359
12.4085
12.3812
12.354
12.327
12.3002
12.2734
12.2467
12.2202
12.1937
12.1672
12.1409
12.1145
12.0882
12.062
12.0357
12.0095
11.9833
11.957
11.9308
11.9045
11.8782
11.8519
11.8255
11.7991
11.7727
11.7462
11.7196
11.693
11.6663
11.6395
11.6127
11.5858
11.5588
11.5317
11.5045
11.4773
11.4499
11.4225
11.395
11.3673
11.3396
11.3118
11.2839
11.2559
11.2278
11.1995
11.1712
11.1428
11.1142
11.0856
11.0568
11.028
10.999
10.9699
10.9407
10.9114
10.882
10.8525
10.8229
10.7932
10.7633
10.7334
10.7033
10.6731
10.6429
10.6125
10.582
10.5514
10.5207
10.4899
10.459
10.4279
10.3968
10.3656
10.3342
10.3028
10.2713
10.2396
10.2079
10.176
10.1441
10.1121
10.0799
10.0477
10.0154
9.98298
9.95048
9.91789
9.88522
9.85245
9.8196
9.78667
9.75365
9.72055
9.68737
9.65412
9.62079
9.58738
9.5539
9.52035
9.48673
9.45304
9.41928
9.38546
9.35157
9.31761
9.28359
9.24951
9.21535
9.18113
9.14684
9.11248
9.07804
9.04353
9.00893
8.97425
8.93947
8.90458
8.86957
8.83444
8.79916
8.76371
8.72807
8.69223
8.65614
8.61978
8.58311
8.54613
13.4204
13.4083
13.395
13.3803
13.3644
13.3474
13.3291
13.3098
13.2893
13.2679
13.2455
13.2221
13.1979
13.1728
13.147
13.1205
13.0933
13.0656
13.0373
13.0085
12.9793
12.9497
12.9199
12.8899
12.8597
12.8294
12.799
12.7686
12.7383
12.7081
12.678
12.6481
12.6184
12.5888
12.5595
12.5303
12.5015
12.4728
12.4444
12.4162
12.3882
12.3604
12.3328
12.3055
12.2783
12.2513
12.2245
12.1978
12.1713
12.1449
12.1186
12.0925
12.0664
12.0404
12.0145
11.9887
11.9629
11.9372
11.9115
11.8858
11.8602
11.8345
11.8089
11.7833
11.7576
11.7319
11.7062
11.6805
11.6547
11.6289
11.6031
11.5772
11.5512
11.5252
11.4991
11.4729
11.4467
11.4204
11.394
11.3675
11.341
11.3143
11.2876
11.2608
11.2339
11.2069
11.1798
11.1526
11.1253
11.0979
11.0704
11.0428
11.0151
10.9873
10.9594
10.9313
10.9032
10.875
10.8467
10.8182
10.7897
10.7611
10.7323
10.7034
10.6745
10.6454
10.6162
10.5869
10.5575
10.528
10.4984
10.4687
10.4388
10.4089
10.3789
10.3487
10.3185
10.2881
10.2577
10.2271
10.1965
10.1657
10.1349
10.1039
10.0729
10.0417
10.0105
9.97913
9.94769
9.91617
9.88455
9.85284
9.82104
9.78916
9.75718
9.72513
9.69298
9.66076
9.62845
9.59607
9.56361
9.53107
9.49846
9.46577
9.43301
9.40018
9.36728
9.33431
9.30128
9.26818
9.23502
9.20179
9.1685
9.13514
9.10172
9.06823
9.03467
9.00104
8.96734
8.93357
8.89971
8.86576
8.83172
8.79757
8.7633
8.72891
8.69437
8.65967
8.62478
8.58968
8.55435
8.51874
8.48285
8.44664
13.1845
13.1717
13.1577
13.1424
13.1259
13.1083
13.0895
13.0697
13.0489
13.0271
13.0044
12.9808
12.9564
12.9313
12.9054
12.8789
12.8518
12.8242
12.7961
12.7676
12.7388
12.7096
12.6803
12.6507
12.6211
12.5915
12.5618
12.5322
12.5027
12.4733
12.4441
12.415
12.3861
12.3575
12.3291
12.3008
12.2729
12.2451
12.2176
12.1903
12.1632
12.1363
12.1096
12.0831
12.0567
12.0305
12.0045
11.9786
11.9529
11.9273
11.9017
11.8763
11.851
11.8257
11.8005
11.7754
11.7502
11.7252
11.7001
11.6751
11.6501
11.6251
11.6001
11.5751
11.55
11.5249
11.4998
11.4747
11.4495
11.4243
11.399
11.3737
11.3483
11.3228
11.2973
11.2717
11.246
11.2203
11.1944
11.1685
11.1425
11.1164
11.0903
11.064
11.0377
11.0112
10.9847
10.958
10.9313
10.9045
10.8775
10.8505
10.8233
10.7961
10.7688
10.7413
10.7138
10.6861
10.6584
10.6305
10.6025
10.5744
10.5463
10.518
10.4896
10.4611
10.4325
10.4038
10.375
10.3461
10.317
10.2879
10.2587
10.2294
10.1999
10.1704
10.1408
10.111
10.0812
10.0513
10.0212
9.99109
9.96086
9.93054
9.90012
9.8696
9.83899
9.80829
9.7775
9.74662
9.71565
9.68459
9.65345
9.62222
9.59091
9.55951
9.52804
9.49648
9.46485
9.43314
9.40135
9.3695
9.33757
9.30557
9.2735
9.24136
9.20915
9.17688
9.14455
9.11215
9.0797
9.04717
9.01458
8.98193
8.94921
8.91643
8.88357
8.85065
8.81765
8.78457
8.75139
8.71813
8.68476
8.65128
8.61767
8.58391
8.55
8.5159
8.48159
8.44705
8.41225
8.37717
8.34178
12.9373
12.9239
12.9092
12.8933
12.8763
12.8582
12.8391
12.8189
12.7978
12.7758
12.7529
12.7292
12.7047
12.6796
12.6538
12.6274
12.6005
12.5731
12.5453
12.5172
12.4888
12.4602
12.4314
12.4025
12.3735
12.3446
12.3157
12.2869
12.2583
12.2298
12.2015
12.1733
12.1454
12.1177
12.0902
12.0629
12.0359
12.0091
11.9825
11.9561
11.9299
11.9039
11.8781
11.8524
11.8269
11.8016
11.7764
11.7513
11.7263
11.7015
11.6767
11.652
11.6274
11.6029
11.5784
11.554
11.5296
11.5052
11.4808
11.4565
11.4321
11.4078
11.3834
11.359
11.3346
11.3102
11.2857
11.2611
11.2366
11.212
11.1873
11.1626
11.1378
11.1129
11.088
11.063
11.0379
11.0127
10.9875
10.9622
10.9368
10.9113
10.8857
10.86
10.8343
10.8084
10.7825
10.7564
10.7303
10.704
10.6777
10.6512
10.6247
10.5981
10.5713
10.5445
10.5175
10.4905
10.4633
10.4361
10.4087
10.3813
10.3537
10.326
10.2983
10.2704
10.2424
10.2143
10.1861
10.1579
10.1295
10.101
10.0724
10.0437
10.0149
9.98605
9.95707
9.92799
9.8988
9.86952
9.84015
9.81068
9.78112
9.75146
9.72171
9.69187
9.66194
9.63192
9.60181
9.57162
9.54134
9.51097
9.48052
9.44999
9.41938
9.38869
9.35792
9.32708
9.29616
9.26517
9.2341
9.20297
9.17176
9.14049
9.10916
9.07775
9.04628
9.01476
8.98316
8.95151
8.91979
8.88801
8.85617
8.82426
8.79229
8.76025
8.72813
8.69595
8.66368
8.63132
8.59888
8.56633
8.53366
8.50088
8.46794
8.43486
8.40159
8.36811
8.33441
8.30046
8.26622
8.23169
12.6921
12.6792
12.6652
12.65
12.6337
12.6162
12.5978
12.5783
12.5579
12.5366
12.5144
12.4914
12.4677
12.4433
12.4183
12.3926
12.3665
12.3398
12.3128
12.2854
12.2578
12.2299
12.2018
12.1737
12.1455
12.1174
12.0893
12.0612
12.0333
12.0056
11.978
11.9507
11.9235
11.8966
11.8698
11.8433
11.817
11.7909
11.7651
11.7394
11.7139
11.6887
11.6636
11.6386
11.6139
11.5892
11.5647
11.5404
11.5161
11.492
11.4679
11.4439
11.42
11.3962
11.3724
11.3486
11.3249
11.3012
11.2776
11.2539
11.2302
11.2066
11.1829
11.1592
11.1355
11.1117
11.0879
11.0641
11.0402
11.0163
10.9923
10.9683
10.9442
10.92
10.8958
10.8715
10.8471
10.8227
10.7981
10.7735
10.7488
10.724
10.6992
10.6742
10.6492
10.624
10.5988
10.5735
10.548
10.5225
10.4969
10.4712
10.4454
10.4195
10.3935
10.3674
10.3412
10.3149
10.2885
10.262
10.2354
10.2086
10.1818
10.1549
10.1279
10.1008
10.0736
10.0463
10.0189
9.99135
9.96374
9.93603
9.90822
9.88031
9.85231
9.8242
9.796
9.76771
9.73931
9.71083
9.68224
9.65357
9.6248
9.59595
9.567
9.53796
9.50884
9.47963
9.45033
9.42094
9.39148
9.36192
9.33229
9.30258
9.27279
9.24292
9.21298
9.18296
9.15287
9.1227
9.09247
9.06217
9.0318
9.00136
8.97086
8.94029
8.90966
8.87897
8.84822
8.81741
8.78654
8.7556
8.72461
8.69355
8.66242
8.63123
8.59997
8.56863
8.53722
8.50572
8.47413
8.44244
8.41063
8.3787
8.34663
8.31441
8.28201
8.24941
8.21659
8.18352
8.15017
8.11654
12.4241
12.4107
12.3962
12.3806
12.3638
12.3461
12.3273
12.3076
12.2871
12.2657
12.2435
12.2205
12.1969
12.1726
12.1477
12.1223
12.0965
12.0703
12.0437
12.0168
11.9897
11.9625
11.9351
11.9078
11.8804
11.8531
11.8259
11.7988
11.7718
11.7451
11.7185
11.6921
11.666
11.64
11.6143
11.5888
11.5635
11.5384
11.5135
11.4888
11.4643
11.4399
11.4157
11.3917
11.3678
11.3441
11.3204
11.2969
11.2735
11.2502
11.2269
11.2037
11.1806
11.1575
11.1345
11.1115
11.0885
11.0656
11.0426
11.0197
10.9968
10.9738
10.9508
10.9278
10.9048
10.8817
10.8586
10.8354
10.8122
10.789
10.7657
10.7423
10.7189
10.6954
10.6718
10.6482
10.6244
10.6006
10.5768
10.5528
10.5288
10.5046
10.4804
10.4561
10.4317
10.4073
10.3827
10.358
10.3333
10.3084
10.2835
10.2584
10.2333
10.2081
10.1827
10.1573
10.1318
10.1061
10.0804
10.0546
10.0287
10.0026
9.97651
9.95029
9.92397
9.89756
9.87104
9.84443
9.81772
9.79091
9.76401
9.73701
9.70991
9.68272
9.65543
9.62805
9.60058
9.57301
9.54534
9.51759
9.48975
9.46181
9.43379
9.40568
9.37748
9.34919
9.32082
9.29237
9.26383
9.23521
9.20651
9.17773
9.14887
9.11993
9.09092
9.06184
9.03268
9.00345
8.97415
8.94478
8.91535
8.88584
8.85628
8.82665
8.79695
8.7672
8.73739
8.70752
8.67758
8.64759
8.61754
8.58742
8.55725
8.52701
8.4967
8.46633
8.43588
8.40536
8.37475
8.34405
8.31325
8.28234
8.25131
8.22014
8.18882
8.15733
8.12564
8.09373
8.06159
8.02917
7.99648
12.1461
12.1323
12.1174
12.1014
12.0844
12.0664
12.0474
12.0276
12.007
11.9856
11.9634
11.9406
11.9171
11.8931
11.8685
11.8435
11.8181
11.7923
11.7662
11.74
11.7136
11.6871
11.6605
11.634
11.6075
11.5811
11.5548
11.5287
11.5028
11.4771
11.4515
11.4262
11.4011
11.3761
11.3514
11.3269
11.3027
11.2786
11.2546
11.2309
11.2074
11.184
11.1607
11.1376
11.1146
11.0918
11.069
11.0463
11.0238
11.0013
10.9789
10.9565
10.9342
10.9119
10.8896
10.8674
10.8452
10.823
10.8008
10.7786
10.7564
10.7342
10.7119
10.6896
10.6673
10.6449
10.6225
10.6001
10.5776
10.555
10.5324
10.5097
10.487
10.4642
10.4413
10.4183
10.3953
10.3722
10.349
10.3258
10.3024
10.279
10.2554
10.2318
10.2081
10.1843
10.1605
10.1365
10.1124
10.0883
10.064
10.0397
10.0153
9.99072
9.9661
9.94137
9.91655
9.89164
9.86663
9.84152
9.81631
9.79101
9.76562
9.74012
9.71453
9.68885
9.66306
9.63719
9.61122
9.58516
9.559
9.53275
9.5064
9.47996
9.45343
9.42681
9.4001
9.37329
9.3464
9.31942
9.29235
9.26519
9.23795
9.21062
9.18321
9.15571
9.12814
9.10048
9.07274
9.04492