/*--------------------------------*- C++ -*----------------------------------*\
| =========                 |                                                 |
| \\      /  F ield         | OpenFOAM: The Open Source CFD Toolbox           |
|  \\    /   O peration     | Version:  2512                                  |
|   \\  /    A nd           | Website:  www.openfoam.com                      |
|    \\/     M anipulation  |                                                 |
\*---------------------------------------------------------------------------*/
FoamFile
{
    version     2.0;
    format      ascii;
    arch        "LSB;label=32;scalar=64";
    class       surfaceScalarField;
    location    "0.1";
    object      phi;
}
// * * * * * * * * * * * * * * * * * * * * * * * * * * * * * * * * * * * * * //

dimensions      [1 0 -1 0 0 0 0];

oriented        oriented;

internalField   nonuniform List<scalar> 
16431
(
0.000878649
0.00087964
-1.56595e-06
0.000880638
-1.49678e-06
0.000881677
-1.53763e-06
0.000882704
-1.52655e-06
0.000883692
-1.48631e-06
0.000884672
-1.47964e-06
0.000885636
-1.46352e-06
0.000886588
-1.4514e-06
0.00088754
-1.45231e-06
0.00088849
-1.45018e-06
0.000889436
-1.44533e-06
0.000890377
-1.44218e-06
0.000891316
-1.43932e-06
0.000892253
-1.43699e-06
0.000893187
-1.4353e-06
0.000894119
-1.43334e-06
0.000895049
-1.4312e-06
0.000895977
-1.4292e-06
0.000896903
-1.42732e-06
0.000897827
-1.42551e-06
0.000898749
-1.42371e-06
0.000899668
-1.42185e-06
0.000900586
-1.41996e-06
0.000901502
-1.41805e-06
0.000902415
-1.4161e-06
0.000903326
-1.41411e-06
0.000904236
-1.41208e-06
0.000905142
-1.41001e-06
0.000906047
-1.40791e-06
0.000906949
-1.40578e-06
0.000907849
-1.40361e-06
0.000908747
-1.40142e-06
0.000909642
-1.39921e-06
0.000910534
-1.397e-06
0.000911425
-1.3948e-06
0.000912313
-1.39261e-06
0.000913198
-1.39046e-06
0.000914082
-1.38834e-06
0.000914963
-1.38629e-06
0.000915841
-1.38429e-06
0.000916718
-1.38237e-06
0.000917593
-1.38053e-06
0.000918466
-1.37876e-06
0.000919336
-1.37708e-06
0.000920205
-1.37548e-06
0.000921073
-1.37396e-06
0.000921938
-1.3725e-06
0.000922802
-1.37111e-06
0.000923665
-1.36978e-06
0.000924526
-1.3685e-06
0.000925386
-1.36727e-06
0.000926244
-1.36608e-06
0.000927101
-1.36493e-06
0.000927956
-1.36381e-06
0.00092881
-1.36272e-06
0.000929663
-1.36165e-06
0.000930515
-1.3606e-06
0.000931365
-1.35957e-06
0.000932215
-1.35856e-06
0.000933063
-1.35756e-06
0.000933909
-1.35657e-06
0.000934755
-1.35558e-06
0.000935599
-1.35461e-06
0.000936443
-1.35365e-06
0.000937285
-1.35268e-06
0.000938126
-1.35173e-06
0.000938965
-1.35077e-06
0.000939804
-1.34982e-06
0.000940641
-1.34887e-06
0.000941477
-1.34793e-06
0.000942312
-1.34698e-06
0.000943146
-1.34604e-06
0.000943979
-1.3451e-06
0.00094481
-1.34415e-06
0.000945641
-1.34321e-06
0.00094647
-1.34226e-06
0.000947298
-1.34132e-06
0.000948124
-1.34037e-06
0.00094895
-1.33942e-06
0.000949774
-1.33847e-06
0.000950598
-1.33752e-06
0.00095142
-1.33657e-06
0.000952241
-1.33561e-06
0.00095306
-1.33466e-06
0.000953879
-1.3337e-06
0.000954696
-1.33274e-06
0.000955512
-1.33177e-06
0.000956327
-1.33081e-06
0.000957141
-1.32984e-06
0.000957953
-1.32886e-06
0.000958764
-1.32789e-06
0.000959574
-1.32691e-06
0.000960383
-1.32593e-06
0.000961191
-1.32495e-06
0.000961997
-1.32396e-06
0.000962802
-1.32297e-06
0.000963606
-1.32198e-06
0.000964409
-1.32098e-06
0.00096521
-1.31999e-06
0.00096601
-1.31898e-06
0.000966809
-1.31798e-06
0.000967606
-1.31697e-06
0.000968403
-1.31596e-06
0.000969198
-1.31495e-06
0.000969992
-1.31393e-06
0.000970784
-1.31291e-06
0.000971575
-1.31188e-06
0.000972365
-1.31086e-06
0.000973154
-1.30982e-06
0.000973941
-1.30879e-06
0.000974727
-1.30775e-06
0.000975512
-1.30671e-06
0.000976295
-1.30567e-06
0.000977078
-1.30462e-06
0.000977858
-1.30357e-06
0.000978638
-1.30252e-06
0.000979416
-1.30146e-06
0.000980193
-1.3004e-06
0.000980969
-1.29934e-06
0.000981743
-1.29827e-06
0.000982516
-1.2972e-06
0.000983287
-1.29613e-06
0.000984057
-1.29506e-06
0.000984826
-1.29398e-06
0.000985594
-1.29289e-06
0.00098636
-1.29181e-06
0.000987124
-1.29072e-06
0.000987888
-1.28963e-06
0.00098865
-1.28853e-06
0.00098941
-1.28743e-06
0.00099017
-1.28633e-06
0.000990928
-1.28522e-06
0.000991684
-1.28411e-06
0.000992439
-1.283e-06
0.000993193
-1.28189e-06
0.000993945
-1.28077e-06
0.000994696
-1.27965e-06
0.000995446
-1.27852e-06
0.000996194
-1.27739e-06
0.00099694
-1.27626e-06
0.000997685
-1.27513e-06
0.000998429
-1.27399e-06
0.000999172
-1.27285e-06
0.000999913
-1.27171e-06
0.00100065
-1.27056e-06
0.00100139
-1.26941e-06
0.00100213
-1.26826e-06
0.00100286
-1.2671e-06
0.0010036
-1.26595e-06
0.00100433
-1.26478e-06
0.00100506
-1.26362e-06
0.00100579
-1.26245e-06
0.00100652
-1.26128e-06
0.00100724
-1.26011e-06
0.00100797
-1.25893e-06
0.00100869
-1.25775e-06
0.00100941
-1.25657e-06
0.00101013
-1.25539e-06
0.00101085
-1.25421e-06
0.00101157
-1.25302e-06
0.00101229
-1.25183e-06
0.001013
-1.25064e-06
0.00101371
-1.24945e-06
0.00101443
-1.24825e-06
0.00101514
-1.24706e-06
0.00101584
-1.24587e-06
0.00101655
-1.24468e-06
0.00101726
-1.24349e-06
0.00101796
-1.24231e-06
0.00101866
-1.24113e-06
0.00101937
-1.23997e-06
0.00102007
-1.23879e-06
0.00102076
-1.23768e-06
0.00102146
-1.23647e-06
0.00102216
-1.2355e-06
0.00102285
-1.23416e-06
0.00102354
-1.23337e-06
0.00102423
-1.23222e-06
0.00102492
-1.23044e-06
0.00102561
-1.23191e-06
0.0010263
-1.22501e-06
0.00102699
-1.23369e-06
0.00102767
-1.21986e-06
-1.21883e-06
0.00191709
0.00191796
-1.76119e-06
0.00191869
-1.61351e-06
0.00191949
-1.67851e-06
0.00192032
-1.66682e-06
0.00192115
-1.66867e-06
0.00192197
-1.63752e-06
0.00192277
-1.61428e-06
0.00192358
-1.61779e-06
0.00192438
-1.61485e-06
0.00192518
-1.60704e-06
0.00192598
-1.60259e-06
0.00192678
-1.59799e-06
0.00192757
-1.59443e-06
0.00192836
-1.59241e-06
0.00192914
-1.58993e-06
0.00192993
-1.58711e-06
0.00193071
-1.58452e-06
0.0019315
-1.58212e-06
0.00193228
-1.57992e-06
0.00193305
-1.57777e-06
0.00193383
-1.57552e-06
0.0019346
-1.57322e-06
0.00193538
-1.57092e-06
0.00193615
-1.56856e-06
0.00193692
-1.56612e-06
0.00193768
-1.56362e-06
0.00193845
-1.56106e-06
0.00193921
-1.55845e-06
0.00193997
-1.55581e-06
0.00194073
-1.5531e-06
0.00194148
-1.55036e-06
0.00194224
-1.5476e-06
0.00194299
-1.54485e-06
0.00194374
-1.54211e-06
0.00194449
-1.5394e-06
0.00194523
-1.53675e-06
0.00194598
-1.53419e-06
0.00194672
-1.53172e-06
0.00194746
-1.52937e-06
0.0019482
-1.52714e-06
0.00194893
-1.52505e-06
0.00194967
-1.5231e-06
0.0019504
-1.52131e-06
0.00195113
-1.51967e-06
0.00195186
-1.51816e-06
0.00195258
-1.51678e-06
0.00195331
-1.51553e-06
0.00195403
-1.5144e-06
0.00195476
-1.51337e-06
0.00195548
-1.51244e-06
0.0019562
-1.51159e-06
0.00195692
-1.51082e-06
0.00195763
-1.51012e-06
0.00195835
-1.50948e-06
0.00195907
-1.50888e-06
0.00195978
-1.50833e-06
0.00196049
-1.50783e-06
0.0019612
-1.50736e-06
0.00196191
-1.50693e-06
0.00196262
-1.50651e-06
0.00196333
-1.50612e-06
0.00196403
-1.50576e-06
0.00196474
-1.50542e-06
0.00196544
-1.5051e-06
0.00196615
-1.50479e-06
0.00196685
-1.50449e-06
0.00196755
-1.5042e-06
0.00196825
-1.50393e-06
0.00196895
-1.50367e-06
0.00196964
-1.50342e-06
0.00197034
-1.50317e-06
0.00197103
-1.50294e-06
0.00197173
-1.5027e-06
0.00197242
-1.50248e-06
0.00197311
-1.50226e-06
0.0019738
-1.50204e-06
0.00197449
-1.50183e-06
0.00197517
-1.50162e-06
0.00197586
-1.50142e-06
0.00197655
-1.50122e-06
0.00197723
-1.50103e-06
0.00197791
-1.50083e-06
0.00197859
-1.50064e-06
0.00197927
-1.50045e-06
0.00197995
-1.50026e-06
0.00198063
-1.50007e-06
0.00198131
-1.49989e-06
0.00198198
-1.4997e-06
0.00198266
-1.49952e-06
0.00198333
-1.49934e-06
0.001984
-1.49915e-06
0.00198467
-1.49897e-06
0.00198534
-1.49879e-06
0.00198601
-1.49861e-06
0.00198668
-1.49844e-06
0.00198734
-1.49826e-06
0.00198801
-1.49808e-06
0.00198867
-1.4979e-06
0.00198933
-1.49772e-06
0.00198999
-1.49754e-06
0.00199065
-1.49736e-06
0.00199131
-1.49719e-06
0.00199197
-1.49701e-06
0.00199262
-1.49683e-06
0.00199328
-1.49665e-06
0.00199393
-1.49647e-06
0.00199458
-1.49629e-06
0.00199523
-1.49611e-06
0.00199588
-1.49593e-06
0.00199653
-1.49575e-06
0.00199718
-1.49557e-06
0.00199782
-1.49539e-06
0.00199847
-1.49521e-06
0.00199911
-1.49503e-06
0.00199975
-1.49485e-06
0.00200039
-1.49466e-06
0.00200103
-1.49448e-06
0.00200167
-1.4943e-06
0.0020023
-1.49411e-06
0.00200294
-1.49393e-06
0.00200357
-1.49375e-06
0.0020042
-1.49356e-06
0.00200484
-1.49338e-06
0.00200546
-1.49319e-06
0.00200609
-1.493e-06
0.00200672
-1.49282e-06
0.00200734
-1.49263e-06
0.00200797
-1.49244e-06
0.00200859
-1.49225e-06
0.00200921
-1.49206e-06
0.00200983
-1.49187e-06
0.00201045
-1.49168e-06
0.00201107
-1.49149e-06
0.00201168
-1.4913e-06
0.0020123
-1.49111e-06
0.00201291
-1.49092e-06
0.00201352
-1.49073e-06
0.00201413
-1.49053e-06
0.00201474
-1.49034e-06
0.00201535
-1.49015e-06
0.00201595
-1.48995e-06
0.00201656
-1.48976e-06
0.00201716
-1.48956e-06
0.00201776
-1.48937e-06
0.00201836
-1.48917e-06
0.00201896
-1.48897e-06
0.00201956
-1.48878e-06
0.00202015
-1.48858e-06
0.00202075
-1.48839e-06
0.00202134
-1.48819e-06
0.00202193
-1.48799e-06
0.00202252
-1.48779e-06
0.00202311
-1.4876e-06
0.0020237
-1.4874e-06
0.00202428
-1.4872e-06
0.00202487
-1.48701e-06
0.00202545
-1.48681e-06
0.00202603
-1.48662e-06
0.00202661
-1.48643e-06
0.00202719
-1.48624e-06
0.00202776
-1.48605e-06
0.00202834
-1.48587e-06
0.00202891
-1.48569e-06
0.00202948
-1.48551e-06
0.00203005
-1.48534e-06
0.00203062
-1.48518e-06
0.00203119
-1.48503e-06
0.00203176
-1.48489e-06
0.00203232
-1.48476e-06
0.00203289
-1.48467e-06
0.00203345
-1.48456e-06
0.00203401
-1.48455e-06
0.00203457
-1.48441e-06
0.00203512
-1.48464e-06
0.00203568
-1.48432e-06
0.00203623
-1.48493e-06
0.00203679
-1.48462e-06
0.00203734
-1.48453e-06
0.00203789
-1.48708e-06
0.00203844
-1.48091e-06
0.00203899
-1.49283e-06
0.00203953
-1.47844e-06
-1.50243e-06
0.00239394
0.00239451
-1.80843e-06
0.00239503
-1.7813e-06
0.00239558
-1.80652e-06
0.00239617
-1.84275e-06
0.00239675
-1.80969e-06
0.00239734
-1.7823e-06
0.00239791
-1.78591e-06
0.00239849
-1.77912e-06
0.00239906
-1.76955e-06
0.00239963
-1.76499e-06
0.0024002
-1.75858e-06
0.00240077
-1.75358e-06
0.00240134
-1.75102e-06
0.0024019
-1.74779e-06
0.00240246
-1.74412e-06
0.00240302
-1.74075e-06
0.00240358
-1.73755e-06
0.00240414
-1.73461e-06
0.0024047
-1.73176e-06
0.00240525
-1.72877e-06
0.0024058
-1.72571e-06
0.00240635
-1.72266e-06
0.0024069
-1.71954e-06
0.00240745
-1.71631e-06
0.002408
-1.71301e-06
0.00240854
-1.70964e-06
0.00240908
-1.70621e-06
0.00240962
-1.70273e-06
0.00241016
-1.69918e-06
0.0024107
-1.6956e-06
0.00241123
-1.692e-06
0.00241177
-1.68842e-06
0.0024123
-1.68487e-06
0.00241283
-1.68137e-06
0.00241336
-1.67795e-06
0.00241389
-1.67465e-06
0.00241441
-1.67148e-06
0.00241494
-1.66846e-06
0.00241546
-1.6656e-06
0.00241598
-1.66291e-06
0.0024165
-1.66041e-06
0.00241701
-1.65811e-06
0.00241753
-1.65598e-06
0.00241805
-1.65403e-06
0.00241856
-1.65224e-06
0.00241907
-1.65062e-06
0.00241958
-1.64914e-06
0.00242009
-1.6478e-06
0.0024206
-1.64658e-06
0.0024211
-1.64547e-06
0.00242161
-1.64445e-06
0.00242211
-1.64353e-06
0.00242262
-1.64269e-06
0.00242312
-1.64191e-06
0.00242362
-1.64119e-06
0.00242412
-1.64053e-06
0.00242462
-1.63992e-06
0.00242511
-1.63935e-06
0.00242561
-1.63882e-06
0.0024261
-1.63831e-06
0.0024266
-1.63785e-06
0.00242709
-1.63741e-06
0.00242758
-1.63699e-06
0.00242807
-1.63659e-06
0.00242856
-1.63621e-06
0.00242905
-1.63585e-06
0.00242953
-1.6355e-06
0.00243002
-1.63517e-06
0.0024305
-1.63485e-06
0.00243099
-1.63455e-06
0.00243147
-1.63425e-06
0.00243195
-1.63396e-06
0.00243243
-1.63368e-06
0.00243291
-1.63341e-06
0.00243338
-1.63314e-06
0.00243386
-1.63288e-06
0.00243434
-1.63263e-06
0.00243481
-1.63238e-06
0.00243528
-1.63214e-06
0.00243575
-1.6319e-06
0.00243622
-1.63166e-06
0.00243669
-1.63143e-06
0.00243716
-1.6312e-06
0.00243763
-1.63097e-06
0.00243809
-1.63075e-06
0.00243856
-1.63053e-06
0.00243902
-1.6303e-06
0.00243948
-1.63008e-06
0.00243994
-1.62987e-06
0.0024404
-1.62965e-06
0.00244086
-1.62943e-06
0.00244132
-1.62922e-06
0.00244177
-1.62901e-06
0.00244223
-1.62879e-06
0.00244268
-1.62858e-06
0.00244313
-1.62837e-06
0.00244358
-1.62816e-06
0.00244403
-1.62795e-06
0.00244448
-1.62774e-06
0.00244493
-1.62753e-06
0.00244537
-1.62732e-06
0.00244582
-1.62711e-06
0.00244626
-1.6269e-06
0.0024467
-1.62669e-06
0.00244714
-1.62647e-06
0.00244758
-1.62626e-06
0.00244802
-1.62605e-06
0.00244845
-1.62584e-06
0.00244889
-1.62563e-06
0.00244932
-1.62542e-06
0.00244976
-1.62521e-06
0.00245019
-1.625e-06
0.00245062
-1.62478e-06
0.00245105
-1.62457e-06
0.00245147
-1.62436e-06
0.0024519
-1.62414e-06
0.00245233
-1.62393e-06
0.00245275
-1.62371e-06
0.00245317
-1.6235e-06
0.00245359
-1.62328e-06
0.00245401
-1.62306e-06
0.00245443
-1.62285e-06
0.00245485
-1.62263e-06
0.00245526
-1.62241e-06
0.00245568
-1.62219e-06
0.00245609
-1.62197e-06
0.0024565
-1.62175e-06
0.00245691
-1.62153e-06
0.00245732
-1.62131e-06
0.00245773
-1.62109e-06
0.00245813
-1.62087e-06
0.00245854
-1.62065e-06
0.00245894
-1.62042e-06
0.00245934
-1.6202e-06
0.00245974
-1.61998e-06
0.00246014
-1.61975e-06
0.00246054
-1.61952e-06
0.00246093
-1.6193e-06
0.00246133
-1.61907e-06
0.00246172
-1.61885e-06
0.00246211
-1.61862e-06
0.0024625
-1.61839e-06
0.00246289
-1.61817e-06
0.00246328
-1.61794e-06
0.00246367
-1.61771e-06
0.00246405
-1.61748e-06
0.00246443
-1.61725e-06
0.00246482
-1.61702e-06
0.0024652
-1.6168e-06
0.00246557
-1.61657e-06
0.00246595
-1.61634e-06
0.00246633
-1.61611e-06
0.0024667
-1.61589e-06
0.00246707
-1.61566e-06
0.00246745
-1.61544e-06
0.00246782
-1.61521e-06
0.00246818
-1.61499e-06
0.00246855
-1.61477e-06
0.00246892
-1.61455e-06
0.00246928
-1.61434e-06
0.00246964
-1.61413e-06
0.00247
-1.61393e-06
0.00247036
-1.61374e-06
0.00247072
-1.61355e-06
0.00247108
-1.61338e-06
0.00247143
-1.61321e-06
0.00247179
-1.61307e-06
0.00247214
-1.61294e-06
0.00247249
-1.61285e-06
0.00247284
-1.61275e-06
0.00247319
-1.61277e-06
0.00247353
-1.61266e-06
0.00247388
-1.61292e-06
0.00247422
-1.61268e-06
0.00247456
-1.61336e-06
0.0024749
-1.61308e-06
0.00247524
-1.6133e-06
0.00247558
-1.61554e-06
0.00247592
-1.61049e-06
0.00247625
-1.62198e-06
0.00247659
-1.61088e-06
-1.62835e-06
0.00255771
-1.96323e-06
0.00255811
-1.76246e-06
0.00255855
-1.82715e-06
0.00255903
-1.90438e-06
0.00255949
-1.86107e-06
0.00255996
-1.83137e-06
0.00256043
-1.83898e-06
0.00256089
-1.82899e-06
0.00256136
-1.81818e-06
0.00256182
-1.81401e-06
0.00256228
-1.80615e-06
0.00256274
-1.80021e-06
0.00256319
-1.79727e-06
0.00256365
-1.7933e-06
0.0025641
-1.78897e-06
0.00256455
-1.785e-06
0.002565
-1.78115e-06
0.00256545
-1.77761e-06
0.0025659
-1.77419e-06
0.00256635
-1.77057e-06
0.00256679
-1.76686e-06
0.00256724
-1.76318e-06
0.00256768
-1.75943e-06
0.00256812
-1.75554e-06
0.00256856
-1.75158e-06
0.002569
-1.74752e-06
0.00256943
-1.74341e-06
0.00256986
-1.73924e-06
0.0025703
-1.735e-06
0.00257073
-1.73073e-06
0.00257116
-1.72645e-06
0.00257159
-1.72221e-06
0.00257201
-1.71803e-06
0.00257244
-1.71392e-06
0.00257286
-1.70993e-06
0.00257328
-1.70607e-06
0.0025737
-1.70239e-06
0.00257412
-1.69889e-06
0.00257454
-1.69558e-06
0.00257495
-1.69247e-06
0.00257537
-1.68958e-06
0.00257578
-1.68691e-06
0.00257619
-1.68445e-06
0.0025766
-1.68219e-06
0.00257701
-1.68011e-06
0.00257742
-1.67822e-06
0.00257783
-1.67649e-06
0.00257823
-1.67491e-06
0.00257864
-1.67348e-06
0.00257904
-1.67217e-06
0.00257944
-1.67097e-06
0.00257984
-1.66988e-06
0.00258024
-1.66888e-06
0.00258064
-1.66795e-06
0.00258104
-1.6671e-06
0.00258143
-1.66631e-06
0.00258183
-1.66558e-06
0.00258222
-1.66491e-06
0.00258262
-1.66427e-06
0.00258301
-1.66367e-06
0.0025834
-1.66311e-06
0.00258379
-1.66259e-06
0.00258418
-1.66209e-06
0.00258456
-1.66162e-06
0.00258495
-1.66116e-06
0.00258533
-1.66073e-06
0.00258572
-1.66032e-06
0.0025861
-1.65993e-06
0.00258648
-1.65955e-06
0.00258686
-1.65919e-06
0.00258724
-1.65884e-06
0.00258762
-1.6585e-06
0.00258799
-1.65817e-06
0.00258837
-1.65785e-06
0.00258874
-1.65753e-06
0.00258912
-1.65723e-06
0.00258949
-1.65693e-06
0.00258986
-1.65664e-06
0.00259023
-1.65636e-06
0.0025906
-1.65608e-06
0.00259096
-1.6558e-06
0.00259133
-1.65553e-06
0.00259169
-1.65526e-06
0.00259206
-1.655e-06
0.00259242
-1.65473e-06
0.00259278
-1.65448e-06
0.00259314
-1.65422e-06
0.0025935
-1.65396e-06
0.00259386
-1.65371e-06
0.00259421
-1.65346e-06
0.00259457
-1.65321e-06
0.00259492
-1.65296e-06
0.00259528
-1.65271e-06
0.00259563
-1.65247e-06
0.00259598
-1.65222e-06
0.00259633
-1.65198e-06
0.00259667
-1.65174e-06
0.00259702
-1.65149e-06
0.00259737
-1.65125e-06
0.00259771
-1.65101e-06
0.00259805
-1.65076e-06
0.00259839
-1.65052e-06
0.00259873
-1.65028e-06
0.00259907
-1.65004e-06
0.00259941
-1.64979e-06
0.00259975
-1.64955e-06
0.00260008
-1.64931e-06
0.00260042
-1.64907e-06
0.00260075
-1.64882e-06
0.00260108
-1.64858e-06
0.00260141
-1.64834e-06
0.00260174
-1.64809e-06
0.00260206
-1.64785e-06
0.00260239
-1.6476e-06
0.00260271
-1.64736e-06
0.00260304
-1.64711e-06
0.00260336
-1.64686e-06
0.00260368
-1.64661e-06
0.002604
-1.64637e-06
0.00260432
-1.64612e-06
0.00260463
-1.64587e-06
0.00260495
-1.64562e-06
0.00260526
-1.64537e-06
0.00260558
-1.64512e-06
0.00260589
-1.64487e-06
0.0026062
-1.64462e-06
0.0026065
-1.64437e-06
0.00260681
-1.64412e-06
0.00260712
-1.64386e-06
0.00260742
-1.64361e-06
0.00260772
-1.64335e-06
0.00260803
-1.6431e-06
0.00260833
-1.64284e-06
0.00260862
-1.64259e-06
0.00260892
-1.64233e-06
0.00260922
-1.64207e-06
0.00260951
-1.64181e-06
0.00260981
-1.64156e-06
0.0026101
-1.6413e-06
0.00261039
-1.64104e-06
0.00261068
-1.64078e-06
0.00261096
-1.64052e-06
0.00261125
-1.64026e-06
0.00261153
-1.64e-06
0.00261182
-1.63974e-06
0.0026121
-1.63948e-06
0.00261238
-1.63922e-06
0.00261266
-1.63896e-06
0.00261293
-1.6387e-06
0.00261321
-1.63844e-06
0.00261349
-1.63818e-06
0.00261376
-1.63792e-06
0.00261403
-1.63766e-06
0.0026143
-1.6374e-06
0.00261457
-1.63715e-06
0.00261483
-1.6369e-06
0.0026151
-1.63665e-06
0.00261536
-1.6364e-06
0.00261563
-1.63616e-06
0.00261589
-1.63592e-06
0.00261615
-1.63569e-06
0.00261641
-1.63546e-06
0.00261666
-1.63525e-06
0.00261692
-1.63504e-06
0.00261717
-1.63485e-06
0.00261742
-1.63467e-06
0.00261767
-1.63452e-06
0.00261792
-1.63439e-06
0.00261817
-1.6343e-06
0.00261842
-1.63421e-06
0.00261866
-1.63423e-06
0.0026189
-1.63418e-06
0.00261915
-1.63442e-06
0.00261939
-1.63432e-06
0.00261962
-1.63489e-06
0.00261986
-1.63496e-06
0.0026201
-1.63495e-06
0.00262033
-1.63765e-06
0.00262057
-1.63277e-06
0.0026208
-1.64378e-06
0.00262103
-1.63424e-06
-1.65013e-06
0.00260172
0.00260235
-2.02171e-06
0.00260272
-1.77195e-06
0.00260311
-1.88346e-06
0.00260356
-1.89014e-06
0.002604
-1.85808e-06
0.00260444
-1.85552e-06
0.00260486
-1.83932e-06
0.00260529
-1.83087e-06
0.00260572
-1.82763e-06
0.00260614
-1.81755e-06
0.00260656
-1.81098e-06
0.00260698
-1.80793e-06
0.0026074
-1.80328e-06
0.00260782
-1.79847e-06
0.00260824
-1.79404e-06
0.00260865
-1.78958e-06
0.00260907
-1.78554e-06
0.00260948
-1.7816e-06
0.00260989
-1.77737e-06
0.0026103
-1.77306e-06
0.00261071
-1.7688e-06
0.00261112
-1.76444e-06
0.00261153
-1.75994e-06
0.00261193
-1.75534e-06
0.00261233
-1.75064e-06
0.00261273
-1.74589e-06
0.00261313
-1.74106e-06
0.00261353
-1.73617e-06
0.00261393
-1.73126e-06
0.00261432
-1.72635e-06
0.00261472
-1.7215e-06
0.00261511
-1.71673e-06
0.0026155
-1.71206e-06
0.00261589
-1.70755e-06
0.00261627
-1.70321e-06
0.00261666
-1.69907e-06
0.00261704
-1.69516e-06
0.00261743
-1.69146e-06
0.00261781
-1.688e-06
0.00261819
-1.68479e-06
0.00261857
-1.68181e-06
0.00261895
-1.67906e-06
0.00261933
-1.67654e-06
0.0026197
-1.67422e-06
0.00262008
-1.6721e-06
0.00262045
-1.67016e-06
0.00262082
-1.66838e-06
0.00262119
-1.66677e-06
0.00262156
-1.66529e-06
0.00262193
-1.66393e-06
0.0026223
-1.66269e-06
0.00262266
-1.66155e-06
0.00262303
-1.6605e-06
0.00262339
-1.65952e-06
0.00262376
-1.65862e-06
0.00262412
-1.65779e-06
0.00262448
-1.65701e-06
0.00262484
-1.65628e-06
0.0026252
-1.65559e-06
0.00262555
-1.65495e-06
0.00262591
-1.65435e-06
0.00262626
-1.65378e-06
0.00262662
-1.65323e-06
0.00262697
-1.65272e-06
0.00262732
-1.65222e-06
0.00262767
-1.65175e-06
0.00262802
-1.6513e-06
0.00262837
-1.65087e-06
0.00262872
-1.65045e-06
0.00262906
-1.65005e-06
0.00262941
-1.64966e-06
0.00262975
-1.64928e-06
0.00263009
-1.64891e-06
0.00263043
-1.64855e-06
0.00263077
-1.64821e-06
0.00263111
-1.64787e-06
0.00263145
-1.64754e-06
0.00263178
-1.64721e-06
0.00263212
-1.64689e-06
0.00263245
-1.64658e-06
0.00263279
-1.64627e-06
0.00263312
-1.64596e-06
0.00263345
-1.64566e-06
0.00263378
-1.64536e-06
0.00263411
-1.64507e-06
0.00263443
-1.64478e-06
0.00263476
-1.64449e-06
0.00263508
-1.6442e-06
0.00263541
-1.64391e-06
0.00263573
-1.64363e-06
0.00263605
-1.64335e-06
0.00263637
-1.64307e-06
0.00263669
-1.64279e-06
0.002637
-1.64252e-06
0.00263732
-1.64224e-06
0.00263763
-1.64196e-06
0.00263795
-1.64169e-06
0.00263826
-1.64141e-06
0.00263857
-1.64114e-06
0.00263888
-1.64087e-06
0.00263919
-1.64059e-06
0.00263949
-1.64032e-06
0.0026398
-1.64004e-06
0.0026401
-1.63977e-06
0.00264041
-1.63949e-06
0.00264071
-1.63922e-06
0.00264101
-1.63895e-06
0.00264131
-1.63867e-06
0.00264161
-1.6384e-06
0.0026419
-1.63812e-06
0.0026422
-1.63785e-06
0.00264249
-1.63757e-06
0.00264278
-1.63729e-06
0.00264308
-1.63702e-06
0.00264337
-1.63674e-06
0.00264366
-1.63646e-06
0.00264394
-1.63618e-06
0.00264423
-1.6359e-06
0.00264451
-1.63562e-06
0.0026448
-1.63534e-06
0.00264508
-1.63506e-06
0.00264536
-1.63478e-06
0.00264564
-1.6345e-06
0.00264592
-1.63421e-06
0.00264619
-1.63393e-06
0.00264647
-1.63365e-06
0.00264674
-1.63336e-06
0.00264701
-1.63308e-06
0.00264729
-1.63279e-06
0.00264756
-1.6325e-06
0.00264782
-1.63222e-06
0.00264809
-1.63193e-06
0.00264836
-1.63164e-06
0.00264862
-1.63135e-06
0.00264888
-1.63106e-06
0.00264914
-1.63077e-06
0.0026494
-1.63048e-06
0.00264966
-1.63019e-06
0.00264992
-1.6299e-06
0.00265018
-1.62961e-06
0.00265043
-1.62931e-06
0.00265068
-1.62902e-06
0.00265093
-1.62873e-06
0.00265118
-1.62844e-06
0.00265143
-1.62815e-06
0.00265168
-1.62785e-06
0.00265192
-1.62756e-06
0.00265217
-1.62727e-06
0.00265241
-1.62698e-06
0.00265265
-1.62669e-06
0.00265289
-1.6264e-06
0.00265313
-1.62611e-06
0.00265337
-1.62582e-06
0.0026536
-1.62554e-06
0.00265384
-1.62526e-06
0.00265407
-1.62498e-06
0.0026543
-1.6247e-06
0.00265453
-1.62443e-06
0.00265476
-1.62417e-06
0.00265498
-1.62391e-06
0.00265521
-1.62366e-06
0.00265543
-1.62342e-06
0.00265565
-1.6232e-06
0.00265587
-1.62299e-06
0.00265609
-1.6228e-06
0.00265631
-1.62264e-06
0.00265653
-1.62251e-06
0.00265674
-1.62241e-06
0.00265695
-1.62234e-06
0.00265716
-1.62236e-06
0.00265737
-1.62236e-06
0.00265758
-1.62258e-06
0.00265779
-1.62263e-06
0.002658
-1.62305e-06
0.0026582
-1.62348e-06
0.0026584
-1.62321e-06
0.0026586
-1.62619e-06
0.0026588
-1.62202e-06
0.002659
-1.63151e-06
0.0026592
-1.62515e-06
-1.63614e-06
0.00261211
0.00261258
-1.86512e-06
0.00261297
-1.85683e-06
0.00261338
-1.88386e-06
0.00261381
-1.87211e-06
0.00261424
-1.86816e-06
0.00261466
-1.8428e-06
0.00261507
-1.83504e-06
0.00261549
-1.8326e-06
0.00261591
-1.82032e-06
0.00261632
-1.8135e-06
0.00261673
-1.81017e-06
0.00261715
-1.80456e-06
0.00261756
-1.79927e-06
0.00261796
-1.79438e-06
0.00261837
-1.7893e-06
0.00261878
-1.78478e-06
0.00261918
-1.78035e-06
0.00261958
-1.77551e-06
0.00261999
-1.7706e-06
0.00262039
-1.76578e-06
0.00262078
-1.76083e-06
0.00262118
-1.7557e-06
0.00262158
-1.75049e-06
0.00262197
-1.74515e-06
0.00262236
-1.73976e-06
0.00262276
-1.7343e-06
0.00262314
-1.72877e-06
0.00262353
-1.72321e-06
0.00262392
-1.71768e-06
0.0026243
-1.71222e-06
0.00262469
-1.70687e-06
0.00262507
-1.70166e-06
0.00262545
-1.69663e-06
0.00262583
-1.69181e-06
0.00262621
-1.68724e-06
0.00262658
-1.68292e-06
0.00262696
-1.67885e-06
0.00262733
-1.67505e-06
0.0026277
-1.67152e-06
0.00262807
-1.66825e-06
0.00262844
-1.66524e-06
0.00262881
-1.66248e-06
0.00262918
-1.65993e-06
0.00262954
-1.6576e-06
0.00262991
-1.65546e-06
0.00263027
-1.6535e-06
0.00263064
-1.65171e-06
0.002631
-1.65007e-06
0.00263136
-1.64857e-06
0.00263172
-1.64718e-06
0.00263208
-1.64592e-06
0.00263243
-1.64474e-06
0.00263279
-1.64365e-06
0.00263314
-1.64264e-06
0.0026335
-1.64171e-06
0.00263385
-1.64083e-06
0.0026342
-1.64001e-06
0.00263455
-1.63925e-06
0.0026349
-1.63852e-06
0.00263525
-1.63784e-06
0.00263559
-1.6372e-06
0.00263594
-1.63659e-06
0.00263628
-1.63601e-06
0.00263662
-1.63545e-06
0.00263697
-1.63493e-06
0.00263731
-1.63442e-06
0.00263765
-1.63393e-06
0.00263799
-1.63346e-06
0.00263832
-1.63301e-06
0.00263866
-1.63257e-06
0.00263899
-1.63215e-06
0.00263933
-1.63174e-06
0.00263966
-1.63133e-06
0.00263999
-1.63094e-06
0.00264032
-1.63056e-06
0.00264065
-1.63019e-06
0.00264098
-1.62983e-06
0.00264131
-1.62947e-06
0.00264163
-1.62912e-06
0.00264196
-1.62877e-06
0.00264228
-1.62843e-06
0.0026426
-1.62809e-06
0.00264292
-1.62776e-06
0.00264324
-1.62743e-06
0.00264356
-1.6271e-06
0.00264388
-1.62678e-06
0.0026442
-1.62646e-06
0.00264451
-1.62614e-06
0.00264483
-1.62582e-06
0.00264514
-1.62551e-06
0.00264545
-1.6252e-06
0.00264576
-1.62489e-06
0.00264607
-1.62458e-06
0.00264638
-1.62427e-06
0.00264668
-1.62396e-06
0.00264699
-1.62366e-06
0.00264729
-1.62335e-06
0.00264759
-1.62304e-06
0.00264789
-1.62274e-06
0.00264819
-1.62243e-06
0.00264849
-1.62213e-06
0.00264879
-1.62182e-06
0.00264909
-1.62151e-06
0.00264938
-1.62121e-06
0.00264967
-1.6209e-06
0.00264997
-1.6206e-06
0.00265026
-1.62029e-06
0.00265055
-1.61999e-06
0.00265084
-1.61968e-06
0.00265112
-1.61937e-06
0.00265141
-1.61907e-06
0.00265169
-1.61876e-06
0.00265198
-1.61845e-06
0.00265226
-1.61814e-06
0.00265254
-1.61783e-06
0.00265282
-1.61752e-06
0.0026531
-1.61721e-06
0.00265337
-1.6169e-06
0.00265365
-1.61659e-06
0.00265392
-1.61628e-06
0.00265419
-1.61596e-06
0.00265447
-1.61565e-06
0.00265473
-1.61533e-06
0.002655
-1.61502e-06
0.00265527
-1.6147e-06
0.00265554
-1.61439e-06
0.0026558
-1.61407e-06
0.00265606
-1.61375e-06
0.00265632
-1.61343e-06
0.00265658
-1.61311e-06
0.00265684
-1.61279e-06
0.0026571
-1.61247e-06
0.00265736
-1.61215e-06
0.00265761
-1.61183e-06
0.00265786
-1.61151e-06
0.00265812
-1.61119e-06
0.00265837
-1.61086e-06
0.00265861
-1.61054e-06
0.00265886
-1.61021e-06
0.00265911
-1.60989e-06
0.00265935
-1.60957e-06
0.0026596
-1.60924e-06
0.00265984
-1.60892e-06
0.00266008
-1.60859e-06
0.00266032
-1.60827e-06
0.00266055
-1.60794e-06
0.00266079
-1.60762e-06
0.00266102
-1.6073e-06
0.00266126
-1.60698e-06
0.00266149
-1.60666e-06
0.00266172
-1.60634e-06
0.00266195
-1.60602e-06
0.00266217
-1.60571e-06
0.0026624
-1.6054e-06
0.00266262
-1.60509e-06
0.00266285
-1.60478e-06
0.00266307
-1.60449e-06
0.00266329
-1.6042e-06
0.00266351
-1.60391e-06
0.00266372
-1.60364e-06
0.00266394
-1.60338e-06
0.00266415
-1.60314e-06
0.00266436
-1.60292e-06
0.00266457
-1.60271e-06
0.00266478
-1.60254e-06
0.00266499
-1.6024e-06
0.0026652
-1.6023e-06
0.0026654
-1.60224e-06
0.0026656
-1.60226e-06
0.00266581
-1.6023e-06
0.00266601
-1.6025e-06
0.00266621
-1.60267e-06
0.0026664
-1.60301e-06
0.0026666
-1.60371e-06
0.00266679
-1.60332e-06
0.00266699
-1.60638e-06
0.00266718
-1.60294e-06
0.00266737
-1.61082e-06
0.00266756
-1.60689e-06
-1.61483e-06
0.00261445
-1.99218e-06
0.00261481
-1.80168e-06
0.00261524
-1.89503e-06
0.00261567
-1.89009e-06
0.00261609
-1.87279e-06
0.00261651
-1.84195e-06
0.00261693
-1.84025e-06
0.00261734
-1.83616e-06
0.00261775
-1.81999e-06
0.00261817
-1.81373e-06
0.00261858
-1.8103e-06
0.00261899
-1.80376e-06
0.00261939
-1.79827e-06
0.0026198
-1.79292e-06
0.00262021
-1.7872e-06
0.00262061
-1.7823e-06
0.00262101
-1.77736e-06
0.00262141
-1.77188e-06
0.00262181
-1.76641e-06
0.00262221
-1.76102e-06
0.00262261
-1.75549e-06
0.002623
-1.74975e-06
0.0026234
-1.74389e-06
0.00262379
-1.73794e-06
0.00262418
-1.73192e-06
0.00262457
-1.72579e-06
0.00262496
-1.71962e-06
0.00262534
-1.71341e-06
0.00262573
-1.70725e-06
0.00262611
-1.70118e-06
0.00262649
-1.69523e-06
0.00262687
-1.68947e-06
0.00262725
-1.68392e-06
0.00262763
-1.67863e-06
0.00262801
-1.67362e-06
0.00262838
-1.66889e-06
0.00262875
-1.66445e-06
0.00262912
-1.66031e-06
0.00262949
-1.65649e-06
0.00262986
-1.65294e-06
0.00263023
-1.64966e-06
0.0026306
-1.64665e-06
0.00263096
-1.64388e-06
0.00263133
-1.64135e-06
0.00263169
-1.63902e-06
0.00263205
-1.63688e-06
0.00263241
-1.63492e-06
0.00263277
-1.63312e-06
0.00263313
-1.63148e-06
0.00263349
-1.62996e-06
0.00263385
-1.62856e-06
0.0026342
-1.62727e-06
0.00263456
-1.62607e-06
0.00263491
-1.62496e-06
0.00263526
-1.62392e-06
0.00263561
-1.62296e-06
0.00263596
-1.62205e-06
0.00263631
-1.6212e-06
0.00263666
-1.6204e-06
0.002637
-1.61965e-06
0.00263735
-1.61894e-06
0.00263769
-1.61826e-06
0.00263803
-1.61762e-06
0.00263837
-1.617e-06
0.00263871
-1.61641e-06
0.00263905
-1.61585e-06
0.00263939
-1.61531e-06
0.00263973
-1.61479e-06
0.00264006
-1.61429e-06
0.0026404
-1.61381e-06
0.00264073
-1.61334e-06
0.00264106
-1.61288e-06
0.0026414
-1.61243e-06
0.00264173
-1.612e-06
0.00264205
-1.61158e-06
0.00264238
-1.61117e-06
0.00264271
-1.61076e-06
0.00264303
-1.61037e-06
0.00264336
-1.60998e-06
0.00264368
-1.60959e-06
0.002644
-1.60922e-06
0.00264432
-1.60884e-06
0.00264464
-1.60848e-06
0.00264496
-1.60811e-06
0.00264528
-1.60775e-06
0.00264559
-1.6074e-06
0.00264591
-1.60704e-06
0.00264622
-1.60669e-06
0.00264653
-1.60634e-06
0.00264684
-1.606e-06
0.00264715
-1.60565e-06
0.00264746
-1.60531e-06
0.00264777
-1.60497e-06
0.00264807
-1.60463e-06
0.00264838
-1.60429e-06
0.00264868
-1.60395e-06
0.00264898
-1.60361e-06
0.00264929
-1.60328e-06
0.00264959
-1.60294e-06
0.00264988
-1.6026e-06
0.00265018
-1.60226e-06
0.00265048
-1.60193e-06
0.00265077
-1.60159e-06
0.00265106
-1.60125e-06
0.00265136
-1.60092e-06
0.00265165
-1.60058e-06
0.00265194
-1.60025e-06
0.00265222
-1.59991e-06
0.00265251
-1.59957e-06
0.0026528
-1.59923e-06
0.00265308
-1.5989e-06
0.00265336
-1.59856e-06
0.00265364
-1.59822e-06
0.00265392
-1.59788e-06
0.0026542
-1.59753e-06
0.00265448
-1.5972e-06
0.00265476
-1.59685e-06
0.00265503
-1.59651e-06
0.00265531
-1.59617e-06
0.00265558
-1.59582e-06
0.00265585
-1.59548e-06
0.00265612
-1.59513e-06
0.00265639
-1.59479e-06
0.00265665
-1.59444e-06
0.00265692
-1.59409e-06