/*--------------------------------*- C++ -*----------------------------------*\
| =========                 |                                                 |
| \\      /  F ield         | OpenFOAM: The Open Source CFD Toolbox           |
|  \\    /   O peration     | Version:  2512                                  |
|   \\  /    A nd           | Website:  www.openfoam.com                      |
|    \\/     M anipulation  |                                                 |
\*---------------------------------------------------------------------------*/
FoamFile
{
    version     2.0;
    format      ascii;
    arch        "LSB;label=32;scalar=64";
    class       surfaceScalarField;
    location    "0.1";
    object      phiB;
}
// * * * * * * * * * * * * * * * * * * * * * * * * * * * * * * * * * * * * * //

dimensions      [1 2 -2 0 0 -1 0];

oriented        oriented;

internalField   nonuniform List<scalar> 
16431
(
7.64948e-09
7.65241e-09
0.00192
7.6553e-09
0.00192
7.65841e-09
0.00192
7.66171e-09
0.00192
7.66505e-09
0.00192
7.66843e-09
0.00192
7.67183e-09
0.00192
7.67517e-09
0.00192
7.67846e-09
0.00192
7.68174e-09
0.00192
7.68497e-09
0.00192
7.68815e-09
0.00192
7.69128e-09
0.00192
7.69436e-09
0.00192
7.69737e-09
0.00192
7.70032e-09
0.00192
7.70321e-09
0.00192
7.70603e-09
0.00192
7.70879e-09
0.00192
7.71147e-09
0.00192
7.71407e-09
0.00192
7.7166e-09
0.00192
7.71904e-09
0.00192
7.7214e-09
0.00192
7.72369e-09
0.00192
7.72589e-09
0.00192
7.72798e-09
0.00192
7.72999e-09
0.00192
7.73189e-09
0.00192
7.7337e-09
0.00192
7.73542e-09
0.00192
7.73703e-09
0.00192
7.73855e-09
0.00192
7.73998e-09
0.00192
7.74132e-09
0.00192
7.74257e-09
0.00192
7.74375e-09
0.00192
7.74485e-09
0.00192
7.74589e-09
0.00192
7.74687e-09
0.00192
7.7478e-09
0.00192
7.74869e-09
0.00192
7.74954e-09
0.00192
7.75037e-09
0.00192
7.75118e-09
0.00192
7.75197e-09
0.00192
7.75275e-09
0.00192
7.75352e-09
0.00192
7.75429e-09
0.00192
7.75507e-09
0.00192
7.75585e-09
0.00192
7.75664e-09
0.00192
7.75743e-09
0.00192
7.75824e-09
0.00192
7.75906e-09
0.00192
7.7599e-09
0.00192
7.76075e-09
0.00192
7.76162e-09
0.00192
7.7625e-09
0.00192
7.76339e-09
0.00192
7.7643e-09
0.00192
7.76522e-09
0.00192
7.76616e-09
0.00192
7.76712e-09
0.00192
7.76809e-09
0.00192
7.76907e-09
0.00192
7.77006e-09
0.00192
7.77106e-09
0.00192
7.77207e-09
0.00192
7.77309e-09
0.00192
7.77412e-09
0.00192
7.77517e-09
0.00192
7.77622e-09
0.00192
7.77728e-09
0.00192
7.77835e-09
0.00192
7.77942e-09
0.00192
7.7805e-09
0.00192
7.78159e-09
0.00192
7.78268e-09
0.00192
7.78377e-09
0.00192
7.78487e-09
0.00192
7.78597e-09
0.00192
7.78708e-09
0.00192
7.78818e-09
0.00192
7.7893e-09
0.00192
7.79041e-09
0.00192
7.79152e-09
0.00192
7.79264e-09
0.00192
7.79375e-09
0.00192
7.79487e-09
0.00192
7.79599e-09
0.00192
7.79711e-09
0.00192
7.79822e-09
0.00192
7.79934e-09
0.00192
7.80045e-09
0.00192
7.80157e-09
0.00192
7.80268e-09
0.00192
7.80379e-09
0.00192
7.8049e-09
0.00192
7.80601e-09
0.00192
7.80711e-09
0.00192
7.80821e-09
0.00192
7.80931e-09
0.00192
7.81041e-09
0.00192
7.81151e-09
0.00192
7.8126e-09
0.00192
7.81368e-09
0.00192
7.81477e-09
0.00192
7.81585e-09
0.00192
7.81693e-09
0.00192
7.81801e-09
0.00192
7.81908e-09
0.00192
7.82015e-09
0.00192
7.82122e-09
0.00192
7.82227e-09
0.00192
7.82333e-09
0.00192
7.82438e-09
0.00192
7.82543e-09
0.00192
7.82648e-09
0.00192
7.82752e-09
0.00192
7.82855e-09
0.00192
7.82958e-09
0.00192
7.83061e-09
0.00192
7.83163e-09
0.00192
7.83264e-09
0.00192
7.83366e-09
0.00192
7.83466e-09
0.00192
7.83567e-09
0.00192
7.83667e-09
0.00192
7.83766e-09
0.00192
7.83865e-09
0.00192
7.83963e-09
0.00192
7.8406e-09
0.00192
7.84157e-09
0.00192
7.84253e-09
0.00192
7.84349e-09
0.00192
7.84444e-09
0.00192
7.84539e-09
0.00192
7.84633e-09
0.00192
7.84727e-09
0.00192
7.8482e-09
0.00192
7.84912e-09
0.00192
7.85004e-09
0.00192
7.85095e-09
0.00192
7.85185e-09
0.00192
7.85275e-09
0.00192
7.85364e-09
0.00192
7.85452e-09
0.00192
7.8554e-09
0.00192
7.85627e-09
0.00192
7.85714e-09
0.00192
7.85799e-09
0.00192
7.85885e-09
0.00192
7.85969e-09
0.00192
7.86053e-09
0.00192
7.86136e-09
0.00192
7.86218e-09
0.00192
7.863e-09
0.00192
7.86381e-09
0.00192
7.86461e-09
0.00192
7.86542e-09
0.00192
7.86621e-09
0.00192
7.867e-09
0.00192
7.86779e-09
0.00192
7.86857e-09
0.00192
7.86935e-09
0.00192
7.87013e-09
0.00192
7.87091e-09
0.00192
7.87168e-09
0.00192
7.87246e-09
0.00192
7.87325e-09
0.00192
7.87403e-09
0.00192
7.87483e-09
0.00192
7.87564e-09
0.00192
7.87645e-09
0.00192
7.87729e-09
0.00192
7.87814e-09
0.00192
7.87903e-09
0.00192
7.87994e-09
0.00192
7.88086e-09
0.00192
7.88189e-09
0.00192
7.88291e-09
0.00192
7.88416e-09
0.00192
0.00192
1.45658e-08
1.45668e-08
0.00192
1.45679e-08
0.00192
1.45692e-08
0.00192
1.45706e-08
0.00192
1.45722e-08
0.00192
1.45738e-08
0.00192
1.45754e-08
0.00192
1.45769e-08
0.00192
1.45784e-08
0.00192
1.45799e-08
0.00192
1.45813e-08
0.00192
1.45826e-08
0.00192
1.45839e-08
0.00192
1.4585e-08
0.00192
1.45861e-08
0.00192
1.45871e-08
0.00192
1.45881e-08
0.00192
1.45889e-08
0.00192
1.45896e-08
0.00192
1.45902e-08
0.00192
1.45908e-08
0.00192
1.45912e-08
0.00192
1.45915e-08
0.00192
1.45916e-08
0.00192
1.45917e-08
0.00192
1.45916e-08
0.00192
1.45914e-08
0.00192
1.45911e-08
0.00192
1.45906e-08
0.00192
1.459e-08
0.00192
1.45892e-08
0.00192
1.45883e-08
0.00192
1.45873e-08
0.00192
1.45862e-08
0.00192
1.45849e-08
0.00192
1.45836e-08
0.00192
1.45821e-08
0.00192
1.45806e-08
0.00192
1.45789e-08
0.00192
1.45772e-08
0.00192
1.45755e-08
0.00192
1.45737e-08
0.00192
1.45719e-08
0.00192
1.457e-08
0.00192
1.45681e-08
0.00192
1.45662e-08
0.00192
1.45643e-08
0.00192
1.45625e-08
0.00192
1.45606e-08
0.00192
1.45587e-08
0.00192
1.45568e-08
0.00192
1.4555e-08
0.00192
1.45532e-08
0.00192
1.45514e-08
0.00192
1.45496e-08
0.00192
1.45478e-08
0.00192
1.45461e-08
0.00192
1.45444e-08
0.00192
1.45427e-08
0.00192
1.4541e-08
0.00192
1.45394e-08
0.00192
1.45378e-08
0.00192
1.45362e-08
0.00192
1.45346e-08
0.00192
1.45331e-08
0.00192
1.45315e-08
0.00192
1.453e-08
0.00192
1.45285e-08
0.00192
1.4527e-08
0.00192
1.45256e-08
0.00192
1.45241e-08
0.00192
1.45227e-08
0.00192
1.45213e-08
0.00192
1.45199e-08
0.00192
1.45185e-08
0.00192
1.45171e-08
0.00192
1.45157e-08
0.00192
1.45143e-08
0.00192
1.4513e-08
0.00192
1.45116e-08
0.00192
1.45103e-08
0.00192
1.45089e-08
0.00192
1.45076e-08
0.00192
1.45063e-08
0.00192
1.45049e-08
0.00192
1.45036e-08
0.00192
1.45023e-08
0.00192
1.4501e-08
0.00192
1.44997e-08
0.00192
1.44984e-08
0.00192
1.4497e-08
0.00192
1.44957e-08
0.00192
1.44944e-08
0.00192
1.44931e-08
0.00192
1.44918e-08
0.00192
1.44905e-08
0.00192
1.44892e-08
0.00192
1.44879e-08
0.00192
1.44866e-08
0.00192
1.44853e-08
0.00192
1.4484e-08
0.00192
1.44826e-08
0.00192
1.44813e-08
0.00192
1.448e-08
0.00192
1.44787e-08
0.00192
1.44774e-08
0.00192
1.4476e-08
0.00192
1.44747e-08
0.00192
1.44734e-08
0.00192
1.4472e-08
0.00192
1.44707e-08
0.00192
1.44694e-08
0.00192
1.4468e-08
0.00192
1.44667e-08
0.00192
1.44653e-08
0.00192
1.4464e-08
0.00192
1.44626e-08
0.00192
1.44612e-08
0.00192
1.44599e-08
0.00192
1.44585e-08
0.00192
1.44571e-08
0.00192
1.44557e-08
0.00192
1.44543e-08
0.00192
1.44529e-08
0.00192
1.44515e-08
0.00192
1.44501e-08
0.00192
1.44487e-08
0.00192
1.44473e-08
0.00192
1.44459e-08
0.00192
1.44445e-08
0.00192
1.4443e-08
0.00192
1.44416e-08
0.00192
1.44401e-08
0.00192
1.44387e-08
0.00192
1.44372e-08
0.00192
1.44358e-08
0.00192
1.44343e-08
0.00192
1.44328e-08
0.00192
1.44313e-08
0.00192
1.44299e-08
0.00192
1.44284e-08
0.00192
1.44269e-08
0.00192
1.44253e-08
0.00192
1.44238e-08
0.00192
1.44223e-08
0.00192
1.44208e-08
0.00192
1.44192e-08
0.00192
1.44177e-08
0.00192
1.44161e-08
0.00192
1.44145e-08
0.00192
1.4413e-08
0.00192
1.44114e-08
0.00192
1.44098e-08
0.00192
1.44082e-08
0.00192
1.44066e-08
0.00192
1.4405e-08
0.00192
1.44034e-08
0.00192
1.44018e-08
0.00192
1.44001e-08
0.00192
1.43985e-08
0.00192
1.43969e-08
0.00192
1.43952e-08
0.00192
1.43936e-08
0.00192
1.43919e-08
0.00192
1.43902e-08
0.00192
1.43886e-08
0.00192
1.43869e-08
0.00192
1.43853e-08
0.00192
1.43836e-08
0.00192
1.4382e-08
0.00192
1.43804e-08
0.00192
1.43787e-08
0.00192
1.43771e-08
0.00192
1.43755e-08
0.00192
1.4374e-08
0.00192
1.43725e-08
0.00192
1.4371e-08
0.00192
1.43695e-08
0.00192
1.43681e-08
0.00192
1.43668e-08
0.00192
1.43656e-08
0.00192
1.43646e-08
0.00192
0.00192
1.69321e-08
1.6932e-08
0.00192
1.69319e-08
0.00192
1.69317e-08
0.00192
1.69317e-08
0.00192
1.69318e-08
0.00192
1.69319e-08
0.00192
1.69318e-08
0.00192
1.69318e-08
0.00192
1.69318e-08
0.00192
1.69317e-08
0.00192
1.69315e-08
0.00192
1.69312e-08
0.00192
1.69309e-08
0.00192
1.69305e-08
0.00192
1.693e-08
0.00192
1.69295e-08
0.00192
1.69288e-08
0.00192
1.69281e-08
0.00192
1.69272e-08
0.00192
1.69262e-08
0.00192
1.69251e-08
0.00192
1.6924e-08
0.00192
1.69227e-08
0.00192
1.69213e-08
0.00192
1.69197e-08
0.00192
1.6918e-08
0.00192
1.69162e-08
0.00192
1.69143e-08
0.00192
1.69122e-08
0.00192
1.691e-08
0.00192
1.69076e-08
0.00192
1.69051e-08
0.00192
1.69025e-08
0.00192
1.68998e-08
0.00192
1.6897e-08
0.00192
1.6894e-08
0.00192
1.6891e-08
0.00192
1.68879e-08
0.00192
1.68848e-08
0.00192
1.68815e-08
0.00192
1.68783e-08
0.00192
1.6875e-08
0.00192
1.68717e-08
0.00192
1.68683e-08
0.00192
1.6865e-08
0.00192
1.68616e-08
0.00192
1.68583e-08
0.00192
1.68549e-08
0.00192
1.68516e-08
0.00192
1.68483e-08
0.00192
1.6845e-08
0.00192
1.68417e-08
0.00192
1.68385e-08
0.00192
1.68352e-08
0.00192
1.6832e-08
0.00192
1.68289e-08
0.00192
1.68257e-08
0.00192
1.68226e-08
0.00192
1.68195e-08
0.00192
1.68164e-08
0.00192
1.68133e-08
0.00192
1.68103e-08
0.00192
1.68073e-08
0.00192
1.68043e-08
0.00192
1.68013e-08
0.00192
1.67983e-08
0.00192
1.67954e-08
0.00192
1.67925e-08
0.00192
1.67896e-08
0.00192
1.67867e-08
0.00192
1.67838e-08
0.00192
1.67809e-08
0.00192
1.67781e-08
0.00192
1.67752e-08
0.00192
1.67724e-08
0.00192
1.67696e-08
0.00192
1.67668e-08
0.00192
1.6764e-08
0.00192
1.67612e-08
0.00192
1.67584e-08
0.00192
1.67556e-08
0.00192
1.67528e-08
0.00192
1.67501e-08
0.00192
1.67473e-08
0.00192
1.67445e-08
0.00192
1.67418e-08
0.00192
1.6739e-08
0.00192
1.67363e-08
0.00192
1.67335e-08
0.00192
1.67308e-08
0.00192
1.6728e-08
0.00192
1.67253e-08
0.00192
1.67225e-08
0.00192
1.67198e-08
0.00192
1.6717e-08
0.00192
1.67143e-08
0.00192
1.67116e-08
0.00192
1.67088e-08
0.00192
1.67061e-08
0.00192
1.67033e-08
0.00192
1.67006e-08
0.00192
1.66978e-08
0.00192
1.6695e-08
0.00192
1.66923e-08
0.00192
1.66895e-08
0.00192
1.66868e-08
0.00192
1.6684e-08
0.00192
1.66812e-08
0.00192
1.66785e-08
0.00192
1.66757e-08
0.00192
1.66729e-08
0.00192
1.66701e-08
0.00192
1.66673e-08
0.00192
1.66645e-08
0.00192
1.66617e-08
0.00192
1.66589e-08
0.00192
1.66561e-08
0.00192
1.66533e-08
0.00192
1.66505e-08
0.00192
1.66477e-08
0.00192
1.66449e-08
0.00192
1.66421e-08
0.00192
1.66392e-08
0.00192
1.66364e-08
0.00192
1.66336e-08
0.00192
1.66307e-08
0.00192
1.66279e-08
0.00192
1.6625e-08
0.00192
1.66221e-08
0.00192
1.66193e-08
0.00192
1.66164e-08
0.00192
1.66135e-08
0.00192
1.66106e-08
0.00192
1.66077e-08
0.00192
1.66048e-08
0.00192
1.66019e-08
0.00192
1.6599e-08
0.00192
1.65961e-08
0.00192
1.65932e-08
0.00192
1.65903e-08
0.00192
1.65873e-08
0.00192
1.65844e-08
0.00192
1.65814e-08
0.00192
1.65785e-08
0.00192
1.65755e-08
0.00192
1.65725e-08
0.00192
1.65695e-08
0.00192
1.65665e-08
0.00192
1.65635e-08
0.00192
1.65605e-08
0.00192
1.65575e-08
0.00192
1.65545e-08
0.00192
1.65515e-08
0.00192
1.65484e-08
0.00192
1.65454e-08
0.00192
1.65423e-08
0.00192
1.65393e-08
0.00192
1.65362e-08
0.00192
1.65332e-08
0.00192
1.65301e-08
0.00192
1.6527e-08
0.00192
1.65239e-08
0.00192
1.65208e-08
0.00192
1.65177e-08
0.00192
1.65146e-08
0.00192
1.65116e-08
0.00192
1.65085e-08
0.00192
1.65054e-08
0.00192
1.65023e-08
0.00192
1.64992e-08
0.00192
1.64962e-08
0.00192
1.64932e-08
0.00192
1.64901e-08
0.00192
1.64872e-08
0.00192
1.64842e-08
0.00192
1.64813e-08
0.00192
1.64784e-08
0.00192
1.64756e-08
0.00192
1.64728e-08
0.00192
1.64702e-08
0.00192
1.64677e-08
0.00192
0.00192
1.73787e-08
0.00192
1.73782e-08
0.00192
1.73775e-08
0.00192
1.73771e-08
0.00192
1.73767e-08
0.00192
1.73762e-08
0.00192
1.73757e-08
0.00192
1.73752e-08
0.00192
1.73746e-08
0.00192
1.7374e-08
0.00192
1.73733e-08
0.00192
1.73725e-08
0.00192
1.73717e-08
0.00192
1.73708e-08
0.00192
1.73698e-08
0.00192
1.73688e-08
0.00192
1.73676e-08
0.00192
1.73664e-08
0.00192
1.7365e-08
0.00192
1.73636e-08
0.00192
1.7362e-08
0.00192
1.73603e-08
0.00192
1.73585e-08
0.00192
1.73566e-08
0.00192
1.73546e-08
0.00192
1.73524e-08
0.00192
1.73501e-08
0.00192
1.73477e-08
0.00192
1.73451e-08
0.00192
1.73424e-08
0.00192
1.73395e-08
0.00192
1.73365e-08
0.00192
1.73334e-08
0.00192
1.73302e-08
0.00192
1.73269e-08
0.00192
1.73234e-08
0.00192
1.73199e-08
0.00192
1.73163e-08
0.00192
1.73127e-08
0.00192
1.73089e-08
0.00192
1.73052e-08
0.00192
1.73014e-08
0.00192
1.72975e-08
0.00192
1.72937e-08
0.00192
1.72898e-08
0.00192
1.7286e-08
0.00192
1.72821e-08
0.00192
1.72783e-08
0.00192
1.72745e-08
0.00192
1.72707e-08
0.00192
1.72669e-08
0.00192
1.72631e-08
0.00192
1.72593e-08
0.00192
1.72556e-08
0.00192
1.72519e-08
0.00192
1.72482e-08
0.00192
1.72446e-08
0.00192
1.72409e-08
0.00192
1.72373e-08
0.00192
1.72337e-08
0.00192
1.72302e-08
0.00192
1.72267e-08
0.00192
1.72231e-08
0.00192
1.72196e-08
0.00192
1.72162e-08
0.00192
1.72127e-08
0.00192
1.72093e-08
0.00192
1.72059e-08
0.00192
1.72024e-08
0.00192
1.71991e-08
0.00192
1.71957e-08
0.00192
1.71923e-08
0.00192
1.7189e-08
0.00192
1.71857e-08
0.00192
1.71823e-08
0.00192
1.7179e-08
0.00192
1.71757e-08
0.00192
1.71724e-08
0.00192
1.71691e-08
0.00192
1.71658e-08
0.00192
1.71626e-08
0.00192
1.71593e-08
0.00192
1.7156e-08
0.00192
1.71528e-08
0.00192
1.71495e-08
0.00192
1.71463e-08
0.00192
1.7143e-08
0.00192
1.71398e-08
0.00192
1.71365e-08
0.00192
1.71333e-08
0.00192
1.71301e-08
0.00192
1.71268e-08
0.00192
1.71236e-08
0.00192
1.71203e-08
0.00192
1.71171e-08
0.00192
1.71139e-08
0.00192
1.71106e-08
0.00192
1.71074e-08
0.00192
1.71041e-08
0.00192
1.71009e-08
0.00192
1.70977e-08
0.00192
1.70944e-08
0.00192
1.70912e-08
0.00192
1.70879e-08
0.00192
1.70847e-08
0.00192
1.70814e-08
0.00192
1.70781e-08
0.00192
1.70749e-08
0.00192
1.70716e-08
0.00192
1.70684e-08
0.00192
1.70651e-08
0.00192
1.70618e-08
0.00192
1.70585e-08
0.00192
1.70553e-08
0.00192
1.7052e-08
0.00192
1.70487e-08
0.00192
1.70454e-08
0.00192
1.70421e-08
0.00192
1.70388e-08
0.00192
1.70355e-08
0.00192
1.70322e-08
0.00192
1.70289e-08
0.00192
1.70255e-08
0.00192
1.70222e-08
0.00192
1.70189e-08
0.00192
1.70155e-08
0.00192
1.70122e-08
0.00192
1.70089e-08
0.00192
1.70055e-08
0.00192
1.70022e-08
0.00192
1.69988e-08
0.00192
1.69954e-08
0.00192
1.6992e-08
0.00192
1.69887e-08
0.00192
1.69853e-08
0.00192
1.69819e-08
0.00192
1.69785e-08
0.00192
1.69751e-08
0.00192
1.69717e-08
0.00192
1.69682e-08
0.00192
1.69648e-08
0.00192
1.69614e-08
0.00192
1.69579e-08
0.00192
1.69545e-08
0.00192
1.6951e-08
0.00192
1.69476e-08
0.00192
1.69441e-08
0.00192
1.69406e-08
0.00192
1.69371e-08
0.00192
1.69336e-08
0.00192
1.69301e-08
0.00192
1.69266e-08
0.00192
1.69231e-08
0.00192
1.69196e-08
0.00192
1.69161e-08
0.00192
1.69125e-08
0.00192
1.6909e-08
0.00192
1.69054e-08
0.00192
1.69019e-08
0.00192
1.68983e-08
0.00192
1.68947e-08
0.00192
1.68912e-08
0.00192
1.68876e-08
0.00192
1.6884e-08
0.00192
1.68805e-08
0.00192
1.68769e-08
0.00192
1.68733e-08
0.00192
1.68697e-08
0.00192
1.68662e-08
0.00192
1.68626e-08
0.00192
1.68591e-08
0.00192
1.68556e-08
0.00192
1.68521e-08
0.00192
1.68486e-08
0.00192
1.68451e-08
0.00192
1.68417e-08
0.00192
1.68384e-08
0.00192
1.68351e-08
0.00192
1.68318e-08
0.00192
1.68287e-08
0.00192
1.68258e-08
0.00192
0.00192
1.72033e-08
1.72027e-08
0.00192
1.7202e-08
0.00192
1.72015e-08
0.00192
1.7201e-08
0.00192
1.72005e-08
0.00192
1.71999e-08
0.00192
1.71993e-08
0.00192
1.71986e-08
0.00192
1.71979e-08
0.00192
1.71972e-08
0.00192
1.71964e-08
0.00192
1.71955e-08
0.00192
1.71945e-08
0.00192
1.71935e-08
0.00192
1.71923e-08
0.00192
1.71911e-08
0.00192
1.71898e-08
0.00192
1.71884e-08
0.00192
1.71869e-08
0.00192
1.71852e-08
0.00192
1.71835e-08
0.00192
1.71816e-08
0.00192
1.71797e-08
0.00192
1.71776e-08
0.00192
1.71753e-08
0.00192
1.7173e-08
0.00192
1.71704e-08
0.00192
1.71678e-08
0.00192
1.7165e-08
0.00192
1.71621e-08
0.00192
1.7159e-08
0.00192
1.71558e-08
0.00192
1.71525e-08
0.00192
1.71491e-08
0.00192
1.71456e-08
0.00192
1.7142e-08
0.00192
1.71383e-08
0.00192
1.71346e-08
0.00192
1.71307e-08
0.00192
1.71269e-08
0.00192
1.7123e-08
0.00192
1.71191e-08
0.00192
1.71151e-08
0.00192
1.71112e-08
0.00192
1.71072e-08
0.00192
1.71033e-08
0.00192
1.70994e-08
0.00192
1.70955e-08
0.00192
1.70915e-08
0.00192
1.70877e-08
0.00192
1.70838e-08
0.00192
1.708e-08
0.00192
1.70761e-08
0.00192
1.70723e-08
0.00192
1.70686e-08
0.00192
1.70648e-08
0.00192
1.70611e-08
0.00192
1.70574e-08
0.00192
1.70537e-08
0.00192
1.70501e-08
0.00192
1.70465e-08
0.00192
1.70429e-08
0.00192
1.70393e-08
0.00192
1.70357e-08
0.00192
1.70322e-08
0.00192
1.70287e-08
0.00192
1.70251e-08
0.00192
1.70217e-08
0.00192
1.70182e-08
0.00192
1.70147e-08
0.00192
1.70113e-08
0.00192
1.70078e-08
0.00192
1.70044e-08
0.00192
1.7001e-08
0.00192
1.69976e-08
0.00192
1.69942e-08
0.00192
1.69908e-08
0.00192
1.69875e-08
0.00192
1.69841e-08
0.00192
1.69807e-08
0.00192
1.69774e-08
0.00192
1.6974e-08
0.00192
1.69707e-08
0.00192
1.69673e-08
0.00192
1.6964e-08
0.00192
1.69607e-08
0.00192
1.69573e-08
0.00192
1.6954e-08
0.00192
1.69507e-08
0.00192
1.69474e-08
0.00192
1.6944e-08
0.00192
1.69407e-08
0.00192
1.69374e-08
0.00192
1.69341e-08
0.00192
1.69308e-08
0.00192
1.69274e-08
0.00192
1.69241e-08
0.00192
1.69208e-08
0.00192
1.69175e-08
0.00192
1.69141e-08
0.00192
1.69108e-08
0.00192
1.69075e-08
0.00192
1.69041e-08
0.00192
1.69008e-08
0.00192
1.68975e-08
0.00192
1.68941e-08
0.00192
1.68908e-08
0.00192
1.68874e-08
0.00192
1.68841e-08
0.00192
1.68807e-08
0.00192
1.68774e-08
0.00192
1.6874e-08
0.00192
1.68707e-08
0.00192
1.68673e-08
0.00192
1.68639e-08
0.00192
1.68605e-08
0.00192
1.68572e-08
0.00192
1.68538e-08
0.00192
1.68504e-08
0.00192
1.6847e-08
0.00192
1.68436e-08
0.00192
1.68402e-08
0.00192
1.68368e-08
0.00192
1.68334e-08
0.00192
1.683e-08
0.00192
1.68265e-08
0.00192
1.68231e-08
0.00192
1.68197e-08
0.00192
1.68162e-08
0.00192
1.68128e-08
0.00192
1.68094e-08
0.00192
1.68059e-08
0.00192
1.68024e-08
0.00192
1.6799e-08
0.00192
1.67955e-08
0.00192
1.6792e-08
0.00192
1.67885e-08
0.00192
1.6785e-08
0.00192
1.67815e-08
0.00192
1.6778e-08
0.00192
1.67745e-08
0.00192
1.6771e-08
0.00192
1.67675e-08
0.00192
1.67639e-08
0.00192
1.67604e-08
0.00192
1.67568e-08
0.00192
1.67533e-08
0.00192
1.67497e-08
0.00192
1.67461e-08
0.00192
1.67426e-08
0.00192
1.6739e-08
0.00192
1.67354e-08
0.00192
1.67318e-08
0.00192
1.67282e-08
0.00192
1.67245e-08
0.00192
1.67209e-08
0.00192
1.67173e-08
0.00192
1.67137e-08
0.00192
1.671e-08
0.00192
1.67064e-08
0.00192
1.67027e-08
0.00192
1.66991e-08
0.00192
1.66954e-08
0.00192
1.66918e-08
0.00192
1.66881e-08
0.00192
1.66845e-08
0.00192
1.66808e-08
0.00192
1.66772e-08
0.00192
1.66735e-08
0.00192
1.66699e-08
0.00192
1.66663e-08
0.00192
1.66627e-08
0.00192
1.66592e-08
0.00192
1.66557e-08
0.00192
1.66522e-08
0.00192
1.66487e-08
0.00192
1.66454e-08
0.00192
1.66421e-08
0.00192
1.66389e-08
0.00192
1.66358e-08
0.00192
0.00192
1.68651e-08
1.68646e-08
0.00192
1.6864e-08
0.00192
1.68636e-08
0.00192
1.68631e-08
0.00192
1.68626e-08
0.00192
1.6862e-08
0.00192
1.68614e-08
0.00192
1.68608e-08
0.00192
1.68602e-08
0.00192
1.68594e-08
0.00192
1.68585e-08
0.00192
1.68576e-08
0.00192
1.68567e-08
0.00192
1.68556e-08
0.00192
1.68545e-08
0.00192
1.68532e-08
0.00192
1.68518e-08
0.00192
1.68504e-08
0.00192
1.68488e-08
0.00192
1.68471e-08
0.00192
1.68454e-08
0.00192
1.68435e-08
0.00192
1.68414e-08
0.00192
1.68392e-08
0.00192
1.68369e-08
0.00192
1.68345e-08
0.00192
1.68319e-08
0.00192
1.68292e-08
0.00192
1.68263e-08
0.00192
1.68233e-08
0.00192
1.68201e-08
0.00192
1.68169e-08
0.00192
1.68135e-08
0.00192
1.681e-08
0.00192
1.68065e-08
0.00192
1.68028e-08
0.00192
1.67991e-08
0.00192
1.67953e-08
0.00192
1.67915e-08
0.00192
1.67876e-08
0.00192
1.67838e-08
0.00192
1.67799e-08
0.00192
1.6776e-08
0.00192
1.6772e-08
0.00192
1.67681e-08
0.00192
1.67642e-08
0.00192
1.67604e-08
0.00192
1.67565e-08
0.00192
1.67526e-08
0.00192
1.67488e-08
0.00192
1.6745e-08
0.00192
1.67412e-08
0.00192
1.67375e-08
0.00192
1.67337e-08
0.00192
1.673e-08
0.00192
1.67263e-08
0.00192
1.67227e-08
0.00192
1.6719e-08
0.00192
1.67154e-08
0.00192
1.67119e-08
0.00192
1.67083e-08
0.00192
1.67047e-08
0.00192
1.67012e-08
0.00192
1.66977e-08
0.00192
1.66942e-08
0.00192
1.66907e-08
0.00192
1.66873e-08
0.00192
1.66839e-08
0.00192
1.66804e-08
0.00192
1.6677e-08
0.00192
1.66736e-08
0.00192
1.66702e-08
0.00192
1.66669e-08
0.00192
1.66635e-08
0.00192
1.66602e-08
0.00192
1.66568e-08
0.00192
1.66535e-08
0.00192
1.66502e-08
0.00192
1.66468e-08
0.00192
1.66435e-08
0.00192
1.66402e-08
0.00192
1.66369e-08
0.00192
1.66336e-08
0.00192
1.66303e-08
0.00192
1.6627e-08
0.00192
1.66237e-08
0.00192
1.66204e-08
0.00192
1.66171e-08
0.00192
1.66139e-08
0.00192
1.66106e-08
0.00192
1.66073e-08
0.00192
1.6604e-08
0.00192
1.66007e-08
0.00192
1.65974e-08
0.00192
1.65942e-08
0.00192
1.65909e-08
0.00192
1.65876e-08
0.00192
1.65843e-08
0.00192
1.6581e-08
0.00192
1.65777e-08
0.00192
1.65744e-08
0.00192
1.65711e-08
0.00192
1.65679e-08
0.00192
1.65646e-08
0.00192
1.65613e-08
0.00192
1.6558e-08
0.00192
1.65546e-08
0.00192
1.65513e-08
0.00192
1.6548e-08
0.00192
1.65447e-08
0.00192
1.65414e-08
0.00192
1.65381e-08
0.00192
1.65347e-08
0.00192
1.65314e-08
0.00192
1.65281e-08
0.00192
1.65248e-08
0.00192
1.65214e-08
0.00192
1.65181e-08
0.00192
1.65147e-08
0.00192
1.65113e-08
0.00192
1.6508e-08
0.00192
1.65046e-08
0.00192
1.65013e-08
0.00192
1.64979e-08
0.00192
1.64945e-08
0.00192
1.64911e-08
0.00192
1.64877e-08
0.00192
1.64843e-08
0.00192
1.64809e-08
0.00192
1.64775e-08
0.00192
1.64741e-08
0.00192
1.64707e-08
0.00192
1.64673e-08
0.00192
1.64638e-08
0.00192
1.64604e-08
0.00192
1.6457e-08
0.00192
1.64535e-08
0.00192
1.64501e-08
0.00192
1.64466e-08
0.00192
1.64431e-08
0.00192
1.64396e-08
0.00192
1.64362e-08
0.00192
1.64327e-08
0.00192
1.64292e-08
0.00192
1.64257e-08
0.00192
1.64222e-08
0.00192
1.64186e-08
0.00192
1.64151e-08
0.00192
1.64116e-08
0.00192
1.6408e-08
0.00192
1.64045e-08
0.00192
1.64009e-08
0.00192
1.63974e-08
0.00192
1.63938e-08
0.00192
1.63902e-08
0.00192
1.63866e-08
0.00192
1.6383e-08
0.00192
1.63794e-08
0.00192
1.63758e-08
0.00192
1.63722e-08
0.00192
1.63686e-08
0.00192
1.6365e-08
0.00192
1.63614e-08
0.00192
1.63578e-08
0.00192
1.63542e-08
0.00192
1.63506e-08
0.00192
1.6347e-08
0.00192
1.63434e-08
0.00192
1.63399e-08
0.00192
1.63363e-08
0.00192
1.63328e-08
0.00192
1.63293e-08
0.00192
1.63258e-08
0.00192
1.63223e-08
0.00192
1.6319e-08
0.00192
1.63156e-08
0.00192
1.63124e-08
0.00192
1.63092e-08
0.00192
1.63062e-08
0.00192
0.00192
1.6492e-08
0.00192
1.64915e-08
0.00192
1.64911e-08
0.00192
1.64907e-08
0.00192
1.64903e-08
0.00192
1.64898e-08
0.00192
1.64893e-08
0.00192
1.64888e-08
0.00192
1.64882e-08
0.00192
1.64875e-08
0.00192
1.64868e-08
0.00192
1.6486e-08
0.00192
1.64851e-08
0.00192
1.64841e-08
0.00192
1.64831e-08
0.00192
1.64819e-08
0.00192
1.64806e-08
0.00192
1.64793e-08
0.00192
1.64778e-08
0.00192
1.64762e-08
0.00192
1.64745e-08
0.00192
1.64727e-08
0.00192
1.64708e-08
0.00192
1.64687e-08
0.00192
1.64665e-08
0.00192
1.64641e-08
0.00192
1.64616e-08
0.00192
1.6459e-08
0.00192
1.64562e-08
0.00192
1.64533e-08
0.00192
1.64502e-08
0.00192
1.6447e-08
0.00192
1.64437e-08
0.00192
1.64403e-08
0.00192
1.64368e-08
0.00192
1.64333e-08
0.00192
1.64296e-08
0.00192
1.64259e-08
0.00192
1.64221e-08
0.00192
1.64184e-08
0.00192
1.64145e-08
0.00192
1.64107e-08
0.00192
1.64069e-08
0.00192
1.6403e-08
0.00192
1.63992e-08
0.00192
1.63953e-08
0.00192
1.63915e-08
0.00192
1.63877e-08
0.00192
1.63839e-08
0.00192
1.63802e-08
0.00192
1.63764e-08
0.00192
1.63727e-08
0.00192
1.6369e-08
0.00192
1.63654e-08
0.00192
1.63617e-08
0.00192
1.63581e-08
0.00192
1.63545e-08
0.00192
1.63509e-08
0.00192
1.63474e-08
0.00192
1.63439e-08
0.00192
1.63404e-08
0.00192
1.63369e-08
0.00192
1.63334e-08
0.00192
1.633e-08
0.00192
1.63266e-08
0.00192
1.63232e-08
0.00192
1.63198e-08
0.00192
1.63164e-08
0.00192
1.63131e-08
0.00192
1.63097e-08
0.00192
1.63064e-08
0.00192
1.63031e-08
0.00192
1.62998e-08
0.00192
1.62965e-08
0.00192
1.62932e-08
0.00192
1.62899e-08
0.00192
1.62867e-08
0.00192
1.62834e-08
0.00192
1.62801e-08
0.00192
1.62769e-08
0.00192
1.62737e-08
0.00192
1.62704e-08
0.00192
1.62672e-08
0.00192
1.6264e-08
0.00192
1.62607e-08
0.00192
1.62575e-08
0.00192
1.62543e-08
0.00192
1.62511e-08
0.00192
1.62479e-08
0.00192
1.62446e-08
0.00192
1.62414e-08
0.00192
1.62382e-08
0.00192
1.6235e-08
0.00192
1.62318e-08
0.00192
1.62286e-08
0.00192
1.62254e-08
0.00192
1.62222e-08
0.00192
1.62189e-08
0.00192
1.62157e-08
0.00192
1.62125e-08
0.00192
1.62093e-08
0.00192
1.62061e-08
0.00192
1.62028e-08
0.00192
1.61996e-08
0.00192
1.61964e-08
0.00192
1.61931e-08
0.00192
1.61899e-08
0.00192
1.61867e-08
0.00192
1.61834e-08
0.00192
1.61802e-08
0.00192
1.61769e-08
0.00192
1.61737e-08
0.00192
1.61704e-08
0.00192
1.61672e-08
0.00192
1.61639e-08
0.00192
1.61606e-08
0.00192
1.61574e-08
0.00192
1.61541e-08
0.00192
1.61508e-08
0.00192
1.61475e-08
0.00192
1.61442e-08
0.00192
1.6141e-08
0.00192
1.61377e-08
0.00192
1.61344e-08
0.00192
1.61311e-08
0.00192
1.61277e-08
0.00192
1.61244e-08
0.00192
1.61211e-08
0.00192
1.61178e-08
0.00192
1.61144e-08
0.00192
1.61111e-08
0.00192
1.61077e-08
0.00192
1.61044e-08
0.00192
1.6101e-08
0.00192
1.60977e-08
0.00192
1.60943e-08
0.00192
1.60909e-08
0.00192
1.60875e-08
0.00192
1.60842e-08
0.00192
1.60808e-08
0.00192
1.60774e-08
0.00192
1.60739e-08
0.00192
1.60705e-08
0.00192
1.60671e-08
0.00192
1.60637e-08
0.00192
1.60602e-08
0.00192
1.60568e-08
0.00192
1.60533e-08
0.00192
1.60499e-08
0.00192
1.60464e-08
0.00192
1.60429e-08
0.00192
1.60395e-08
0.00192
1.6036e-08
0.00192
1.60325e-08
0.00192
1.6029e-08
0.00192
1.60255e-08
0.00192
1.60219e-08
0.00192
1.60184e-08
0.00192
1.60149e-08
0.00192
1.60114e-08
0.00192
1.60078e-08
0.00192
1.60043e-08
0.00192
1.60008e-08
0.00192
1.59972e-08
0.00192
1.59937e-08
0.00192
1.59902e-08
0.00192
1.59867e-08
0.00192
1.59832e-08
0.00192
1.59797e-08
0.00192
1.59762e-08
0.00192
1.59727e-08
0.00192
1.59693e-08
0.00192
1.59659e-08
0.00192
1.59625e-08
0.00192
1.59592e-08
0.00192
1.5956e-08
0.00192
1.59528e-08
0.00192
1.59497e-08
0.00192
1.59468e-08
0.00192
0.00192
1.61131e-08
1.61125e-08
0.00192
1.61121e-08
0.00192
1.61117e-08
0.00192
1.61114e-08
0.00192
1.6111e-08
0.00192
1.61106e-08
0.00192
1.61102e-08
0.00192
1.61097e-08
0.00192
1.61092e-08
0.00192
1.61085e-08
0.00192
1.61078e-08
0.00192
1.6107e-08
0.00192
1.61062e-08
0.00192
1.61052e-08
0.00192
1.61041e-08
0.00192
1.6103e-08
0.00192
1.61017e-08
0.00192
1.61003e-08
0.00192
1.60989e-08
0.00192
1.60973e-08
0.00192
1.60956e-08
0.00192
1.60937e-08
0.00192
1.60917e-08
0.00192
1.60896e-08
0.00192
1.60874e-08
0.00192
1.60849e-08
0.00192
1.60824e-08
0.00192
1.60797e-08
0.00192
1.60769e-08
0.00192
1.60739e-08
0.00192
1.60708e-08
0.00192
1.60676e-08
0.00192
1.60643e-08
0.00192
1.60608e-08
0.00192
1.60574e-08
0.00192
1.60538e-08
0.00192
1.60501e-08
0.00192
1.60465e-08
0.00192
1.60427e-08
0.00192
1.6039e-08
0.00192
1.60352e-08
0.00192
1.60315e-08
0.00192
1.60277e-08
0.00192
1.60239e-08
0.00192
1.60202e-08
0.00192
1.60164e-08
0.00192
1.60127e-08
0.00192
1.6009e-08
0.00192
1.60053e-08
0.00192
1.60016e-08
0.00192
1.5998e-08
0.00192
1.59944e-08
0.00192
1.59908e-08
0.00192
1.59872e-08
0.00192
1.59837e-08
0.00192
1.59801e-08
0.00192
1.59766e-08
0.00192
1.59732e-08
0.00192
1.59697e-08
0.00192
1.59663e-08
0.00192
1.59629e-08
0.00192
1.59595e-08
0.00192
1.59561e-08
0.00192
1.59528e-08
0.00192
1.59495e-08
0.00192
1.59461e-08
0.00192
1.59429e-08
0.00192
1.59396e-08
0.00192
1.59363e-08
0.00192
1.59331e-08
0.00192
1.59298e-08
0.00192
1.59266e-08
0.00192
1.59234e-08
0.00192
1.59202e-08
0.00192
1.59169e-08
0.00192
1.59138e-08
0.00192
1.59106e-08
0.00192
1.59074e-08
0.00192
1.59042e-08
0.00192
1.5901e-08
0.00192
1.58979e-08
0.00192
1.58947e-08
0.00192
1.58916e-08
0.00192
1.58884e-08
0.00192
1.58853e-08
0.00192
1.58821e-08
0.00192
1.5879e-08
0.00192
1.58758e-08
0.00192
1.58727e-08
0.00192
1.58696e-08
0.00192
1.58664e-08
0.00192
1.58633e-08
0.00192
1.58602e-08
0.00192
1.5857e-08
0.00192
1.58539e-08
0.00192
1.58507e-08
0.00192
1.58476e-08
0.00192
1.58445e-08
0.00192
1.58413e-08
0.00192
1.58382e-08
0.00192
1.5835e-08
0.00192
1.58319e-08
0.00192
1.58287e-08
0.00192
1.58256e-08
0.00192
1.58224e-08
0.00192
1.58192e-08
0.00192
1.58161e-08
0.00192
1.58129e-08
0.00192
1.58098e-08
0.00192
1.58066e-08
0.00192
1.58034e-08
0.00192
1.58002e-08
0.00192
1.57971e-08
0.00192
1.57939e-08
0.00192
1.57907e-08
0.00192
1.57875e-08
0.00192
1.57843e-08
0.00192
1.57811e-08
0.00192
1.57779e-08
0.00192
1.57747e-08
0.00192
1.57714e-08
0.00192
1.57682e-08
0.00192
1.5765e-08
0.00192
1.57618e-08
0.00192
1.57585e-08
0.00192
1.57553e-08
0.00192
1.57521e-08
0.00192
1.57488e-08
0.00192
1.57456e-08
0.00192
1.57423e-08
0.00192
1.5739e-08
0.00192
1.57357e-08
0.00192
1.57325e-08
0.00192
1.57292e-08
0.00192
1.57259e-08
0.00192
1.57226e-08
0.00192
1.57193e-08
0.00192
1.5716e-08
0.00192
1.57127e-08
0.00192
1.57093e-08
0.00192
1.5706e-08
0.00192
1.57027e-08
0.00192
1.56993e-08
0.00192
1.5696e-08
0.00192
1.56926e-08
0.00192
1.56893e-08
0.00192
1.56859e-08
0.00192
1.56825e-08
0.00192
1.56791e-08
0.00192
1.56757e-08
0.00192
1.56723e-08
0.00192
1.56689e-08
0.00192
1.56655e-08
0.00192
1.56621e-08
0.00192
1.56586e-08
0.00192
1.56552e-08
0.00192
1.56518e-08
0.00192
1.56483e-08
0.00192
1.56449e-08
0.00192
1.56414e-08
0.00192
1.5638e-08
0.00192
1.56345e-08
0.00192
1.56311e-08
0.00192
1.56276e-08
0.00192
1.56242e-08
0.00192
1.56207e-08
0.00192
1.56173e-08
0.00192
1.56139e-08
0.00192
1.56105e-08
0.00192
1.56071e-08
0.00192
1.56038e-08
0.00192
1.56005e-08
0.00192
1.55972e-08
0.00192
1.5594e-08
0.00192
1.55908e-08
0.00192
1.55877e-08
0.00192
1.55847e-08
0.00192
1.55818e-08
0.00192
0.00192
1.57324e-08
1.5732e-08
0.00192
1.57317e-08
0.00192
1.57315e-08
0.00192
1.57312e-08
0.00192
1.57309e-08
0.00192
1.57306e-08
0.00192
1.57302e-08
0.00192
1.57297e-08
0.00192
1.57292e-08
0.00192
1.57286e-08
0.00192
1.57279e-08
0.00192