/*--------------------------------*- C++ -*----------------------------------*\
| =========                 |                                                 |
| \\      /  F ield         | OpenFOAM: The Open Source CFD Toolbox           |
|  \\    /   O peration     | Version:  2512                                  |
|   \\  /    A nd           | Website:  www.openfoam.com                      |
|    \\/     M anipulation  |                                                 |
\*---------------------------------------------------------------------------*/
FoamFile
{
    version     2.0;
    format      ascii;
    arch        "LSB;label=32;scalar=64";
    class       volVectorField;
    location    "0.1";
    object      U;
}
// * * * * * * * * * * * * * * * * * * * * * * * * * * * * * * * * * * * * * //

dimensions      [0 1 -1 0 0 0 0];

internalField   nonuniform List<vector> 
8333
(
(0.021144 -4.62452e-06 5.88336e-20)
(0.021167 -9.52687e-06 5.6678e-20)
(0.0211893 -8.0791e-06 5.64989e-20)
(0.0212151 -8.50458e-06 5.68904e-20)
(0.0212401 -7.72546e-06 5.74785e-20)
(0.0212644 -7.16066e-06 5.7884e-20)
(0.0212881 -7.07887e-06 5.82164e-20)
(0.0213115 -7.13321e-06 5.85301e-20)
(0.0213346 -7.18594e-06 5.89345e-20)
(0.0213575 -7.20422e-06 5.91986e-20)
(0.0213804 -7.19122e-06 5.96008e-20)
(0.0214032 -7.18183e-06 6.00246e-20)
(0.0214259 -7.18199e-06 6.01536e-20)
(0.0214486 -7.17905e-06 6.12834e-20)
(0.0214711 -7.17363e-06 5.71575e-20)
(0.0214937 -7.1677e-06 7.50344e-20)
(0.0215161 -7.15969e-06 1.00743e-20)
(0.0215385 -7.15083e-06 2.25946e-19)
(0.0215609 -7.14239e-06 -4.0368e-19)
(0.0215832 -7.1342e-06 1.20786e-18)
(0.0216055 -7.12611e-06 -2.41341e-18)
(0.0216277 -7.11793e-06 5.21826e-18)
(0.0216499 -7.1095e-06 -1.34623e-17)
(0.021672 -7.10095e-06 -6.44747e-18)
(0.0216941 -7.09233e-06 -3.57588e-18)
(0.0217161 -7.08356e-06 -1.85026e-18)
(0.0217381 -7.07462e-06 -8.18849e-19)
(0.02176 -7.06559e-06 -2.91087e-19)
(0.0217818 -7.05646e-06 -6.24879e-20)
(0.0218036 -7.04722e-06 2.28278e-20)
(0.0218254 -7.03785e-06 5.07207e-20)
(0.0218471 -7.0283e-06 5.87863e-20)
(0.0218687 -7.01867e-06 6.10769e-20)
(0.0218903 -7.00904e-06 6.1448e-20)
(0.0219118 -6.99942e-06 6.13141e-20)
(0.0219333 -6.98977e-06 6.12423e-20)
(0.0219547 -6.98014e-06 6.12525e-20)
(0.021976 -6.9706e-06 6.1149e-20)
(0.0219973 -6.96118e-06 6.09912e-20)
(0.0220186 -6.95193e-06 6.09761e-20)
(0.0220398 -6.94286e-06 6.118e-20)
(0.0220609 -6.93401e-06 6.11201e-20)
(0.022082 -6.92542e-06 6.09963e-20)
(0.022103 -6.91714e-06 6.09127e-20)
(0.022124 -6.90914e-06 6.08233e-20)
(0.022145 -6.90139e-06 6.06449e-20)
(0.0221659 -6.89388e-06 6.04011e-20)
(0.0221867 -6.88662e-06 6.01316e-20)
(0.0222075 -6.87958e-06 5.99438e-20)
(0.0222283 -6.87271e-06 6.02661e-20)
(0.0222491 -6.86599e-06 5.96199e-20)
(0.0222698 -6.85941e-06 6.06157e-20)
(0.0222905 -6.85294e-06 5.88591e-20)
(0.0223111 -6.84657e-06 6.03892e-20)
(0.0223317 -6.84028e-06 5.91242e-20)
(0.0223523 -6.83404e-06 5.63163e-20)
(0.0223729 -6.82787e-06 5.47031e-20)
(0.0223934 -6.82173e-06 5.52063e-20)
(0.0224139 -6.81564e-06 5.68114e-20)
(0.0224343 -6.80957e-06 5.84503e-20)
(0.0224548 -6.80352e-06 5.94325e-20)
(0.0224752 -6.7975e-06 5.99751e-20)
(0.0224955 -6.79149e-06 6.04168e-20)
(0.0225159 -6.7855e-06 6.05527e-20)
(0.0225362 -6.77951e-06 6.06152e-20)
(0.0225565 -6.7735e-06 6.07489e-20)
(0.0225768 -6.7675e-06 6.09491e-20)
(0.022597 -6.76148e-06 6.11164e-20)
(0.0226172 -6.75546e-06 6.12489e-20)
(0.0226374 -6.74942e-06 6.13052e-20)
(0.0226575 -6.74338e-06 6.13105e-20)
(0.0226776 -6.73732e-06 6.12638e-20)
(0.0226977 -6.73125e-06 6.12838e-20)
(0.0227178 -6.72516e-06 6.11391e-20)
(0.0227378 -6.71906e-06 6.1076e-20)
(0.0227578 -6.71294e-06 6.10078e-20)
(0.0227778 -6.70681e-06 6.0723e-20)
(0.0227977 -6.70067e-06 6.04663e-20)
(0.0228177 -6.6945e-06 6.02999e-20)
(0.0228376 -6.68832e-06 5.99407e-20)
(0.0228574 -6.68213e-06 5.99138e-20)
(0.0228773 -6.6759e-06 5.93363e-20)
(0.0228971 -6.66966e-06 6.04155e-20)
(0.0229168 -6.66341e-06 5.86901e-20)
(0.0229366 -6.65713e-06 6.00474e-20)
(0.0229563 -6.65083e-06 5.86041e-20)
(0.022976 -6.64451e-06 5.53948e-20)
(0.0229957 -6.63817e-06 5.35094e-20)
(0.0230153 -6.63181e-06 5.38817e-20)
(0.0230349 -6.62542e-06 5.55044e-20)
(0.0230545 -6.61901e-06 5.71214e-20)
(0.023074 -6.61257e-06 5.84453e-20)
(0.0230935 -6.60612e-06 5.89455e-20)
(0.023113 -6.59964e-06 5.91086e-20)
(0.0231325 -6.59314e-06 5.92122e-20)
(0.0231519 -6.58662e-06 5.9404e-20)
(0.0231713 -6.58009e-06 5.96562e-20)
(0.0231907 -6.57353e-06 5.99598e-20)
(0.02321 -6.56694e-06 6.02348e-20)
(0.0232293 -6.56034e-06 6.046e-20)
(0.0232486 -6.55371e-06 6.05033e-20)
(0.0232679 -6.54706e-06 6.06713e-20)
(0.0232871 -6.54039e-06 6.08906e-20)
(0.0233063 -6.53369e-06 6.09038e-20)
(0.0233254 -6.52697e-06 6.07514e-20)
(0.0233445 -6.52022e-06 6.07454e-20)
(0.0233636 -6.51345e-06 6.06698e-20)
(0.0233827 -6.50667e-06 6.07914e-20)
(0.0234017 -6.49988e-06 6.10058e-20)
(0.0234207 -6.49306e-06 6.1106e-20)
(0.0234397 -6.48622e-06 6.11892e-20)
(0.0234587 -6.47936e-06 6.1164e-20)
(0.0234776 -6.47248e-06 6.11593e-20)
(0.0234964 -6.46557e-06 6.11964e-20)
(0.0235153 -6.45863e-06 6.10979e-20)
(0.0235341 -6.45167e-06 6.09443e-20)
(0.0235529 -6.44469e-06 6.08977e-20)
(0.0235716 -6.4377e-06 6.09561e-20)
(0.0235904 -6.43069e-06 6.1016e-20)
(0.023609 -6.42366e-06 6.09907e-20)
(0.0236277 -6.41661e-06 6.10092e-20)
(0.0236463 -6.40954e-06 6.09385e-20)
(0.0236649 -6.40245e-06 6.1044e-20)
(0.0236835 -6.39533e-06 6.12273e-20)
(0.023702 -6.3882e-06 6.02103e-20)
(0.0237205 -6.38105e-06 6.32106e-20)
(0.023739 -6.37388e-06 5.26455e-20)
(0.0237574 -6.36668e-06 8.5416e-20)
(0.0237758 -6.35946e-06 1.53282e-21)
(0.0237942 -6.35222e-06 1.77584e-19)
(0.0238125 -6.34495e-06 -9.40267e-20)
(0.0238308 -6.33768e-06 1.63473e-19)
(0.023849 -6.3304e-06 1.31501e-19)
(0.0238673 -6.32308e-06 -5.90906e-20)
(0.0238855 -6.31575e-06 -1.51426e-19)
(0.0239036 -6.3084e-06 -1.1771e-19)
(0.0239218 -6.30104e-06 -4.35498e-20)
(0.0239399 -6.29365e-06 1.36404e-20)
(0.0239579 -6.28625e-06 4.3727e-20)
(0.0239759 -6.27883e-06 5.59994e-20)
(0.0239939 -6.2714e-06 6.00561e-20)
(0.0240119 -6.26393e-06 6.0946e-20)
(0.0240298 -6.25646e-06 6.1162e-20)
(0.0240477 -6.24896e-06 6.10348e-20)
(0.0240656 -6.24144e-06 6.09818e-20)
(0.0240834 -6.23391e-06 6.10441e-20)
(0.0241012 -6.22638e-06 6.10568e-20)
(0.0241189 -6.21883e-06 6.10984e-20)
(0.0241367 -6.21126e-06 6.12353e-20)
(0.0241543 -6.20367e-06 6.13015e-20)
(0.024172 -6.19607e-06 6.12504e-20)
(0.0241896 -6.18846e-06 6.14216e-20)
(0.0242072 -6.18082e-06 6.14993e-20)
(0.0242247 -6.17318e-06 6.16515e-20)
(0.0242422 -6.16552e-06 6.17555e-20)
(0.0242597 -6.15785e-06 6.16742e-20)
(0.0242771 -6.15015e-06 6.1606e-20)
(0.0242945 -6.14243e-06 6.16087e-20)
(0.0243119 -6.13469e-06 6.16068e-20)
(0.0243292 -6.12695e-06 6.16206e-20)
(0.0243465 -6.11919e-06 6.15477e-20)
(0.0243638 -6.11142e-06 6.14522e-20)
(0.024381 -6.10364e-06 6.13924e-20)
(0.0243982 -6.09586e-06 6.13954e-20)
(0.0244154 -6.08806e-06 6.13805e-20)
(0.0244325 -6.08026e-06 6.14764e-20)
(0.0244496 -6.07246e-06 6.1654e-20)
(0.0244666 -6.06466e-06 6.1826e-20)
(0.0244836 -6.05686e-06 6.19278e-20)
(0.0245006 -6.04907e-06 6.20115e-20)
(0.0245175 -6.04128e-06 6.19985e-20)
(0.0245344 -6.03355e-06 6.19204e-20)
(0.0245513 -6.02573e-06 6.18048e-20)
(0.0245681 -6.01825e-06 6.18226e-20)
(0.0245849 -6.01021e-06 6.18527e-20)
(0.0246017 -6.00337e-06 6.1924e-20)
(0.0246184 -5.99476e-06 6.18821e-20)
(0.0246351 -5.98842e-06 6.18288e-20)
(0.0246517 -5.98122e-06 6.17732e-20)
(0.0246683 -5.96861e-06 6.17756e-20)
(0.024685 -5.9752e-06 6.17608e-20)
(0.0247014 -5.93713e-06 6.16349e-20)
(0.0247182 -5.9787e-06 6.18831e-20)
(0.0247342 -5.92143e-06 6.20729e-20)
(0.0247518 -5.91811e-06 6.20164e-20)
(0.0462143 -1.40355e-05 9.36948e-20)
(0.0462321 -1.59204e-05 9.04156e-20)
(0.04625 -1.56042e-05 9.01937e-20)
(0.0462699 -1.62332e-05 9.11441e-20)
(0.0462901 -1.61345e-05 9.18316e-20)
(0.0463101 -1.61045e-05 9.23593e-20)
(0.0463299 -1.57781e-05 9.2816e-20)
(0.0463495 -1.55223e-05 9.35915e-20)
(0.0463689 -1.55214e-05 9.38533e-20)
(0.0463883 -1.55007e-05 9.43951e-20)
(0.0464077 -1.54306e-05 9.54098e-20)
(0.0464269 -1.53795e-05 9.45935e-20)
(0.0464461 -1.53363e-05 1.01886e-19)
(0.0464652 -1.53046e-05 7.31854e-20)
(0.0464843 -1.52841e-05 1.81755e-19)
(0.0465033 -1.52612e-05 -1.79898e-19)
(0.0465223 -1.52363e-05 8.87443e-19)
(0.0465412 -1.52133e-05 -1.8379e-18)
(0.0465601 -1.51919e-05 4.07876e-18)
(0.0465789 -1.51718e-05 -6.63215e-18)
(0.0465977 -1.51519e-05 9.51732e-18)
(0.0466164 -1.51313e-05 -1.16678e-17)
(0.0466351 -1.51102e-05 -1.07786e-17)
(0.0466537 -1.50889e-05 -8.77069e-18)
(0.0466723 -1.50672e-05 -5.84575e-18)
(0.0466909 -1.50449e-05 -3.17117e-18)
(0.0467094 -1.5022e-05 -1.40832e-18)
(0.0467278 -1.49987e-05 -4.96768e-19)
(0.0467463 -1.49749e-05 -1.07081e-19)
(0.0467646 -1.49508e-05 3.52963e-20)
(0.0467829 -1.49263e-05 8.0435e-20)
(0.0468012 -1.49014e-05 9.39e-20)
(0.0468194 -1.48763e-05 9.72511e-20)
(0.0468375 -1.48511e-05 9.74699e-20)
(0.0468557 -1.48261e-05 9.73475e-20)
(0.0468737 -1.48014e-05 9.75242e-20)
(0.0468917 -1.47771e-05 9.74579e-20)
(0.0469097 -1.47534e-05 9.70733e-20)
(0.0469276 -1.47305e-05 9.67822e-20)
(0.0469454 -1.47085e-05 9.73998e-20)
(0.0469632 -1.46874e-05 9.73768e-20)
(0.046981 -1.46674e-05 9.7048e-20)
(0.0469987 -1.46485e-05 9.69557e-20)
(0.0470164 -1.46307e-05 9.68782e-20)
(0.047034 -1.4614e-05 9.65688e-20)
(0.0470516 -1.45983e-05 9.61975e-20)
(0.0470692 -1.45835e-05 9.57525e-20)
(0.0470867 -1.45697e-05 9.49055e-20)
(0.0471042 -1.45567e-05 9.65826e-20)
(0.0471216 -1.45444e-05 9.37634e-20)
(0.047139 -1.45328e-05 9.80818e-20)
(0.0471564 -1.45218e-05 9.26916e-20)
(0.0471737 -1.45114e-05 9.55657e-20)
(0.0471911 -1.45014e-05 9.68465e-20)
(0.0472083 -1.44918e-05 9.24443e-20)
(0.0472256 -1.44826e-05 8.7176e-20)
(0.0472428 -1.44737e-05 8.58792e-20)
(0.04726 -1.44651e-05 8.80275e-20)
(0.0472772 -1.44567e-05 9.13362e-20)
(0.0472943 -1.44486e-05 9.35802e-20)
(0.0473114 -1.44405e-05 9.47994e-20)
(0.0473285 -1.44326e-05 9.58652e-20)
(0.0473455 -1.44249e-05 9.62395e-20)
(0.0473625 -1.44174e-05 9.62936e-20)
(0.0473795 -1.44099e-05 9.64848e-20)
(0.0473965 -1.44025e-05 9.68127e-20)
(0.0474134 -1.43952e-05 9.70646e-20)
(0.0474303 -1.43879e-05 9.72823e-20)
(0.0474472 -1.43808e-05 9.73334e-20)
(0.047464 -1.43737e-05 9.73576e-20)
(0.0474808 -1.43666e-05 9.72379e-20)
(0.0474976 -1.43596e-05 9.75e-20)
(0.0475144 -1.43526e-05 9.72262e-20)
(0.0475311 -1.43456e-05 9.71211e-20)
(0.0475478 -1.43387e-05 9.71945e-20)
(0.0475645 -1.43318e-05 9.6741e-20)
(0.0475811 -1.43249e-05 9.62324e-20)
(0.0475977 -1.4318e-05 9.61333e-20)
(0.0476143 -1.43111e-05 9.513e-20)
(0.0476309 -1.43042e-05 9.5881e-20)
(0.0476474 -1.42973e-05 9.3107e-20)
(0.0476639 -1.42905e-05 9.76298e-20)
(0.0476804 -1.42836e-05 9.24575e-20)
(0.0476969 -1.42767e-05 9.51881e-20)
(0.0477133 -1.42698e-05 9.64155e-20)
(0.0477297 -1.42629e-05 9.13004e-20)
(0.047746 -1.42561e-05 8.54084e-20)
(0.0477623 -1.42492e-05 8.37883e-20)
(0.0477787 -1.42423e-05 8.61169e-20)
(0.0477949 -1.42353e-05 8.91161e-20)
(0.0478112 -1.42284e-05 9.22622e-20)
(0.0478274 -1.42215e-05 9.35963e-20)
(0.0478436 -1.42145e-05 9.40089e-20)
(0.0478597 -1.42076e-05 9.41992e-20)
(0.0478758 -1.42006e-05 9.43757e-20)
(0.0478919 -1.41936e-05 9.45746e-20)
(0.047908 -1.41866e-05 9.51258e-20)
(0.047924 -1.41796e-05 9.5642e-20)
(0.04794 -1.41726e-05 9.61911e-20)
(0.047956 -1.41655e-05 9.62166e-20)
(0.047972 -1.41584e-05 9.63921e-20)
(0.0479879 -1.41514e-05 9.68368e-20)
(0.0480038 -1.41443e-05 9.6963e-20)
(0.0480196 -1.41371e-05 9.66213e-20)
(0.0480354 -1.413e-05 9.65687e-20)
(0.0480512 -1.41229e-05 9.62658e-20)
(0.048067 -1.41157e-05 9.64098e-20)
(0.0480827 -1.41085e-05 9.68798e-20)
(0.0480984 -1.41012e-05 9.69911e-20)
(0.0481141 -1.4094e-05 9.72273e-20)
(0.0481297 -1.40867e-05 9.71838e-20)
(0.0481453 -1.40795e-05 9.71634e-20)
(0.0481609 -1.40722e-05 9.73182e-20)
(0.0481765 -1.40649e-05 9.72669e-20)
(0.048192 -1.40575e-05 9.70111e-20)
(0.0482075 -1.40502e-05 9.67788e-20)
(0.0482229 -1.40428e-05 9.67992e-20)
(0.0482383 -1.40354e-05 9.69785e-20)
(0.0482537 -1.4028e-05 9.69451e-20)
(0.0482691 -1.40205e-05 9.70766e-20)
(0.0482844 -1.40131e-05 9.67869e-20)
(0.0482997 -1.40056e-05 9.67083e-20)
(0.0483149 -1.39981e-05 9.85699e-20)
(0.0483301 -1.39906e-05 9.17507e-20)
(0.0483453 -1.3983e-05 1.14926e-19)
(0.0483605 -1.39755e-05 3.88821e-20)
(0.0483756 -1.39679e-05 2.52861e-19)
(0.0483907 -1.39603e-05 -2.49177e-19)
(0.0484058 -1.39527e-05 6.93915e-19)
(0.0484208 -1.3945e-05 -5.9908e-19)
(0.0484358 -1.39373e-05 4.44405e-19)
(0.0484507 -1.39296e-05 4.37231e-19)
(0.0484657 -1.39219e-05 -2.91167e-19)
(0.0484806 -1.39142e-05 -7.95136e-19)
(0.0484954 -1.39064e-05 -7.63973e-19)
(0.0485103 -1.38987e-05 -4.67303e-19)
(0.048525 -1.38909e-05 -1.88146e-19)
(0.0485398 -1.3883e-05 -2.06018e-20)
(0.0485545 -1.38752e-05 5.62517e-20)
(0.0485692 -1.38673e-05 8.53196e-20)
(0.0485839 -1.38594e-05 9.40578e-20)
(0.0485985 -1.38515e-05 9.66346e-20)
(0.0486131 -1.38436e-05 9.69114e-20)
(0.0486276 -1.38357e-05 9.67966e-20)
(0.0486422 -1.38277e-05 9.69551e-20)
(0.0486566 -1.38197e-05 9.69739e-20)
(0.0486711 -1.38117e-05 9.70159e-20)
(0.0486855 -1.38036e-05 9.7288e-20)
(0.0486999 -1.37956e-05 9.74969e-20)
(0.0487142 -1.37875e-05 9.72696e-20)
(0.0487285 -1.37794e-05 9.76153e-20)
(0.0487428 -1.37712e-05 9.7697e-20)
(0.0487571 -1.37631e-05 9.79345e-20)
(0.0487713 -1.37549e-05 9.82539e-20)
(0.0487854 -1.37467e-05 9.81563e-20)
(0.0487996 -1.37385e-05 9.7973e-20)
(0.0488137 -1.37303e-05 9.79342e-20)
(0.0488277 -1.37221e-05 9.78635e-20)
(0.0488417 -1.37139e-05 9.80479e-20)
(0.0488557 -1.37057e-05 9.7828e-20)
(0.0488697 -1.36974e-05 9.76413e-20)
(0.0488836 -1.36892e-05 9.75349e-20)
(0.0488975 -1.3681e-05 9.76335e-20)
(0.0489113 -1.36727e-05 9.74867e-20)
(0.0489252 -1.36645e-05 9.75339e-20)
(0.0489389 -1.36564e-05 9.78182e-20)
(0.0489527 -1.36482e-05 9.82688e-20)
(0.0489664 -1.36401e-05 9.84252e-20)
(0.04898 -1.36321e-05 9.86472e-20)
(0.0489937 -1.36242e-05 9.86799e-20)
(0.0490073 -1.36165e-05 9.86223e-20)
(0.0490208 -1.36086e-05 9.83241e-20)
(0.0490344 -1.36016e-05 9.82567e-20)
(0.0490478 -1.35933e-05 9.82362e-20)
(0.0490613 -1.35881e-05 9.8334e-20)
(0.0490747 -1.35784e-05 9.82919e-20)
(0.0490881 -1.35756e-05 9.82672e-20)
(0.0491014 -1.35675e-05 9.81477e-20)
(0.0491148 -1.3555e-05 9.8118e-20)
(0.0491281 -1.35766e-05 9.82048e-20)
(0.0491411 -1.35038e-05 9.77524e-20)
(0.0491549 -1.36121e-05 9.81967e-20)
(0.0491672 -1.34493e-05 9.87107e-20)
(0.0491818 -1.35335e-05 9.85038e-20)
(0.0577167 -1.36956e-05 1.1987e-19)
(0.0577303 -1.48062e-05 1.18299e-19)
(0.0577427 -1.52914e-05 1.19745e-19)
(0.0577565 -1.51855e-05 1.2052e-19)
(0.0577706 -1.52515e-05 1.21025e-19)
(0.0577849 -1.50278e-05 1.21283e-19)
(0.057799 -1.48712e-05 1.22745e-19)
(0.0578129 -1.49316e-05 1.22436e-19)
(0.0578268 -1.48966e-05 1.22871e-19)
(0.0578407 -1.48258e-05 1.24595e-19)
(0.0578545 -1.47957e-05 1.2256e-19)
(0.0578682 -1.47547e-05 1.3714e-19)
(0.0578819 -1.47207e-05 8.34121e-20)
(0.0578956 -1.47029e-05 2.66841e-19)
(0.0579092 -1.46791e-05 -2.86148e-19)
(0.0579228 -1.46513e-05 1.17551e-18)
(0.0579363 -1.46257e-05 -2.12899e-18)
(0.0579498 -1.46019e-05 4.09674e-18)
(0.0579633 -1.45803e-05 -5.4084e-18)
(0.0579767 -1.45594e-05 6.36516e-18)
(0.0579901 -1.45375e-05 -7.07894e-18)
(0.0580034 -1.4515e-05 -6.89172e-18)
(0.0580167 -1.44926e-05 -6.89593e-18)
(0.05803 -1.44697e-05 -5.53093e-18)
(0.0580432 -1.44459e-05 -3.48248e-18)
(0.0580564 -1.44216e-05 -1.75221e-18)
(0.0580695 -1.43967e-05 -6.97212e-19)
(0.0580826 -1.43715e-05 -1.84986e-19)
(0.0580957 -1.43458e-05 2.3425e-20)
(0.0581087 -1.43195e-05 9.49929e-20)
(0.0581217 -1.42928e-05 1.1911e-19)
(0.0581346 -1.42661e-05 1.26227e-19)
(0.0581475 -1.42394e-05 1.26643e-19)
(0.0581604 -1.42129e-05 1.26269e-19)
(0.0581732 -1.41867e-05 1.27003e-19)
(0.0581859 -1.41611e-05 1.2727e-19)
(0.0581987 -1.41363e-05 1.26539e-19)
(0.0582113 -1.41125e-05 1.25265e-19)
(0.058224 -1.40898e-05 1.27146e-19)
(0.0582366 -1.40683e-05 1.27351e-19)
(0.0582492 -1.40482e-05 1.26469e-19)
(0.0582617 -1.40297e-05 1.26496e-19)
(0.0582742 -1.40128e-05 1.2661e-19)
(0.0582867 -1.39973e-05 1.26031e-19)
(0.0582991 -1.39834e-05 1.25575e-19)
(0.0583115 -1.39707e-05 1.25352e-19)
(0.0583238 -1.39595e-05 1.21849e-19)
(0.0583362 -1.39495e-05 1.2928e-19)
(0.0583485 -1.39405e-05 1.17599e-19)
(0.0583607 -1.39326e-05 1.34442e-19)
(0.0583729 -1.39255e-05 1.17909e-19)
(0.0583851 -1.39193e-05 1.22044e-19)
(0.0583973 -1.39138e-05 1.31537e-19)
(0.0584095 -1.39089e-05 1.26273e-19)
(0.0584216 -1.39046e-05 1.13044e-19)
(0.0584337 -1.39007e-05 1.06665e-19)
(0.0584457 -1.38973e-05 1.0879e-19)
(0.0584577 -1.38943e-05 1.15187e-19)
(0.0584697 -1.38916e-05 1.19844e-19)
(0.0584817 -1.38892e-05 1.2223e-19)
(0.0584936 -1.38871e-05 1.24678e-19)
(0.0585056 -1.38853e-05 1.25554e-19)
(0.0585174 -1.38836e-05 1.25446e-19)
(0.0585293 -1.38822e-05 1.25696e-19)
(0.0585411 -1.38809e-05 1.26206e-19)
(0.0585529 -1.38797e-05 1.26458e-19)
(0.0585647 -1.38787e-05 1.26736e-19)
(0.0585764 -1.38777e-05 1.26539e-19)
(0.0585882 -1.38769e-05 1.26546e-19)
(0.0585999 -1.38762e-05 1.26044e-19)
(0.0586115 -1.38756e-05 1.27187e-19)
(0.0586232 -1.38751e-05 1.26562e-19)
(0.0586348 -1.38746e-05 1.26323e-19)
(0.0586463 -1.38742e-05 1.26923e-19)
(0.0586579 -1.38738e-05 1.26238e-19)
(0.0586694 -1.38735e-05 1.2519e-19)
(0.0586809 -1.38732e-05 1.25968e-19)
(0.0586924 -1.3873e-05 1.22705e-19)
(0.0587038 -1.38728e-05 1.27748e-19)
(0.0587152 -1.38727e-05 1.16239e-19)
(0.0587266 -1.38726e-05 1.33516e-19)
(0.0587379 -1.38725e-05 1.17609e-19)
(0.0587493 -1.38724e-05 1.21668e-19)
(0.0587606 -1.38723e-05 1.31841e-19)
(0.0587718 -1.38723e-05 1.25376e-19)
(0.0587831 -1.38723e-05 1.10922e-19)
(0.0587943 -1.38723e-05 1.03851e-19)
(0.0588054 -1.38723e-05 1.07105e-19)
(0.0588166 -1.38722e-05 1.12085e-19)
(0.0588277 -1.38722e-05 1.19161e-19)
(0.0588388 -1.38722e-05 1.22114e-19)
(0.0588499 -1.38723e-05 1.22965e-19)
(0.0588609 -1.38723e-05 1.2341e-19)
(0.0588719 -1.38723e-05 1.23465e-19)
(0.0588829 -1.38723e-05 1.23077e-19)
(0.0588938 -1.38724e-05 1.24057e-19)
(0.0589047 -1.38724e-05 1.24856e-19)
(0.0589156 -1.38724e-05 1.26073e-19)
(0.0589264 -1.38724e-05 1.25881e-19)
(0.0589373 -1.38724e-05 1.25798e-19)
(0.0589481 -1.38724e-05 1.26537e-19)
(0.0589588 -1.38724e-05 1.26832e-19)
(0.0589695 -1.38724e-05 1.25982e-19)
(0.0589802 -1.38724e-05 1.25924e-19)
(0.0589909 -1.38724e-05 1.24929e-19)
(0.0590016 -1.38724e-05 1.24994e-19)
(0.0590122 -1.38723e-05 1.26066e-19)
(0.0590227 -1.38723e-05 1.25875e-19)
(0.0590333 -1.38723e-05 1.26486e-19)
(0.0590438 -1.38722e-05 1.26368e-19)
(0.0590543 -1.38722e-05 1.26281e-19)
(0.0590647 -1.38721e-05 1.26688e-19)
(0.0590751 -1.3872e-05 1.26825e-19)
(0.0590855 -1.38719e-05 1.26517e-19)
(0.0590959 -1.38718e-05 1.25855e-19)
(0.0591062 -1.38717e-05 1.25674e-19)
(0.0591165 -1.38716e-05 1.26211e-19)
(0.0591268 -1.38715e-05 1.26083e-19)
(0.059137 -1.38713e-05 1.26794e-19)
(0.0591472 -1.38712e-05 1.2586e-19)
(0.0591574 -1.38711e-05 1.24976e-19)
(0.0591675 -1.38709e-05 1.3181e-19)
(0.0591776 -1.38707e-05 1.09177e-19)
(0.0591877 -1.38705e-05 1.85282e-19)
(0.0591977 -1.38703e-05 -5.45601e-20)
(0.0592077 -1.38701e-05 5.9388e-19)
(0.0592177 -1.38699e-05 -8.80276e-19)
(0.0592276 -1.38697e-05 1.83763e-18)
(0.0592375 -1.38694e-05 -1.97524e-18)
(0.0592474 -1.38691e-05 1.64135e-18)
(0.0592572 -1.38689e-05 1.37112e-19)
(0.059267 -1.38686e-05 -1.55514e-18)
(0.0592768 -1.38683e-05 -2.5039e-18)
(0.0592865 -1.3868e-05 -2.27549e-18)
(0.0592962 -1.38677e-05 -1.4598e-18)
(0.0593059 -1.38674e-05 -6.9956e-19)
(0.0593155 -1.3867e-05 -2.29172e-19)
(0.0593251 -1.38667e-05 -4.31344e-21)
(0.0593347 -1.38663e-05 8.5459e-20)
(0.0593442 -1.3866e-05 1.14397e-19)
(0.0593537 -1.38656e-05 1.23826e-19)
(0.0593632 -1.38652e-05 1.25628e-19)
(0.0593726 -1.38648e-05 1.25496e-19)
(0.059382 -1.38644e-05 1.26033e-19)
(0.0593913 -1.3864e-05 1.26096e-19)
(0.0594007 -1.38636e-05 1.26129e-19)
(0.05941 -1.38632e-05 1.26636e-19)
(0.0594192 -1.38627e-05 1.27231e-19)
(0.0594284 -1.38623e-05 1.26342e-19)
(0.0594376 -1.38619e-05 1.27191e-19)
(0.0594468 -1.38614e-05 1.27156e-19)
(0.0594559 -1.3861e-05 1.27418e-19)
(0.059465 -1.38605e-05 1.2821e-19)
(0.059474 -1.38601e-05 1.28101e-19)
(0.059483 -1.38596e-05 1.27624e-19)
(0.059492 -1.38591e-05 1.27478e-19)
(0.0595009 -1.38587e-05 1.27032e-19)
(0.0595098 -1.38582e-05 1.27878e-19)
(0.0595187 -1.38578e-05 1.27203e-19)
(0.0595275 -1.38573e-05 1.26849e-19)
(0.0595363 -1.38569e-05 1.26631e-19)
(0.0595451 -1.38565e-05 1.2716e-19)
(0.0595538 -1.38562e-05 1.26654e-19)
(0.0595625 -1.38559e-05 1.26481e-19)
(0.0595712 -1.38557e-05 1.26815e-19)
(0.0595798 -1.38555e-05 1.27989e-19)
(0.0595884 -1.38555e-05 1.28063e-19)
(0.0595969 -1.38555e-05 1.28556e-19)
(0.0596054 -1.38557e-05 1.28584e-19)
(0.0596139 -1.38562e-05 1.28709e-19)
(0.0596223 -1.38565e-05 1.27998e-19)
(0.0596307 -1.38579e-05 1.27756e-19)
(0.0596391 -1.3858e-05 1.27571e-19)
(0.0596474 -1.38616e-05 1.27674e-19)
(0.0596557 -1.386e-05 1.27622e-19)
(0.059664 -1.38678e-05 1.27764e-19)
(0.0596722 -1.38649e-05 1.27501e-19)
(0.0596804 -1.38698e-05 1.27293e-19)
(0.0596886 -1.38876e-05 1.2786e-19)
(0.0596965 -1.38458e-05 1.26417e-19)
(0.059705 -1.39416e-05 1.2733e-19)
(0.0597124 -1.38378e-05 1.28734e-19)
(0.0597214 -1.40421e-05 1.27829e-19)
(0.0616654 -1.6949e-05 2.34596e-19)
(0.0616767 -1.51632e-05 2.39036e-19)
(0.061688 -1.5831e-05 2.401e-19)
(0.0616991 -1.63315e-05 2.40172e-19)
(0.0617104 -1.58852e-05 2.39175e-19)
(0.0617218 -1.55284e-05 2.43514e-19)
(0.061733 -1.55491e-05 2.40451e-19)
(0.0617443 -1.54779e-05 2.40479e-19)
(0.0617555 -1.53794e-05 2.43527e-19)
(0.0617666 -1.53282e-05 2.43103e-19)
(0.0617778 -1.52578e-05 2.60915e-19)
(0.0617888 -1.52059e-05 1.98728e-19)
(0.0617998 -1.51809e-05 3.90097e-19)
(0.0618108 -1.51501e-05 -1.35255e-19)
(0.0618218 -1.51159e-05 1.10866e-18)
(0.0618327 -1.50846e-05 -1.3324e-18)
(0.0618436 -1.50547e-05 2.308e-18)
(0.0618545 -1.50272e-05 -9.2322e-19)
(0.0618653 -1.50006e-05 -1.96758e-18)
(0.0618761 -1.49726e-05 8.24868e-18)
(0.0618868 -1.49438e-05 2.69959e-18)
(0.0618975 -1.49151e-05 -1.23582e-18)
(0.0619082 -1.48859e-05 -2.64368e-18)
(0.0619188 -1.48555e-05 -2.2277e-18)
(0.0619294 -1.48245e-05 -1.25831e-18)
(0.06194 -1.47928e-05 -4.85558e-19)
(0.0619505 -1.47605e-05 -5.35535e-20)
(0.061961 -1.47276e-05 1.40496e-19)
(0.0619715 -1.46943e-05 2.07271e-19)
(0.0619819 -1.46607e-05 2.36647e-19)
(0.0619922 -1.46268e-05 2.47516e-19)
(0.0620026 -1.45932e-05 2.45702e-19)
(0.0620129 -1.45599e-05 2.43951e-19)
(0.0620231 -1.45272e-05 2.46869e-19)
(0.0620333 -1.44954e-05 2.48548e-19)
(0.0620435 -1.44648e-05 2.46693e-19)
(0.0620537 -1.44354e-05 2.41393e-19)
(0.0620638 -1.44075e-05 2.48379e-19)
(0.0620739 -1.43813e-05 2.49455e-19)
(0.0620839 -1.43566e-05 2.4622e-19)
(0.0620939 -1.43337e-05 2.46699e-19)
(0.0621039 -1.43125e-05 2.47736e-19)
(0.0621139 -1.4293e-05 2.46086e-19)
(0.0621238 -1.42752e-05 2.45154e-19)
(0.0621337 -1.42588e-05 2.46452e-19)
(0.0621435 -1.4244e-05 2.31614e-19)
(0.0621533 -1.42305e-05 2.63945e-19)
(0.0621631 -1.42182e-05 2.13404e-19)
(0.0621729 -1.42071e-05 2.86189e-19)
(0.0621826 -1.4197e-05 2.17672e-19)
(0.0621923 -1.41878e-05 2.32702e-19)
(0.062202 -1.41795e-05 2.73762e-19)
(0.0622117 -1.41719e-05 2.5933e-19)
(0.0622213 -1.4165e-05 2.12143e-19)
(0.0622309 -1.41586e-05 1.87856e-19)
(0.0622405 -1.41528e-05 1.92531e-19)
(0.06225 -1.41474e-05 2.12717e-19)
(0.0622595 -1.41425e-05 2.275e-19)
(0.062269 -1.41379e-05 2.34525e-19)
(0.0622784 -1.41335e-05 2.42795e-19)
(0.0622879 -1.41295e-05 2.45556e-19)
(0.0622973 -1.41258e-05 2.44706e-19)
(0.0623066 -1.41223e-05 2.45115e-19)
(0.062316 -1.4119e-05 2.46422e-19)
(0.0623253 -1.41159e-05 2.46386e-19)
(0.0623346 -1.41129e-05 2.46958e-19)
(0.0623438 -1.41101e-05 2.45842e-19)
(0.0623531 -1.41075e-05 2.45735e-19)
(0.0623623 -1.4105e-05 2.43304e-19)
(0.0623715 -1.41026e-05 2.48115e-19)
(0.0623806 -1.41002e-05 2.46091e-19)
(0.0623897 -1.4098e-05 2.45312e-19)
(0.0623988 -1.40959e-05 2.48211e-19)
(0.0624079 -1.40938e-05 2.46601e-19)
(0.0624169 -1.40918e-05 2.42808e-19)
(0.0624259 -1.40898e-05 2.47498e-19)
(0.0624349 -1.40879e-05 2.34995e-19)
(0.0624439 -1.40861e-05 2.58626e-19)
(0.0624528 -1.40843e-05 2.09305e-19)
(0.0624617 -1.40825e-05 2.83337e-19)
(0.0624706 -1.40808e-05 2.17541e-19)
(0.0624794 -1.40791e-05 2.32031e-19)
(0.0624882 -1.40774e-05 2.76829e-19)
(0.062497 -1.40758e-05 2.58875e-19)
(0.0625058 -1.40742e-05 2.08503e-19)
(0.0625145 -1.40726e-05 1.82191e-19)
(0.0625232 -1.4071e-05 1.92279e-19)
(0.0625318 -1.40694e-05 2.06607e-19)
(0.0625405 -1.40679e-05 2.30232e-19)
(0.0625491 -1.40664e-05 2.39469e-19)
(0.0625577 -1.40649e-05 2.41952e-19)
(0.0625662 -1.40634e-05 2.43272e-19)
(0.0625747 -1.40618e-05 2.43131e-19)
(0.0625832 -1.40603e-05 2.40663e-19)
(0.0625917 -1.40589e-05 2.43273e-19)
(0.0626001 -1.40574e-05 2.45238e-19)
(0.0626085 -1.40559e-05 2.49029e-19)
(0.0626169 -1.40544e-05 2.47436e-19)
(0.0626252 -1.40529e-05 2.46191e-19)
(0.0626335 -1.40514e-05 2.48391e-19)
(0.0626418 -1.405e-05 2.4932e-19)
(0.06265 -1.40485e-05 2.45799e-19)
(0.0626583 -1.4047e-05 2.46115e-19)
(0.0626664 -1.40455e-05 2.42059e-19)
(0.0626746 -1.4044e-05 2.41423e-19)
(0.0626827 -1.40425e-05 2.45213e-19)
(0.0626908 -1.4041e-05 2.4384e-19)
(0.0626989 -1.40395e-05 2.45856e-19)
(0.0627069 -1.4038e-05 2.4546e-19)
(0.0627149 -1.40365e-05 2.45047e-19)
(0.0627229 -1.4035e-05 2.465e-19)
(0.0627308 -1.40335e-05 2.47352e-19)
(0.0627387 -1.4032e-05 2.46347e-19)
(0.0627466 -1.40305e-05 2.44077e-19)
(0.0627544 -1.40289e-05 2.43184e-19)
(0.0627622 -1.40274e-05 2.45465e-19)
(0.06277 -1.40258e-05 2.4472e-19)
(0.0627778 -1.40243e-05 2.48186e-19)
(0.0627855 -1.40227e-05 2.44204e-19)
(0.0627932 -1.40211e-05 2.42958e-19)
(0.0628008 -1.40195e-05 2.57769e-19)
(0.0628084 -1.4018e-05 2.18285e-19)
(0.062816 -1.40164e-05 3.43029e-19)
(0.0628236 -1.40148e-05 -5.19846e-20)
(0.0628311 -1.40131e-05 1.01766e-18)
(0.0628386 -1.40115e-05 -1.44541e-18)
(0.062846 -1.40099e-05 3.28001e-18)
(0.0628534 -1.40083e-05 -4.12562e-18)
(0.0628608 -1.40067e-05 5.55518e-18)
(0.0628682 -1.4005e-05 -6.60315e-18)
(0.0628755 -1.40033e-05 -5.64789e-18)
(0.0628828 -1.40017e-05 -5.1875e-18)
(0.06289 -1.4e-05 -3.96877e-18)
(0.0628973 -1.39983e-05 -2.38547e-18)
(0.0629044 -1.39966e-05 -1.10016e-18)
(0.0629116 -1.39949e-05 -3.32917e-19)
(0.0629187 -1.39932e-05 3.01836e-20)
(0.0629258 -1.39915e-05 1.78225e-19)
(0.0629329 -1.39898e-05 2.23639e-19)
(0.0629399 -1.39881e-05 2.41305e-19)
(0.0629468 -1.39864e-05 2.44044e-19)
(0.0629538 -1.39846e-05 2.42779e-19)
(0.0629607 -1.39829e-05 2.44807e-19)
(0.0629676 -1.39812e-05 2.44987e-19)
(0.0629744 -1.39794e-05 2.44977e-19)
(0.0629812 -1.39777e-05 2.464e-19)
(0.062988 -1.39759e-05 2.48884e-19)
(0.0629947 -1.39741e-05 2.44751e-19)
(0.0630014 -1.39724e-05 2.47876e-19)
(0.0630081 -1.39706e-05 2.47282e-19)
(0.0630147 -1.39689e-05 2.47721e-19)
(0.0630213 -1.39671e-05 2.5034e-19)
(0.0630279 -1.39654e-05 2.50418e-19)
(0.0630344 -1.39636e-05 2.48424e-19)
(0.0630409 -1.39619e-05 2.47721e-19)
(0.0630474 -1.39602e-05 2.45959e-19)
(0.0630538 -1.39586e-05 2.49236e-19)
(0.0630602 -1.39569e-05 2.46916e-19)
(0.0630665 -1.39553e-05 2.45712e-19)
(0.0630728 -1.39537e-05 2.45091e-19)
(0.0630791 -1.39521e-05 2.47125e-19)
(0.0630854 -1.39506e-05 2.45482e-19)
(0.0630916 -1.39492e-05 2.44689e-19)
(0.0630977 -1.39478e-05 2.45415e-19)
(0.0631039 -1.39466e-05 2.49183e-19)
(0.06311 -1.39455e-05 2.48783e-19)
(0.063116 -1.39445e-05 2.50413e-19)
(0.0631221 -1.39437e-05 2.50351e-19)
(0.063128 -1.39433e-05 2.51052e-19)
(0.063134 -1.39429e-05 2.48247e-19)
(0.0631399 -1.39434e-05 2.47797e-19)
(0.0631458 -1.39431e-05 2.46784e-19)
(0.0631516 -1.39457e-05 2.46993e-19)
(0.0631574 -1.39445e-05 2.47198e-19)
(0.0631632 -1.39503e-05 2.48162e-19)
(0.0631689 -1.39499e-05 2.46978e-19)
(0.0631747 -1.39505e-05 2.46007e-19)
(0.0631804 -1.39741e-05 2.48841e-19)
(0.0631859 -1.39273e-05 2.42996e-19)
(0.0631918 -1.4032e-05 2.45835e-19)
(0.0631968 -1.39384e-05 2.50824e-19)
(0.0632032 -1.40865e-05 2.47236e-19)
(0.0627298 -1.46089e-05 7.64989e-19)
(0.0627422 -1.67327e-05 7.82486e-19)
(0.0627521 -1.53525e-05 7.85293e-19)
(0.0627628 -1.64778e-05 7.83309e-19)
(0.0627738 -1.64831e-05 7.75364e-19)
(0.0627843 -1.62588e-05 7.9212e-19)
(0.0627945 -1.62507e-05 7.78465e-19)
(0.0628049 -1.61379e-05 7.7631e-19)
(0.0628153 -1.60775e-05 7.84025e-19)
(0.0628256 -1.6069e-05 7.9033e-19)
(0.0628358 -1.60058e-05 8.2513e-19)
(0.062846 -1.59562e-05 7.01349e-19)
(0.0628562 -1.59311e-05 1.05207e-18)
(0.0628663 -1.58934e-05 1.08807e-19)
(0.0628764 -1.58531e-05 2.35783e-18)
(0.0628865 -1.58159e-05 -2.29957e-18)
(0.0628966 -1.5779e-05 5.6267e-18)
(0.0629066 -1.57454e-05 -4.93581e-18)
(0.0629165 -1.57128e-05 6.04307e-18)
(0.0629265 -1.56781e-05 -5.00556e-18)
(0.0629364 -1.56427e-05 -5.0213e-18)
(0.0629463 -1.56075e-05 -6.24617e-18)
(0.0629561 -1.55717e-05 -5.85702e-18)
(0.0629659 -1.55347e-05 -3.97061e-18)
(0.0629757 -1.54969e-05 -1.90824e-18)
(0.0629854 -1.54583e-05 -4.81961e-19)
(0.0629951 -1.54194e-05 2.74349e-19)
(0.0630047 -1.53798e-05 6.08193e-19)
(0.0630144 -1.53396e-05 7.09115e-19)
(0.0630239 -1.52992e-05 7.70789e-19)
(0.0630335 -1.52588e-05 7.961e-19)
(0.063043 -1.52189e-05 7.86081e-19)
(0.0630524 -1.51795e-05 7.79824e-19)
(0.0630619 -1.51409e-05 7.90642e-19)
(0.0630713 -1.51034e-05 7.98042e-19)
(0.0630806 -1.50672e-05 7.92425e-19)
(0.06309 -1.50327e-05 7.72119e-19)
(0.0630992 -1.49998e-05 7.97511e-19)
(0.0631085 -1.49686e-05 8.02153e-19)
(0.0631177 -1.49394e-05 7.90153e-19)
(0.0631269 -1.49122e-05 7.90641e-19)
(0.0631361 -1.4887e-05 7.96158e-19)
(0.0631452 -1.48637e-05 7.92095e-19)
(0.0631543 -1.48423e-05 7.88498e-19)
(0.0631634 -1.48226e-05 7.95818e-19)
(0.0631725 -1.48046e-05 7.37915e-19)
(0.0631815 -1.47882e-05 8.64759e-19)
(0.0631905 -1.47731e-05 6.61613e-19)
(0.0631994 -1.47594e-05 9.65807e-19)
(0.0632083 -1.47468e-05 6.57888e-19)
(0.0632172 -1.47352e-05 7.67423e-19)
(0.0632261 -1.47246e-05 9.07089e-19)
(0.063235 -1.47148e-05 8.2359e-19)
(0.0632438 -1.47057e-05 6.40393e-19)
(0.0632526 -1.46973e-05 5.62228e-19)
(0.0632613 -1.46895e-05 5.89904e-19)
(0.0632701 -1.46822e-05 6.6963e-19)