/*--------------------------------*- C++ -*----------------------------------*\
| =========                 |                                                 |
| \\      /  F ield         | OpenFOAM: The Open Source CFD Toolbox           |
|  \\    /   O peration     | Version:  2512                                  |
|   \\  /    A nd           | Website:  www.openfoam.com                      |
|    \\/     M anipulation  |                                                 |
\*---------------------------------------------------------------------------*/
FoamFile
{
    version     2.0;
    format      ascii;
    arch        "LSB;label=32;scalar=64";
    class       volScalarField;
    location    "0.1";
    object      Ux;
}
// * * * * * * * * * * * * * * * * * * * * * * * * * * * * * * * * * * * * * //

dimensions      [0 1 -1 0 0 0 0];

internalField   nonuniform List<scalar> 
8333
(
0.021144
0.021167
0.0211893
0.0212151
0.0212401
0.0212644
0.0212881
0.0213115
0.0213346
0.0213575
0.0213804
0.0214032
0.0214259
0.0214486
0.0214711
0.0214937
0.0215161
0.0215385
0.0215609
0.0215832
0.0216055
0.0216277
0.0216499
0.021672
0.0216941
0.0217161
0.0217381
0.02176
0.0217818
0.0218036
0.0218254
0.0218471
0.0218687
0.0218903
0.0219118
0.0219333
0.0219547
0.021976
0.0219973
0.0220186
0.0220398
0.0220609
0.022082
0.022103
0.022124
0.022145
0.0221659
0.0221867
0.0222075
0.0222283
0.0222491
0.0222698
0.0222905
0.0223111
0.0223317
0.0223523
0.0223729
0.0223934
0.0224139
0.0224343
0.0224548
0.0224752
0.0224955
0.0225159
0.0225362
0.0225565
0.0225768
0.022597
0.0226172
0.0226374
0.0226575
0.0226776
0.0226977
0.0227178
0.0227378
0.0227578
0.0227778
0.0227977
0.0228177
0.0228376
0.0228574
0.0228773
0.0228971
0.0229168
0.0229366
0.0229563
0.022976
0.0229957
0.0230153
0.0230349
0.0230545
0.023074
0.0230935
0.023113
0.0231325
0.0231519
0.0231713
0.0231907
0.02321
0.0232293
0.0232486
0.0232679
0.0232871
0.0233063
0.0233254
0.0233445
0.0233636
0.0233827
0.0234017
0.0234207
0.0234397
0.0234587
0.0234776
0.0234964
0.0235153
0.0235341
0.0235529
0.0235716
0.0235904
0.023609
0.0236277
0.0236463
0.0236649
0.0236835
0.023702
0.0237205
0.023739
0.0237574
0.0237758
0.0237942
0.0238125
0.0238308
0.023849
0.0238673
0.0238855
0.0239036
0.0239218
0.0239399
0.0239579
0.0239759
0.0239939
0.0240119
0.0240298
0.0240477
0.0240656
0.0240834
0.0241012
0.0241189
0.0241367
0.0241543
0.024172
0.0241896
0.0242072
0.0242247
0.0242422
0.0242597
0.0242771
0.0242945
0.0243119
0.0243292
0.0243465
0.0243638
0.024381
0.0243982
0.0244154
0.0244325
0.0244496
0.0244666
0.0244836
0.0245006
0.0245175
0.0245344
0.0245513
0.0245681
0.0245849
0.0246017
0.0246184
0.0246351
0.0246517
0.0246683
0.024685
0.0247014
0.0247182
0.0247342
0.0247518
0.0462143
0.0462321
0.04625
0.0462699
0.0462901
0.0463101
0.0463299
0.0463495
0.0463689
0.0463883
0.0464077
0.0464269
0.0464461
0.0464652
0.0464843
0.0465033
0.0465223
0.0465412
0.0465601
0.0465789
0.0465977
0.0466164
0.0466351
0.0466537
0.0466723
0.0466909
0.0467094
0.0467278
0.0467463
0.0467646
0.0467829
0.0468012
0.0468194
0.0468375
0.0468557
0.0468737
0.0468917
0.0469097
0.0469276
0.0469454
0.0469632
0.046981
0.0469987
0.0470164
0.047034
0.0470516
0.0470692
0.0470867
0.0471042
0.0471216
0.047139
0.0471564
0.0471737
0.0471911
0.0472083
0.0472256
0.0472428
0.04726
0.0472772
0.0472943
0.0473114
0.0473285
0.0473455
0.0473625
0.0473795
0.0473965
0.0474134
0.0474303
0.0474472
0.047464
0.0474808
0.0474976
0.0475144
0.0475311
0.0475478
0.0475645
0.0475811
0.0475977
0.0476143
0.0476309
0.0476474
0.0476639
0.0476804
0.0476969
0.0477133
0.0477297
0.047746
0.0477623
0.0477787
0.0477949
0.0478112
0.0478274
0.0478436
0.0478597
0.0478758
0.0478919
0.047908
0.047924
0.04794
0.047956
0.047972
0.0479879
0.0480038
0.0480196
0.0480354
0.0480512
0.048067
0.0480827
0.0480984
0.0481141
0.0481297
0.0481453
0.0481609
0.0481765
0.048192
0.0482075
0.0482229
0.0482383
0.0482537
0.0482691
0.0482844
0.0482997
0.0483149
0.0483301
0.0483453
0.0483605
0.0483756
0.0483907
0.0484058
0.0484208
0.0484358
0.0484507
0.0484657
0.0484806
0.0484954
0.0485103
0.048525
0.0485398
0.0485545
0.0485692
0.0485839
0.0485985
0.0486131
0.0486276
0.0486422
0.0486566
0.0486711
0.0486855
0.0486999
0.0487142
0.0487285
0.0487428
0.0487571
0.0487713
0.0487854
0.0487996
0.0488137
0.0488277
0.0488417
0.0488557
0.0488697
0.0488836
0.0488975
0.0489113
0.0489252
0.0489389
0.0489527
0.0489664
0.04898
0.0489937
0.0490073
0.0490208
0.0490344
0.0490478
0.0490613
0.0490747
0.0490881
0.0491014
0.0491148
0.0491281
0.0491411
0.0491549
0.0491672
0.0491818
0.0577167
0.0577303
0.0577427
0.0577565
0.0577706
0.0577849
0.057799
0.0578129
0.0578268
0.0578407
0.0578545
0.0578682
0.0578819
0.0578956
0.0579092
0.0579228
0.0579363
0.0579498
0.0579633
0.0579767
0.0579901
0.0580034
0.0580167
0.05803
0.0580432
0.0580564
0.0580695
0.0580826
0.0580957
0.0581087
0.0581217
0.0581346
0.0581475
0.0581604
0.0581732
0.0581859
0.0581987
0.0582113
0.058224
0.0582366
0.0582492
0.0582617
0.0582742
0.0582867
0.0582991
0.0583115
0.0583238
0.0583362
0.0583485
0.0583607
0.0583729
0.0583851
0.0583973
0.0584095
0.0584216
0.0584337
0.0584457
0.0584577
0.0584697
0.0584817
0.0584936
0.0585056
0.0585174
0.0585293
0.0585411
0.0585529
0.0585647
0.0585764
0.0585882
0.0585999
0.0586115
0.0586232
0.0586348
0.0586463
0.0586579
0.0586694
0.0586809
0.0586924
0.0587038
0.0587152
0.0587266
0.0587379
0.0587493
0.0587606
0.0587718
0.0587831
0.0587943
0.0588054
0.0588166
0.0588277
0.0588388
0.0588499
0.0588609
0.0588719
0.0588829
0.0588938
0.0589047
0.0589156
0.0589264
0.0589373
0.0589481
0.0589588
0.0589695
0.0589802
0.0589909
0.0590016
0.0590122
0.0590227
0.0590333
0.0590438
0.0590543
0.0590647
0.0590751
0.0590855
0.0590959
0.0591062
0.0591165
0.0591268
0.059137
0.0591472
0.0591574
0.0591675
0.0591776
0.0591877
0.0591977
0.0592077
0.0592177
0.0592276
0.0592375
0.0592474
0.0592572
0.059267
0.0592768
0.0592865
0.0592962
0.0593059
0.0593155
0.0593251
0.0593347
0.0593442
0.0593537
0.0593632
0.0593726
0.059382
0.0593913
0.0594007
0.05941
0.0594192
0.0594284
0.0594376
0.0594468
0.0594559
0.059465
0.059474
0.059483
0.059492
0.0595009
0.0595098
0.0595187
0.0595275
0.0595363
0.0595451
0.0595538
0.0595625
0.0595712
0.0595798
0.0595884
0.0595969
0.0596054
0.0596139
0.0596223
0.0596307
0.0596391
0.0596474
0.0596557
0.059664
0.0596722
0.0596804
0.0596886
0.0596965
0.059705
0.0597124
0.0597214
0.0616654
0.0616767
0.061688
0.0616991
0.0617104
0.0617218
0.061733
0.0617443
0.0617555
0.0617666
0.0617778
0.0617888
0.0617998
0.0618108
0.0618218
0.0618327
0.0618436
0.0618545
0.0618653
0.0618761
0.0618868
0.0618975
0.0619082
0.0619188
0.0619294
0.06194
0.0619505
0.061961
0.0619715
0.0619819
0.0619922
0.0620026
0.0620129
0.0620231
0.0620333
0.0620435
0.0620537
0.0620638
0.0620739
0.0620839
0.0620939
0.0621039
0.0621139
0.0621238
0.0621337
0.0621435
0.0621533
0.0621631
0.0621729
0.0621826
0.0621923
0.062202
0.0622117
0.0622213
0.0622309
0.0622405
0.06225
0.0622595
0.062269
0.0622784
0.0622879
0.0622973
0.0623066
0.062316
0.0623253
0.0623346
0.0623438
0.0623531
0.0623623
0.0623715
0.0623806
0.0623897
0.0623988
0.0624079
0.0624169
0.0624259
0.0624349
0.0624439
0.0624528
0.0624617
0.0624706
0.0624794
0.0624882
0.062497
0.0625058
0.0625145
0.0625232
0.0625318
0.0625405
0.0625491
0.0625577
0.0625662
0.0625747
0.0625832
0.0625917
0.0626001
0.0626085
0.0626169
0.0626252
0.0626335
0.0626418
0.06265
0.0626583
0.0626664
0.0626746
0.0626827
0.0626908
0.0626989
0.0627069
0.0627149
0.0627229
0.0627308
0.0627387
0.0627466
0.0627544
0.0627622
0.06277
0.0627778
0.0627855
0.0627932
0.0628008
0.0628084
0.062816
0.0628236
0.0628311
0.0628386
0.062846
0.0628534
0.0628608
0.0628682
0.0628755
0.0628828
0.06289
0.0628973
0.0629044
0.0629116
0.0629187
0.0629258
0.0629329
0.0629399
0.0629468
0.0629538
0.0629607
0.0629676
0.0629744
0.0629812
0.062988
0.0629947
0.0630014
0.0630081
0.0630147
0.0630213
0.0630279
0.0630344
0.0630409
0.0630474
0.0630538
0.0630602
0.0630665
0.0630728
0.0630791
0.0630854
0.0630916
0.0630977
0.0631039
0.06311
0.063116
0.0631221
0.063128
0.063134
0.0631399
0.0631458
0.0631516
0.0631574
0.0631632
0.0631689
0.0631747
0.0631804
0.0631859
0.0631918
0.0631968
0.0632032
0.0627298
0.0627422
0.0627521
0.0627628
0.0627738
0.0627843
0.0627945
0.0628049
0.0628153
0.0628256
0.0628358
0.062846
0.0628562
0.0628663
0.0628764
0.0628865
0.0628966
0.0629066
0.0629165
0.0629265
0.0629364
0.0629463
0.0629561
0.0629659
0.0629757
0.0629854
0.0629951
0.0630047
0.0630144
0.0630239
0.0630335
0.063043
0.0630524
0.0630619
0.0630713
0.0630806
0.06309
0.0630992
0.0631085
0.0631177
0.0631269
0.0631361
0.0631452
0.0631543
0.0631634
0.0631725
0.0631815
0.0631905
0.0631994
0.0632083
0.0632172
0.0632261
0.063235
0.0632438
0.0632526
0.0632613
0.0632701
0.0632788
0.0632875
0.0632961
0.0633047
0.0633133
0.0633219
0.0633304
0.063339
0.0633474
0.0633559
0.0633643
0.0633727
0.0633811
0.0633895
0.0633978
0.0634061
0.0634143
0.0634226
0.0634308
0.063439
0.0634471
0.0634553
0.0634633
0.0634714
0.0634795
0.0634875
0.0634954
0.0635034
0.0635113
0.0635192
0.0635271
0.0635349
0.0635427
0.0635505
0.0635582
0.063566
0.0635737
0.0635813
0.0635889
0.0635965
0.0636041
0.0636116
0.0636192
0.0636266
0.0636341
0.0636415
0.0636489
0.0636562
0.0636636
0.0636709
0.0636781
0.0636853
0.0636925
0.0636997
0.0637069
0.063714
0.063721
0.0637281
0.0637351
0.0637421
0.063749
0.0637559
0.0637628
0.0637696
0.0637765
0.0637832
0.06379
0.0637967
0.0638034
0.0638101
0.0638167
0.0638233
0.0638298
0.0638363
0.0638428
0.0638493
0.0638557
0.0638621
0.0638684
0.0638747
0.063881
0.0638873
0.0638935
0.0638997
0.0639058
0.0639119
0.063918
0.0639241
0.0639301
0.063936
0.063942
0.0639479
0.0639537
0.0639596
0.0639654
0.0639711
0.0639769
0.0639826
0.0639882
0.0639938
0.0639994
0.064005
0.0640105
0.064016
0.0640214
0.0640268
0.0640322
0.0640375
0.0640428
0.0640481
0.0640533
0.0640585
0.0640636
0.0640687
0.0640738
0.0640789
0.0640839
0.0640889
0.0640938
0.0640987
0.0641036
0.0641083
0.0641134
0.0641177
0.0641231
0.0629791
0.0629901
0.0629997
0.0630105
0.0630208
0.063031
0.0630412
0.0630513
0.0630614
0.0630715
0.0630815
0.0630914
0.0631014
0.0631113
0.0631211
0.063131
0.0631408
0.0631505
0.0631603
0.06317
0.0631796
0.0631893
0.0631989
0.0632084
0.0632179
0.0632274
0.0632369
0.0632463
0.0632556
0.063265
0.0632743
0.0632835
0.0632928
0.0633019
0.0633111
0.0633202
0.0633293
0.0633384
0.0633474
0.0633564
0.0633653
0.0633743
0.0633832
0.063392
0.0634009
0.0634097
0.0634185
0.0634272
0.063436
0.0634447
0.0634534
0.063462
0.0634706
0.0634792
0.0634878
0.0634963
0.0635048
0.0635133
0.0635217
0.0635302
0.0635386
0.0635469
0.0635553
0.0635636
0.0635719
0.0635801
0.0635884
0.0635966
0.0636048
0.0636129
0.063621
0.0636291
0.0636372
0.0636452
0.0636532
0.0636612
0.0636692
0.0636771
0.063685
0.0636929
0.0637007
0.0637085
0.0637163
0.0637241
0.0637318
0.0637395
0.0637471
0.0637548
0.0637624
0.06377
0.0637775
0.063785
0.0637925
0.0638
0.0638074
0.0638148
0.0638222
0.0638295
0.0638368
0.0638441
0.0638514
0.0638586
0.0638658
0.0638729
0.0638801
0.0638872
0.0638942
0.0639012
0.0639083
0.0639152
0.0639222
0.0639291
0.0639359
0.0639428
0.0639496
0.0639564
0.0639631
0.0639698
0.0639765
0.0639832
0.0639898
0.0639964
0.0640029
0.0640094
0.0640159
0.0640224
0.0640288
0.0640352
0.0640416
0.0640479
0.0640542
0.0640604
0.0640666
0.0640728
0.064079
0.0640851
0.0640912
0.0640972
0.0641033
0.0641092
0.0641152
0.0641211
0.064127
0.0641328
0.0641386
0.0641444
0.0641502
0.0641559
0.0641615
0.0641672
0.0641728
0.0641783
0.0641839
0.0641893
0.0641948
0.0642002
0.0642056
0.064211
0.0642163
0.0642216
0.0642268
0.064232
0.0642372
0.0642423
0.0642474
0.0642525
0.0642575
0.0642625
0.0642674
0.0642724
0.0642772
0.0642821
0.0642869
0.0642917
0.0642964
0.0643012
0.0643058
0.0643103
0.0643152
0.0643193
0.0643245
0.0630338
0.0630444
0.0630553
0.0630656
0.0630757
0.0630859
0.063096
0.063106
0.0631161
0.063126
0.0631359
0.0631458
0.0631556
0.0631655
0.0631752
0.063185
0.0631947
0.0632044
0.0632141
0.0632237
0.0632333
0.0632428
0.0632523
0.0632618
0.0632713
0.0632807
0.06329
0.0632994
0.0633087
0.0633179
0.0633271
0.0633363
0.0633455
0.0633546
0.0633636
0.0633727
0.0633817
0.0633907
0.0633996
0.0634085
0.0634174
0.0634263
0.0634351
0.0634439
0.0634527
0.0634614
0.0634702
0.0634788
0.0634875
0.0634961
0.0635047
0.0635133
0.0635219
0.0635304
0.0635389
0.0635473
0.0635558
0.0635642
0.0635726
0.0635809
0.0635893
0.0635976
0.0636058
0.0636141
0.0636223
0.0636305
0.0636387
0.0636468
0.0636549
0.063663
0.0636711
0.0636791
0.0636871
0.063695
0.063703
0.0637109
0.0637188
0.0637266
0.0637345
0.0637423
0.06375
0.0637578
0.0637655
0.0637732
0.0637808
0.0637885
0.0637961
0.0638036
0.0638112
0.0638187
0.0638262
0.0638336
0.063841
0.0638484
0.0638558
0.0638631
0.0638704
0.0638777
0.0638849
0.0638921
0.0638993
0.0639064
0.0639136
0.0639207
0.0639277
0.0639347
0.0639417
0.0639487
0.0639556
0.0639625
0.0639694
0.0639762
0.063983
0.0639898
0.0639965
0.0640032
0.0640099
0.0640166
0.0640232
0.0640297
0.0640363
0.0640428
0.0640493
0.0640557
0.0640621
0.0640685
0.0640749
0.0640812
0.0640875
0.0640937
0.0640999
0.0641061
0.0641123
0.0641184
0.0641244
0.0641305
0.0641365
0.0641425
0.0641484
0.0641543
0.0641602
0.064166
0.0641719
0.0641776
0.0641834
0.0641891
0.0641947
0.0642003
0.0642059
0.0642115
0.064217
0.0642225
0.064228
0.0642334
0.0642388
0.0642441
0.0642494
0.0642547
0.0642599
0.0642651
0.0642703
0.0642754
0.0642805
0.0642856
0.0642906
0.0642956
0.0643005
0.0643055
0.0643103
0.0643152
0.06432
0.0643247
0.0643295
0.0643342
0.0643389
0.0643435
0.064348
0.0643528
0.0643569
0.064362
0.0630404
0.063052
0.0630622
0.0630729
0.063083
0.0630931
0.0631031
0.0631133
0.0631233
0.0631332
0.0631432
0.0631531
0.0631629
0.0631727
0.0631825
0.0631923
0.063202
0.0632117
0.0632213
0.0632309
0.0632405
0.06325
0.0632596
0.063269
0.0632785
0.0632879
0.0632972
0.0633065
0.0633158
0.0633251
0.0633343
0.0633435
0.0633526
0.0633617
0.0633708
0.0633798
0.0633888
0.0633978
0.0634067
0.0634156
0.0634245
0.0634334
0.0634422
0.063451
0.0634597
0.0634685
0.0634772
0.0634859
0.0634945
0.0635031
0.0635117
0.0635203
0.0635288
0.0635374
0.0635458
0.0635543
0.0635627
0.0635711
0.0635795
0.0635879
0.0635962
0.0636045
0.0636127
0.063621
0.0636292
0.0636374
0.0636455
0.0636537
0.0636618
0.0636698
0.0636779
0.0636859
0.0636939
0.0637019
0.0637098
0.0637177
0.0637256
0.0637334
0.0637413
0.063749
0.0637568
0.0637645
0.0637723
0.0637799
0.0637876
0.0637952
0.0638028
0.0638104
0.0638179
0.0638254
0.0638329
0.0638403
0.0638477
0.0638551
0.0638624
0.0638698
0.0638771
0.0638843
0.0638916
0.0638988
0.0639059
0.0639131
0.0639202
0.0639273
0.0639343
0.0639413
0.0639483
0.0639553
0.0639622
0.0639691
0.0639759
0.0639828
0.0639896
0.0639963
0.0640031
0.0640098
0.0640164
0.0640231
0.0640297
0.0640362
0.0640428
0.0640493
0.0640558
0.0640622
0.0640686
0.064075
0.0640813
0.0640876
0.0640939
0.0641001
0.0641063
0.0641125
0.0641187
0.0641248
0.0641308
0.0641369
0.0641429
0.0641489
0.0641548
0.0641607
0.0641666
0.0641724
0.0641782
0.0641839
0.0641897
0.0641954
0.064201
0.0642067
0.0642122
0.0642178
0.0642233
0.0642288
0.0642342
0.0642396
0.064245
0.0642504
0.0642557
0.0642609
0.0642662
0.0642714
0.0642765
0.0642816
0.0642867
0.0642918
0.0642968
0.0643018
0.0643067
0.0643116
0.0643165
0.0643213
0.0643261
0.0643309
0.0643356
0.0643403
0.064345
0.0643496
0.0643541
0.0643588
0.064363
0.0643681
0.0630522
0.0630636
0.0630735
0.0630841
0.0630944
0.0631043
0.0631144
0.0631245
0.0631343
0.0631442
0.0631541
0.063164
0.0631738
0.0631836
0.0631933
0.063203
0.0632127
0.0632224
0.063232
0.0632416
0.0632511
0.0632606
0.0632701
0.0632795
0.0632889
0.0632983
0.0633076
0.0633169
0.0633261
0.0633353
0.0633445
0.0633537
0.0633628
0.0633718
0.0633809
0.0633899
0.0633988
0.0634078
0.0634167
0.0634255
0.0634344
0.0634432
0.063452
0.0634608
0.0634695
0.0634782
0.0634869
0.0634955
0.0635042
0.0635127
0.0635213
0.0635299
0.0635384
0.0635468
0.0635553
0.0635637
0.0635721
0.0635805
0.0635889
0.0635972
0.0636055
0.0636137
0.063622
0.0636302
0.0636384
0.0636465
0.0636547
0.0636628
0.0636708
0.0636789
0.0636869
0.0636949
0.0637028
0.0637108
0.0637187
0.0637266
0.0637344
0.0637422
0.06375
0.0637578
0.0637655
0.0637732
0.0637809
0.0637886
0.0637962
0.0638038
0.0638113
0.0638188
0.0638264
0.0638338
0.0638413
0.0638487
0.0638561
0.0638634
0.0638707
0.063878
0.0638853
0.0638925
0.0638997
0.0639069
0.063914
0.0639211
0.0639282
0.0639353
0.0639423
0.0639493
0.0639562
0.0639631
0.06397
0.0639769
0.0639837
0.0639905
0.0639973
0.064004
0.0640107
0.0640174
0.064024
0.0640306
0.0640372
0.0640437
0.0640502
0.0640567
0.0640631
0.0640695
0.0640759
0.0640822
0.0640886
0.0640948
0.0641011
0.0641073
0.0641134
0.0641196
0.0641257
0.0641318
0.0641378
0.0641438
0.0641498
0.0641557
0.0641616
0.0641675
0.0641733
0.0641791
0.0641849
0.0641906
0.0641963
0.0642019
0.0642076
0.0642131
0.0642187
0.0642242
0.0642297
0.0642351
0.0642405
0.0642459
0.0642513
0.0642566
0.0642618
0.0642671
0.0642723
0.0642774
0.0642825
0.0642876
0.0642927
0.0642977
0.0643027
0.0643076
0.0643125
0.0643174
0.0643222
0.064327
0.0643317
0.0643365
0.0643411
0.0643459
0.0643505
0.0643549
0.0643597
0.0643638
0.064369
0.0630633
0.0630743
0.0630838
0.0630942
0.0631042
0.0631145
0.0631246
0.0631345
0.0631444
0.0631543
0.0631641
0.063174
0.0631838
0.0631935
0.0632032
0.0632129
0.0632226
0.0632322
0.0632417
0.0632513
0.0632608
0.0632703
0.0632797
0.0632891
0.0632985
0.0633078
0.0633171
0.0633263
0.0633355
0.0633447
0.0633538
0.0633629
0.063372
0.063381
0.06339
0.063399
0.0634079
0.0634168
0.0634257
0.0634345
0.0634434
0.0634522
0.0634609
0.0634696
0.0634783
0.063487
0.0634957
0.0635043
0.0635129
0.0635215
0.06353
0.0635385
0.063547
0.0635554
0.0635639
0.0635723
0.0635806
0.063589
0.0635973
0.0636056
0.0636139
0.0636221
0.0636303
0.0636385
0.0636467
0.0636548
0.0636629
0.063671
0.063679
0.063687
0.063695
0.063703
0.0637109
0.0637188
0.0637267
0.0637345
0.0637424
0.0637502
0.0637579
0.0637657
0.0637734
0.063781
0.0637887
0.0637963
0.0638039
0.0638114
0.063819
0.0638265
0.063834
0.0638414
0.0638488
0.0638562
0.0638635
0.0638709
0.0638782
0.0638854
0.0638926
0.0638998
0.063907
0.0639142
0.0639213
0.0639283
0.0639354
0.0639424
0.0639494
0.0639563
0.0639633
0.0639701
0.063977
0.0639838
0.0639906
0.0639974
0.0640041
0.0640108
0.0640175
0.0640241
0.0640307
0.0640373
0.0640438
0.0640503
0.0640568
0.0640632
0.0640697
0.064076
0.0640824
0.0640887
0.0640949
0.0641012
0.0641074
0.0641136
0.0641197
0.0641258
0.0641319
0.0641379
0.0641439
0.0641499
0.0641558
0.0641617
0.0641676
0.0641734
0.0641792
0.064185
0.0641907
0.0641964
0.0642021
0.0642077
0.0642133
0.0642188
0.0642243
0.0642298
0.0642353
0.0642407
0.064246
0.0642514
0.0642567
0.0642619
0.0642672
0.0642724
0.0642775
0.0642826
0.0642877
0.0642928
0.0642978
0.0643028
0.0643077
0.0643126
0.0643175
0.0643223
0.0643271
0.0643319
0.0643366
0.0643412
0.064346
0.0643506
0.064355
0.0643598
0.0643639
0.0643691
0.0630733
0.0630841
0.0630944
0.0631043
0.0631145
0.0631246
0.0631345
0.0631444
0.0631543
0.0631642
0.063174
0.0631838
0.0631935
0.0632033
0.063213
0.0632226
0.0632322
0.0632418
0.0632513
0.0632609
0.0632703
0.0632798
0.0632892
0.0632985
0.0633078
0.0633171
0.0633264
0.0633356
0.0633447
0.0633539
0.063363
0.063372
0.0633811
0.0633901
0.063399
0.063408
0.0634169
0.0634257
0.0634346
0.0634434
0.0634522
0.0634609
0.0634697
0.0634784
0.0634871
0.0634957
0.0635043
0.0635129
0.0635215
0.06353
0.0635385
0.063547
0.0635555
0.0635639
0.0635723
0.0635807
0.063589
0.0635973
0.0636056
0.0636139
0.0636221
0.0636303
0.0636385
0.0636467
0.0636548
0.0636629
0.063671
0.063679
0.0636871
0.063695
0.063703
0.0637109
0.0637188
0.0637267
0.0637346
0.0637424
0.0637502
0.0637579
0.0637657
0.0637734
0.0637811
0.0637887
0.0637963
0.0638039
0.0638115
0.063819
0.0638265
0.063834
0.0638414
0.0638488
0.0638562
0.0638636
0.0638709
0.0638782
0.0638854
0.0638927
0.0638999
0.063907
0.0639142
0.0639213
0.0639284
0.0639354
0.0639424
0.0639494
0.0639564
0.0639633
0.0639702
0.063977
0.0639839
0.0639906
0.0639974
0.0640041
0.0640108
0.0640175
0.0640241
0.0640307
0.0640373
0.0640439
0.0640504
0.0640568
0.0640633
0.0640697
0.064076
0.0640824
0.0640887
0.064095
0.0641012
0.0641074
0.0641136
0.0641197
0.0641258
0.0641319
0.0641379
0.0641439
0.0641499
0.0641558
0.0641617
0.0641676
0.0641734
0.0641792
0.064185
0.0641907
0.0641964
0.0642021
0.0642077
0.0642133
0.0642188
0.0642243
0.0642298
0.0642353
0.0642407
0.0642461
0.0642514
0.0642567
0.064262
0.0642672
0.0642724
0.0642775
0.0642827
0.0642877
0.0642928
0.0642978
0.0643028
0.0643077
0.0643126
0.0643175
0.0643223
0.0643271
0.0643319
0.0643366
0.0643413
0.064346
0.0643506
0.0643551
0.0643598
0.0643639
0.0643691
0.0630724
0.0630843
0.0630937
0.0631041
0.0631147
0.0631247
0.0631345
0.0631445
0.0631544
0.0631642
0.0631741
0.0631838
0.0631936
0.0632033
0.063213
0.0632226
0.0632323
0.0632418
0.0632514
0.0632609
0.0632704
0.0632798
0.0632892
0.0632986
0.0633079
0.0633172
0.0633264
0.0633356
0.0633448
0.0633539
0.063363
0.0633721
0.0633811
0.0633901
0.0633991
0.063408
0.0634169
0.0634258
0.0634346
0.0634434
0.0634522
0.063461
0.0634697
0.0634784
0.0634871
0.0634957
0.0635043
0.0635129
0.0635215
0.06353
0.0635385
0.063547
0.0635555
0.0635639
0.0635723
0.0635807
0.063589
0.0635974
0.0636056
0.0636139
0.0636221
0.0636304
0.0636385
0.0636467
0.0636548
0.0636629
0.063671
0.063679
0.0636871
0.063695
0.063703
0.0637109
0.0637188
0.0637267
0.0637346
0.0637424
0.0637502
0.0637579
0.0637657
0.0637734
0.0637811
0.0637887
0.0637963
0.0638039
0.0638115
0.063819
0.0638265
0.063834
0.0638414
0.0638488
0.0638562
0.0638636
0.0638709
0.0638782
0.0638854
0.0638927
0.0638999
0.063907
0.0639142
0.0639213
0.0639284
0.0639354
0.0639424
0.0639494
0.0639564
0.0639633
0.0639702
0.063977
0.0639839
0.0639907
0.0639974
0.0640041
0.0640108
0.0640175
0.0640241
0.0640308
0.0640373
0.0640439
0.0640504
0.0640568
0.0640633
0.0640697
0.0640761
0.0640824
0.0640887
0.064095
0.0641012
0.0641074
0.0641136
0.0641197
0.0641258
0.0641319
0.0641379
0.0641439
0.0641499
0.0641558
0.0641617
0.0641676
0.0641734
0.0641792
0.064185
0.0641907
0.0641964
0.0642021
0.0642077
0.0642133
0.0642188
0.0642244
0.0642298
0.0642353
0.0642407
0.0642461
0.0642514
0.0642567
0.064262
0.0642672
0.0642724
0.0642775
0.0642827
0.0642878
0.0642928
0.0642978
0.0643028
0.0643077
0.0643126
0.0643175
0.0643223
0.0643271
0.0643319
0.0643366
0.0643413
0.064346
0.0643506
0.064355
0.0643598
0.0643639
0.064369
0.0630838
0.0630945
0.0631037
0.0631144
0.0631246
0.0631345
0.0631445
0.0631544
0.0631642
0.0631741
0.0631839
0.0631936
0.0632033
0.063213
0.0632227
0.0632323
0.0632419
0.0632514
0.0632609
0.0632704
0.0632799
0.0632893
0.0632986
0.0633079
0.0633172
0.0633265
0.0633357
0.0633448
0.063354
0.0633631
0.0633721
0.0633811
0.0633901
0.0633991
0.063408
0.0634169
0.0634258
0.0634346
0.0634435
0.0634522
0.063461
0.0634697
0.0634784
0.0634871
0.0634957
0.0635044
0.0635129
0.0635215
0.06353
0.0635386
0.063547
0.0635555
0.0635639
0.0635723
0.0635807
0.063589
0.0635974
0.0636057
0.0636139
0.0636222
0.0636304
0.0636385
0.0636467
0.0636548
0.0636629
0.063671
0.063679
0.0636871
0.0636951
0.063703
0.0637109
0.0637189
0.0637267
0.0637346
0.0637424
0.0637502
0.0637579
0.0637657
0.0637734
0.0637811
0.0637887
0.0637963
0.0638039
0.0638115
0.063819
0.0638265
0.063834
0.0638414
0.0638488
0.0638562
0.0638636
0.0638709
0.0638782
0.0638854
0.0638927
0.0638999
0.063907
0.0639142
0.0639213
0.0639284
0.0639354
0.0639424
0.0639494
0.0639564
0.0639633
0.0639702
0.063977
0.0639839
0.0639907
0.0639974
0.0640042
0.0640109
0.0640175
0.0640242
0.0640308
0.0640373
0.0640439
0.0640504
0.0640568
0.0640633
0.0640697
0.0640761
0.0640824
0.0640887
0.064095
0.0641012
0.0641074
0.0641136
0.0641197
0.0641258
0.0641319
0.0641379
0.0641439
0.0641499
0.0641559
0.0641618
0.0641676
0.0641734
0.0641792
0.064185
0.0641907
0.0641964
0.0642021
0.0642077
0.0642133
0.0642188
0.0642244
0.0642298
0.0642353
0.0642407
0.0642461
0.0642514
0.0642567
0.064262
0.0642672
0.0642724
0.0642775
0.0642827
0.0642878
0.0642928
0.0642978
0.0643028
0.0643077
0.0643126
0.0643175
0.0643223
0.0643271
0.0643319
0.0643366
0.0643412
0.064346
0.0643506
0.064355
0.0643598
0.0643639
0.064369
0.0630935
0.0631038
0.0631145
0.0631245
0.0631345
0.0631445
0.0631544
0.0631643
0.0631742
0.0631839
0.0631936
0.0632034
0.0632131
0.0632227
0.0632323
0.0632419
0.0632515
0.063261
0.0632705
0.0632799
0.0632893
0.0632987
0.063308
0.0633173
0.0633265
0.0633357
0.0633449
0.063354
0.0633631
0.0633722
0.0633812
0.0633902
0.0633991
0.0634081
0.063417
0.0634258
0.0634347
0.0634435
0.0634523
0.063461
0.0634697
0.0634784
0.0634871
0.0634958
0.0635044
0.063513
0.0635215
0.0635301
0.0635386
0.063547
0.0635555
0.0635639
0.0635723
0.0635807
0.063589
0.0635974
0.0636057
0.0636139
0.0636222
0.0636304
0.0636386
0.0636467
0.0636548
0.0636629
0.063671
0.0636791
0.0636871
0.0636951
0.063703
0.063711
0.0637189
0.0637267
0.0637346
0.0637424
0.0637502
0.063758
0.0637657
0.0637734
0.0637811
0.0637887
0.0637963
0.0638039
0.0638115
0.063819
0.0638265
0.063834
0.0638414
0.0638488
0.0638562
0.0638636
0.0638709
0.0638782
0.0638854
0.0638927
0.0638999
0.063907
0.0639142
0.0639213
0.0639284
0.0639354
0.0639424
0.0639494
0.0639564
0.0639633
0.0639702
0.063977
0.0639839
0.0639907
0.0639974
0.0640042
0.0640109
0.0640175
0.0640242
0.0640308
0.0640373
0.0640439
0.0640504
0.0640568
0.0640633
0.0640697
0.0640761
0.0640824
0.0640887
0.064095
0.0641012
0.0641074
0.0641136
0.0641197
0.0641258
0.0641319
0.0641379
0.064144
0.0641499
0.0641559
0.0641618
0.0641676
0.0641735
0.0641792
0.064185
0.0641907
0.0641964
0.0642021
0.0642077
0.0642133
0.0642188
0.0642244
0.0642298
0.0642353
0.0642407
0.0642461
0.0642514
0.0642567
0.064262
0.0642672
0.0642724
0.0642776
0.0642827
0.0642878
0.0642928
0.0642978
0.0643028
0.0643077
0.0643126
0.0643175
0.0643223
0.0643271
0.0643319
0.0643366
0.0643412
0.064346
0.0643505
0.064355
0.0643598
0.0643639
0.064369
0.0630926
0.063104
0.0631141
0.0631246
0.0631345
0.0631444
0.0631543
0.0631643
0.0631742
0.0631839
0.0631937
0.0632034
0.0632131
0.0632228
0.0632324
0.063242
0.0632515
0.063261
0.0632705
0.06328
0.0632894
0.0632987
0.063308
0.0633173
0.0633266
0.0633358
0.0633449
0.0633541
0.0633632
0.0633722
0.0633812
0.0633902
0.0633992
0.0634081
0.063417
0.0634259
0.0634347
0.0634435
0.0634523
0.063461
0.0634698
0.0634785
0.0634871
0.0634958
0.0635044
0.063513
0.0635215
0.0635301
0.0635386
0.0635471
0.0635555
0.0635639
0.0635723
0.0635807
0.0635891
0.0635974
0.0636057
0.0636139
0.0636222
0.0636304
0.0636386
0.0636467
0.0636548
0.0636629
0.063671
0.0636791
0.0636871
0.0636951
0.063703
0.063711
0.0637189
0.0637267
0.0637346
0.0637424
0.0637502
0.063758
0.0637657
0.0637734
0.0637811
0.0637887
0.0637963
0.0638039
0.0638115
0.063819
0.0638265
0.063834
0.0638414
0.0638488
0.0638562
0.0638636
0.0638709
0.0638782
0.0638854
0.0638927
0.0638999
0.063907
0.0639142
0.0639213
0.0639284
0.0639354
0.0639424
0.0639494
0.0639564
0.0639633
0.0639702
0.063977
0.0639839
0.0639907
0.0639974
0.0640042
0.0640109
0.0640175
0.0640242
0.0640308
0.0640373
0.0640439
0.0640504
0.0640568
0.0640633
0.0640697
0.0640761
0.0640824
0.0640887
0.064095
0.0641012
0.0641074
0.0641136
0.0641197
0.0641258
0.0641319
0.064138
0.064144
0.0641499
0.0641559
0.0641618
0.0641676
0.0641735
0.0641793
0.064185
0.0641907
0.0641964
0.0642021
0.0642077
0.0642133
0.0642188
0.0642244
0.0642298
0.0642353
0.0642407
0.0642461
0.0642514
0.0642567
0.064262
0.0642672
0.0642724
0.0642776
0.0642827
0.0642878
0.0642928
0.0642978
0.0643028
0.0643077
0.0643126
0.0643175
0.0643223
0.0643271
0.0643319
0.0643366
0.0643412
0.0643459
0.0643505
0.064355
0.0643598
0.0643639
0.064369
0.0631032
0.0631144
0.0631241
0.0631346
0.0631447
0.0631544
0.0631643
0.0631742
0.063184
0.0631937
0.0632035
0.0632132
0.0632228
0.0632324
0.063242
0.0632516
0.0632611
0.0632706
0.06328
0.0632894
0.0632988
0.0633081
0.0633174
0.0633266
0.0633358
0.063345
0.0633541
0.0633632
0.0633723
0.0633813
0.0633903
0.0633992
0.0634081
0.063417
0.0634259
0.0634347
0.0634435
0.0634523
0.0634611
0.0634698
0.0634785
0.0634871
0.0634958
0.0635044
0.063513
0.0635216
0.0635301
0.0635386
0.0635471
0.0635555
0.0635639
0.0635723
0.0635807
0.0635891
0.0635974
0.0636057
0.0636139
0.0636222
0.0636304
0.0636386
0.0636467
0.0636548
0.0636629
0.063671
0.0636791
0.0636871
0.0636951
0.063703
0.063711
0.0637189
0.0637267
0.0637346
0.0637424
0.0637502
0.063758
0.0637657
0.0637734
0.0637811
0.0637887
0.0637963
0.0638039
0.0638115
0.063819
0.0638265
0.063834
0.0638414
0.0638488
0.0638562
0.0638636
0.0638709
0.0638782
0.0638855
0.0638927
0.0638999
0.0639071
0.0639142
0.0639213
0.0639284
0.0639354
0.0639424
0.0639494
0.0639564
0.0639633
0.0639702
0.063977
0.0639839
0.0639907
0.0639974
0.0640042
0.0640109
0.0640175
0.0640242
0.0640308
0.0640373
0.0640439
0.0640504
0.0640569
0.0640633
0.0640697
0.0640761
0.0640824
0.0640887
0.064095
0.0641012
0.0641074
0.0641136
0.0641197
0.0641259
0.0641319
0.064138
0.064144
0.0641499
0.0641559
0.0641618
0.0641676
0.0641735
0.0641793
0.064185
0.0641907
0.0641964
0.0642021
0.0642077
0.0642133
0.0642189
0.0642244
0.0642298
0.0642353
0.0642407
0.0642461
0.0642514
0.0642567
0.064262
0.0642672
0.0642724
0.0642776
0.0642827
0.0642878
0.0642928
0.0642978
0.0643028
0.0643077
0.0643126
0.0643175
0.0643223
0.0643271
0.0643319
0.0643366
0.0643412
0.0643459
0.0643505
0.064355
0.0643598
0.0643639
0.064369
0.0631141
0.0631247
0.063134
0.0631443
0.0631542
0.0631643
0.0631743
0.063184
0.0631938
0.0632035
0.0632132
0.0632229
0.0632325
0.0632421
0.0632516
0.0632612
0.0632706
0.0632801
0.0632895
0.0632988
0.0633082
0.0633174
0.0633267
0.0633359
0.063345
0.0633542
0.0633632
0.0633723
0.0633813
0.0633903
0.0633992
0.0634082
0.0634171
0.0634259
0.0634348
0.0634436
0.0634523
0.0634611
0.0634698
0.0634785
0.0634872
0.0634958
0.0635044
0.063513
0.0635216
0.0635301
0.0635386
0.0635471
0.0635555
0.063564
0.0635724
0.0635807
0.0635891
0.0635974
0.0636057
0.0636139
0.0636222
0.0636304
0.0636386
0.0636467
0.0636549
0.063663
0.063671
0.0636791
0.0636871
0.0636951
0.063703
0.063711
0.0637189
0.0637267
0.0637346
0.0637424
0.0637502
0.063758
0.0637657
0.0637734