/*--------------------------------*- C++ -*----------------------------------*\
| =========                 |                                                 |
| \\      /  F ield         | OpenFOAM: The Open Source CFD Toolbox           |
|  \\    /   O peration     | Version:  2512                                  |
|   \\  /    A nd           | Website:  www.openfoam.com                      |
|    \\/     M anipulation  |                                                 |
\*---------------------------------------------------------------------------*/
FoamFile
{
    version     2.0;
    format      ascii;
    arch        "LSB;label=32;scalar=64";
    class       volScalarField;
    location    "0.1";
    object      Uy;
}
// * * * * * * * * * * * * * * * * * * * * * * * * * * * * * * * * * * * * * //

dimensions      [0 1 -1 0 0 0 0];

internalField   nonuniform List<scalar> 
8333
(
-4.62452e-06
-9.52687e-06
-8.0791e-06
-8.50458e-06
-7.72546e-06
-7.16066e-06
-7.07887e-06
-7.13321e-06
-7.18594e-06
-7.20422e-06
-7.19122e-06
-7.18183e-06
-7.18199e-06
-7.17905e-06
-7.17363e-06
-7.1677e-06
-7.15969e-06
-7.15083e-06
-7.14239e-06
-7.1342e-06
-7.12611e-06
-7.11793e-06
-7.1095e-06
-7.10095e-06
-7.09233e-06
-7.08356e-06
-7.07462e-06
-7.06559e-06
-7.05646e-06
-7.04722e-06
-7.03785e-06
-7.0283e-06
-7.01867e-06
-7.00904e-06
-6.99942e-06
-6.98977e-06
-6.98014e-06
-6.9706e-06
-6.96118e-06
-6.95193e-06
-6.94286e-06
-6.93401e-06
-6.92542e-06
-6.91714e-06
-6.90914e-06
-6.90139e-06
-6.89388e-06
-6.88662e-06
-6.87958e-06
-6.87271e-06
-6.86599e-06
-6.85941e-06
-6.85294e-06
-6.84657e-06
-6.84028e-06
-6.83404e-06
-6.82787e-06
-6.82173e-06
-6.81564e-06
-6.80957e-06
-6.80352e-06
-6.7975e-06
-6.79149e-06
-6.7855e-06
-6.77951e-06
-6.7735e-06
-6.7675e-06
-6.76148e-06
-6.75546e-06
-6.74942e-06
-6.74338e-06
-6.73732e-06
-6.73125e-06
-6.72516e-06
-6.71906e-06
-6.71294e-06
-6.70681e-06
-6.70067e-06
-6.6945e-06
-6.68832e-06
-6.68213e-06
-6.6759e-06
-6.66966e-06
-6.66341e-06
-6.65713e-06
-6.65083e-06
-6.64451e-06
-6.63817e-06
-6.63181e-06
-6.62542e-06
-6.61901e-06
-6.61257e-06
-6.60612e-06
-6.59964e-06
-6.59314e-06
-6.58662e-06
-6.58009e-06
-6.57353e-06
-6.56694e-06
-6.56034e-06
-6.55371e-06
-6.54706e-06
-6.54039e-06
-6.53369e-06
-6.52697e-06
-6.52022e-06
-6.51345e-06
-6.50667e-06
-6.49988e-06
-6.49306e-06
-6.48622e-06
-6.47936e-06
-6.47248e-06
-6.46557e-06
-6.45863e-06
-6.45167e-06
-6.44469e-06
-6.4377e-06
-6.43069e-06
-6.42366e-06
-6.41661e-06
-6.40954e-06
-6.40245e-06
-6.39533e-06
-6.3882e-06
-6.38105e-06
-6.37388e-06
-6.36668e-06
-6.35946e-06
-6.35222e-06
-6.34495e-06
-6.33768e-06
-6.3304e-06
-6.32308e-06
-6.31575e-06
-6.3084e-06
-6.30104e-06
-6.29365e-06
-6.28625e-06
-6.27883e-06
-6.2714e-06
-6.26393e-06
-6.25646e-06
-6.24896e-06
-6.24144e-06
-6.23391e-06
-6.22638e-06
-6.21883e-06
-6.21126e-06
-6.20367e-06
-6.19607e-06
-6.18846e-06
-6.18082e-06
-6.17318e-06
-6.16552e-06
-6.15785e-06
-6.15015e-06
-6.14243e-06
-6.13469e-06
-6.12695e-06
-6.11919e-06
-6.11142e-06
-6.10364e-06
-6.09586e-06
-6.08806e-06
-6.08026e-06
-6.07246e-06
-6.06466e-06
-6.05686e-06
-6.04907e-06
-6.04128e-06
-6.03355e-06
-6.02573e-06
-6.01825e-06
-6.01021e-06
-6.00337e-06
-5.99476e-06
-5.98842e-06
-5.98122e-06
-5.96861e-06
-5.9752e-06
-5.93713e-06
-5.9787e-06
-5.92143e-06
-5.91811e-06
-1.40355e-05
-1.59204e-05
-1.56042e-05
-1.62332e-05
-1.61345e-05
-1.61045e-05
-1.57781e-05
-1.55223e-05
-1.55214e-05
-1.55007e-05
-1.54306e-05
-1.53795e-05
-1.53363e-05
-1.53046e-05
-1.52841e-05
-1.52612e-05
-1.52363e-05
-1.52133e-05
-1.51919e-05
-1.51718e-05
-1.51519e-05
-1.51313e-05
-1.51102e-05
-1.50889e-05
-1.50672e-05
-1.50449e-05
-1.5022e-05
-1.49987e-05
-1.49749e-05
-1.49508e-05
-1.49263e-05
-1.49014e-05
-1.48763e-05
-1.48511e-05
-1.48261e-05
-1.48014e-05
-1.47771e-05
-1.47534e-05
-1.47305e-05
-1.47085e-05
-1.46874e-05
-1.46674e-05
-1.46485e-05
-1.46307e-05
-1.4614e-05
-1.45983e-05
-1.45835e-05
-1.45697e-05
-1.45567e-05
-1.45444e-05
-1.45328e-05
-1.45218e-05
-1.45114e-05
-1.45014e-05
-1.44918e-05
-1.44826e-05
-1.44737e-05
-1.44651e-05
-1.44567e-05
-1.44486e-05
-1.44405e-05
-1.44326e-05
-1.44249e-05
-1.44174e-05
-1.44099e-05
-1.44025e-05
-1.43952e-05
-1.43879e-05
-1.43808e-05
-1.43737e-05
-1.43666e-05
-1.43596e-05
-1.43526e-05
-1.43456e-05
-1.43387e-05
-1.43318e-05
-1.43249e-05
-1.4318e-05
-1.43111e-05
-1.43042e-05
-1.42973e-05
-1.42905e-05
-1.42836e-05
-1.42767e-05
-1.42698e-05
-1.42629e-05
-1.42561e-05
-1.42492e-05
-1.42423e-05
-1.42353e-05
-1.42284e-05
-1.42215e-05
-1.42145e-05
-1.42076e-05
-1.42006e-05
-1.41936e-05
-1.41866e-05
-1.41796e-05
-1.41726e-05
-1.41655e-05
-1.41584e-05
-1.41514e-05
-1.41443e-05
-1.41371e-05
-1.413e-05
-1.41229e-05
-1.41157e-05
-1.41085e-05
-1.41012e-05
-1.4094e-05
-1.40867e-05
-1.40795e-05
-1.40722e-05
-1.40649e-05
-1.40575e-05
-1.40502e-05
-1.40428e-05
-1.40354e-05
-1.4028e-05
-1.40205e-05
-1.40131e-05
-1.40056e-05
-1.39981e-05
-1.39906e-05
-1.3983e-05
-1.39755e-05
-1.39679e-05
-1.39603e-05
-1.39527e-05
-1.3945e-05
-1.39373e-05
-1.39296e-05
-1.39219e-05
-1.39142e-05
-1.39064e-05
-1.38987e-05
-1.38909e-05
-1.3883e-05
-1.38752e-05
-1.38673e-05
-1.38594e-05
-1.38515e-05
-1.38436e-05
-1.38357e-05
-1.38277e-05
-1.38197e-05
-1.38117e-05
-1.38036e-05
-1.37956e-05
-1.37875e-05
-1.37794e-05
-1.37712e-05
-1.37631e-05
-1.37549e-05
-1.37467e-05
-1.37385e-05
-1.37303e-05
-1.37221e-05
-1.37139e-05
-1.37057e-05
-1.36974e-05
-1.36892e-05
-1.3681e-05
-1.36727e-05
-1.36645e-05
-1.36564e-05
-1.36482e-05
-1.36401e-05
-1.36321e-05
-1.36242e-05
-1.36165e-05
-1.36086e-05
-1.36016e-05
-1.35933e-05
-1.35881e-05
-1.35784e-05
-1.35756e-05
-1.35675e-05
-1.3555e-05
-1.35766e-05
-1.35038e-05
-1.36121e-05
-1.34493e-05
-1.35335e-05
-1.36956e-05
-1.48062e-05
-1.52914e-05
-1.51855e-05
-1.52515e-05
-1.50278e-05
-1.48712e-05
-1.49316e-05
-1.48966e-05
-1.48258e-05
-1.47957e-05
-1.47547e-05
-1.47207e-05
-1.47029e-05
-1.46791e-05
-1.46513e-05
-1.46257e-05
-1.46019e-05
-1.45803e-05
-1.45594e-05
-1.45375e-05
-1.4515e-05
-1.44926e-05
-1.44697e-05
-1.44459e-05
-1.44216e-05
-1.43967e-05
-1.43715e-05
-1.43458e-05
-1.43195e-05
-1.42928e-05
-1.42661e-05
-1.42394e-05
-1.42129e-05
-1.41867e-05
-1.41611e-05
-1.41363e-05
-1.41125e-05
-1.40898e-05
-1.40683e-05
-1.40482e-05
-1.40297e-05
-1.40128e-05
-1.39973e-05
-1.39834e-05
-1.39707e-05
-1.39595e-05
-1.39495e-05
-1.39405e-05
-1.39326e-05
-1.39255e-05
-1.39193e-05
-1.39138e-05
-1.39089e-05
-1.39046e-05
-1.39007e-05
-1.38973e-05
-1.38943e-05
-1.38916e-05
-1.38892e-05
-1.38871e-05
-1.38853e-05
-1.38836e-05
-1.38822e-05
-1.38809e-05
-1.38797e-05
-1.38787e-05
-1.38777e-05
-1.38769e-05
-1.38762e-05
-1.38756e-05
-1.38751e-05
-1.38746e-05
-1.38742e-05
-1.38738e-05
-1.38735e-05
-1.38732e-05
-1.3873e-05
-1.38728e-05
-1.38727e-05
-1.38726e-05
-1.38725e-05
-1.38724e-05
-1.38723e-05
-1.38723e-05
-1.38723e-05
-1.38723e-05
-1.38723e-05
-1.38722e-05
-1.38722e-05
-1.38722e-05
-1.38723e-05
-1.38723e-05
-1.38723e-05
-1.38723e-05
-1.38724e-05
-1.38724e-05
-1.38724e-05
-1.38724e-05
-1.38724e-05
-1.38724e-05
-1.38724e-05
-1.38724e-05
-1.38724e-05
-1.38724e-05
-1.38724e-05
-1.38723e-05
-1.38723e-05
-1.38723e-05
-1.38722e-05
-1.38722e-05
-1.38721e-05
-1.3872e-05
-1.38719e-05
-1.38718e-05
-1.38717e-05
-1.38716e-05
-1.38715e-05
-1.38713e-05
-1.38712e-05
-1.38711e-05
-1.38709e-05
-1.38707e-05
-1.38705e-05
-1.38703e-05
-1.38701e-05
-1.38699e-05
-1.38697e-05
-1.38694e-05
-1.38691e-05
-1.38689e-05
-1.38686e-05
-1.38683e-05
-1.3868e-05
-1.38677e-05
-1.38674e-05
-1.3867e-05
-1.38667e-05
-1.38663e-05
-1.3866e-05
-1.38656e-05
-1.38652e-05
-1.38648e-05
-1.38644e-05
-1.3864e-05
-1.38636e-05
-1.38632e-05
-1.38627e-05
-1.38623e-05
-1.38619e-05
-1.38614e-05
-1.3861e-05
-1.38605e-05
-1.38601e-05
-1.38596e-05
-1.38591e-05
-1.38587e-05
-1.38582e-05
-1.38578e-05
-1.38573e-05
-1.38569e-05
-1.38565e-05
-1.38562e-05
-1.38559e-05
-1.38557e-05
-1.38555e-05
-1.38555e-05
-1.38555e-05
-1.38557e-05
-1.38562e-05
-1.38565e-05
-1.38579e-05
-1.3858e-05
-1.38616e-05
-1.386e-05
-1.38678e-05
-1.38649e-05
-1.38698e-05
-1.38876e-05
-1.38458e-05
-1.39416e-05
-1.38378e-05
-1.40421e-05
-1.6949e-05
-1.51632e-05
-1.5831e-05
-1.63315e-05
-1.58852e-05
-1.55284e-05
-1.55491e-05
-1.54779e-05
-1.53794e-05
-1.53282e-05
-1.52578e-05
-1.52059e-05
-1.51809e-05
-1.51501e-05
-1.51159e-05
-1.50846e-05
-1.50547e-05
-1.50272e-05
-1.50006e-05
-1.49726e-05
-1.49438e-05
-1.49151e-05
-1.48859e-05
-1.48555e-05
-1.48245e-05
-1.47928e-05
-1.47605e-05
-1.47276e-05
-1.46943e-05
-1.46607e-05
-1.46268e-05
-1.45932e-05
-1.45599e-05
-1.45272e-05
-1.44954e-05
-1.44648e-05
-1.44354e-05
-1.44075e-05
-1.43813e-05
-1.43566e-05
-1.43337e-05
-1.43125e-05
-1.4293e-05
-1.42752e-05
-1.42588e-05
-1.4244e-05
-1.42305e-05
-1.42182e-05
-1.42071e-05
-1.4197e-05
-1.41878e-05
-1.41795e-05
-1.41719e-05
-1.4165e-05
-1.41586e-05
-1.41528e-05
-1.41474e-05
-1.41425e-05
-1.41379e-05
-1.41335e-05
-1.41295e-05
-1.41258e-05
-1.41223e-05
-1.4119e-05
-1.41159e-05
-1.41129e-05
-1.41101e-05
-1.41075e-05
-1.4105e-05
-1.41026e-05
-1.41002e-05
-1.4098e-05
-1.40959e-05
-1.40938e-05
-1.40918e-05
-1.40898e-05
-1.40879e-05
-1.40861e-05
-1.40843e-05
-1.40825e-05
-1.40808e-05
-1.40791e-05
-1.40774e-05
-1.40758e-05
-1.40742e-05
-1.40726e-05
-1.4071e-05
-1.40694e-05
-1.40679e-05
-1.40664e-05
-1.40649e-05
-1.40634e-05
-1.40618e-05
-1.40603e-05
-1.40589e-05
-1.40574e-05
-1.40559e-05
-1.40544e-05
-1.40529e-05
-1.40514e-05
-1.405e-05
-1.40485e-05
-1.4047e-05
-1.40455e-05
-1.4044e-05
-1.40425e-05
-1.4041e-05
-1.40395e-05
-1.4038e-05
-1.40365e-05
-1.4035e-05
-1.40335e-05
-1.4032e-05
-1.40305e-05
-1.40289e-05
-1.40274e-05
-1.40258e-05
-1.40243e-05
-1.40227e-05
-1.40211e-05
-1.40195e-05
-1.4018e-05
-1.40164e-05
-1.40148e-05
-1.40131e-05
-1.40115e-05
-1.40099e-05
-1.40083e-05
-1.40067e-05
-1.4005e-05
-1.40033e-05
-1.40017e-05
-1.4e-05
-1.39983e-05
-1.39966e-05
-1.39949e-05
-1.39932e-05
-1.39915e-05
-1.39898e-05
-1.39881e-05
-1.39864e-05
-1.39846e-05
-1.39829e-05
-1.39812e-05
-1.39794e-05
-1.39777e-05
-1.39759e-05
-1.39741e-05
-1.39724e-05
-1.39706e-05
-1.39689e-05
-1.39671e-05
-1.39654e-05
-1.39636e-05
-1.39619e-05
-1.39602e-05
-1.39586e-05
-1.39569e-05
-1.39553e-05
-1.39537e-05
-1.39521e-05
-1.39506e-05
-1.39492e-05
-1.39478e-05
-1.39466e-05
-1.39455e-05
-1.39445e-05
-1.39437e-05
-1.39433e-05
-1.39429e-05
-1.39434e-05
-1.39431e-05
-1.39457e-05
-1.39445e-05
-1.39503e-05
-1.39499e-05
-1.39505e-05
-1.39741e-05
-1.39273e-05
-1.4032e-05
-1.39384e-05
-1.40865e-05
-1.46089e-05
-1.67327e-05
-1.53525e-05
-1.64778e-05
-1.64831e-05
-1.62588e-05
-1.62507e-05
-1.61379e-05
-1.60775e-05
-1.6069e-05
-1.60058e-05
-1.59562e-05
-1.59311e-05
-1.58934e-05
-1.58531e-05
-1.58159e-05
-1.5779e-05
-1.57454e-05
-1.57128e-05
-1.56781e-05
-1.56427e-05
-1.56075e-05
-1.55717e-05
-1.55347e-05
-1.54969e-05
-1.54583e-05
-1.54194e-05
-1.53798e-05
-1.53396e-05
-1.52992e-05
-1.52588e-05
-1.52189e-05
-1.51795e-05
-1.51409e-05
-1.51034e-05
-1.50672e-05
-1.50327e-05
-1.49998e-05
-1.49686e-05
-1.49394e-05
-1.49122e-05
-1.4887e-05
-1.48637e-05
-1.48423e-05
-1.48226e-05
-1.48046e-05
-1.47882e-05
-1.47731e-05
-1.47594e-05
-1.47468e-05
-1.47352e-05
-1.47246e-05
-1.47148e-05
-1.47057e-05
-1.46973e-05
-1.46895e-05
-1.46822e-05
-1.46755e-05
-1.4669e-05
-1.46629e-05
-1.46572e-05
-1.46518e-05
-1.46467e-05
-1.46418e-05
-1.46371e-05
-1.46325e-05
-1.46282e-05
-1.46241e-05
-1.462e-05
-1.46161e-05
-1.46124e-05
-1.46087e-05
-1.46052e-05
-1.46017e-05
-1.45983e-05
-1.45949e-05
-1.45917e-05
-1.45885e-05
-1.45854e-05
-1.45823e-05
-1.45793e-05
-1.45763e-05
-1.45733e-05
-1.45704e-05
-1.45675e-05
-1.45647e-05
-1.45618e-05
-1.4559e-05
-1.45562e-05
-1.45534e-05
-1.45506e-05
-1.45478e-05
-1.45451e-05
-1.45423e-05
-1.45396e-05
-1.45369e-05
-1.45342e-05
-1.45315e-05
-1.45288e-05
-1.45261e-05
-1.45234e-05
-1.45207e-05
-1.4518e-05
-1.45153e-05
-1.45127e-05
-1.451e-05
-1.45073e-05
-1.45046e-05
-1.4502e-05
-1.44993e-05
-1.44966e-05
-1.44939e-05
-1.44912e-05
-1.44885e-05
-1.44858e-05
-1.44831e-05
-1.44804e-05
-1.44777e-05
-1.4475e-05
-1.44723e-05
-1.44696e-05
-1.44669e-05
-1.44641e-05
-1.44614e-05
-1.44587e-05
-1.44559e-05
-1.44532e-05
-1.44504e-05
-1.44477e-05
-1.44449e-05
-1.44422e-05
-1.44394e-05
-1.44366e-05
-1.44338e-05
-1.44311e-05
-1.44283e-05
-1.44255e-05
-1.44227e-05
-1.44199e-05
-1.44171e-05
-1.44143e-05
-1.44115e-05
-1.44087e-05
-1.44058e-05
-1.4403e-05
-1.44001e-05
-1.43973e-05
-1.43945e-05
-1.43916e-05
-1.43888e-05
-1.43859e-05
-1.43831e-05
-1.43802e-05
-1.43774e-05
-1.43746e-05
-1.43718e-05
-1.4369e-05
-1.43663e-05
-1.43636e-05
-1.43609e-05
-1.43583e-05
-1.43558e-05
-1.43534e-05
-1.43511e-05
-1.43489e-05
-1.43468e-05
-1.4345e-05
-1.43434e-05
-1.43421e-05
-1.43409e-05
-1.43406e-05
-1.43399e-05
-1.43415e-05
-1.43408e-05
-1.43447e-05
-1.43463e-05
-1.43449e-05
-1.43685e-05
-1.43303e-05
-1.4417e-05
-1.4349e-05
-1.44642e-05
-1.55474e-05
-1.56714e-05
-1.61852e-05
-1.62267e-05
-1.60268e-05
-1.60983e-05
-1.59312e-05
-1.58185e-05
-1.57577e-05
-1.56441e-05
-1.55794e-05
-1.5551e-05
-1.55076e-05
-1.54645e-05
-1.54249e-05
-1.53843e-05
-1.53476e-05
-1.53118e-05
-1.52731e-05
-1.52337e-05
-1.51949e-05
-1.51551e-05
-1.51139e-05
-1.50719e-05
-1.5029e-05
-1.49855e-05
-1.49413e-05
-1.48967e-05
-1.48519e-05
-1.48071e-05
-1.47628e-05
-1.47193e-05
-1.4677e-05
-1.46361e-05
-1.45969e-05
-1.45597e-05
-1.45246e-05
-1.44916e-05
-1.44607e-05
-1.44321e-05
-1.44055e-05
-1.43811e-05
-1.43587e-05
-1.43381e-05
-1.43192e-05
-1.43019e-05
-1.42861e-05
-1.42717e-05
-1.42586e-05
-1.42465e-05
-1.42355e-05
-1.42254e-05
-1.4216e-05
-1.42074e-05
-1.41995e-05
-1.41922e-05
-1.41854e-05
-1.4179e-05
-1.41731e-05
-1.41676e-05
-1.41624e-05
-1.41575e-05
-1.41529e-05
-1.41485e-05
-1.41443e-05
-1.41403e-05
-1.41366e-05
-1.4133e-05
-1.41295e-05
-1.41262e-05
-1.4123e-05
-1.41199e-05
-1.41169e-05
-1.4114e-05
-1.41111e-05
-1.41084e-05
-1.41057e-05
-1.41031e-05
-1.41005e-05
-1.4098e-05
-1.40955e-05
-1.40931e-05
-1.40907e-05
-1.40883e-05
-1.4086e-05
-1.40837e-05
-1.40814e-05
-1.40791e-05
-1.40768e-05
-1.40746e-05
-1.40724e-05
-1.40702e-05
-1.4068e-05
-1.40658e-05
-1.40636e-05
-1.40615e-05
-1.40593e-05
-1.40571e-05
-1.4055e-05
-1.40528e-05
-1.40507e-05
-1.40485e-05
-1.40464e-05
-1.40442e-05
-1.4042e-05
-1.40398e-05
-1.40377e-05
-1.40355e-05
-1.40333e-05
-1.40311e-05
-1.4029e-05
-1.40268e-05
-1.40246e-05
-1.40224e-05
-1.40202e-05
-1.40179e-05
-1.40157e-05
-1.40135e-05
-1.40113e-05
-1.4009e-05
-1.40068e-05
-1.40045e-05
-1.40023e-05
-1.4e-05
-1.39978e-05
-1.39955e-05
-1.39932e-05
-1.39909e-05
-1.39886e-05
-1.39863e-05
-1.3984e-05
-1.39817e-05
-1.39794e-05
-1.39771e-05
-1.39747e-05
-1.39724e-05
-1.39701e-05
-1.39678e-05
-1.39654e-05
-1.39631e-05
-1.39607e-05
-1.39584e-05
-1.39561e-05
-1.39537e-05
-1.39514e-05
-1.39491e-05
-1.39468e-05
-1.39445e-05
-1.39422e-05
-1.39399e-05
-1.39376e-05
-1.39354e-05
-1.39332e-05
-1.3931e-05
-1.39288e-05
-1.39266e-05
-1.39245e-05
-1.39224e-05
-1.39204e-05
-1.39184e-05
-1.39165e-05
-1.39147e-05
-1.3913e-05
-1.39115e-05
-1.39101e-05
-1.3909e-05
-1.39082e-05
-1.39077e-05
-1.39075e-05
-1.3908e-05
-1.39085e-05
-1.39107e-05
-1.3912e-05
-1.39155e-05
-1.39211e-05
-1.39178e-05
-1.39456e-05
-1.39116e-05
-1.39879e-05
-1.39458e-05
-1.40238e-05
-1.75754e-05
-1.59391e-05
-1.67408e-05
-1.64225e-05
-1.61402e-05
-1.59218e-05
-1.59628e-05
-1.59943e-05
-1.58932e-05
-1.58384e-05
-1.58076e-05
-1.57539e-05
-1.57058e-05
-1.56605e-05
-1.56132e-05
-1.55716e-05
-1.55302e-05
-1.54849e-05
-1.54392e-05
-1.53942e-05
-1.53483e-05
-1.53006e-05
-1.52518e-05
-1.52021e-05
-1.5152e-05
-1.5101e-05
-1.50494e-05
-1.49976e-05
-1.49463e-05
-1.48957e-05
-1.4846e-05
-1.47978e-05
-1.47513e-05
-1.47069e-05
-1.46647e-05
-1.46248e-05
-1.45873e-05
-1.45521e-05
-1.45197e-05
-1.44896e-05
-1.44617e-05
-1.44362e-05
-1.44127e-05
-1.43912e-05
-1.43715e-05
-1.43534e-05
-1.43368e-05
-1.43216e-05
-1.43076e-05
-1.42948e-05
-1.4283e-05
-1.4272e-05
-1.42619e-05
-1.42525e-05
-1.42437e-05
-1.42354e-05
-1.42277e-05
-1.42204e-05
-1.42136e-05
-1.42071e-05
-1.4201e-05
-1.41952e-05
-1.41896e-05
-1.41843e-05
-1.41792e-05
-1.41743e-05
-1.41696e-05
-1.41651e-05
-1.41607e-05
-1.41565e-05
-1.41524e-05
-1.41483e-05
-1.41444e-05
-1.41406e-05
-1.41369e-05
-1.41333e-05
-1.41297e-05
-1.41262e-05
-1.41228e-05
-1.41194e-05
-1.4116e-05
-1.41127e-05
-1.41094e-05
-1.41062e-05
-1.4103e-05
-1.40998e-05
-1.40967e-05
-1.40935e-05
-1.40904e-05
-1.40874e-05
-1.40843e-05
-1.40812e-05
-1.40782e-05
-1.40752e-05
-1.40722e-05
-1.40691e-05
-1.40661e-05
-1.40632e-05
-1.40602e-05
-1.40571e-05
-1.40541e-05
-1.40511e-05
-1.40481e-05
-1.40452e-05
-1.40422e-05
-1.40392e-05
-1.40362e-05
-1.40333e-05
-1.40303e-05
-1.40272e-05
-1.40242e-05
-1.40212e-05
-1.40183e-05
-1.40153e-05
-1.40123e-05
-1.40093e-05
-1.40062e-05
-1.40032e-05
-1.40002e-05
-1.39971e-05
-1.39941e-05
-1.39911e-05
-1.3988e-05
-1.3985e-05
-1.39819e-05
-1.39788e-05
-1.39758e-05
-1.39727e-05
-1.39696e-05
-1.39665e-05
-1.39634e-05
-1.39603e-05
-1.39572e-05
-1.39541e-05
-1.3951e-05
-1.39479e-05
-1.39448e-05
-1.39416e-05
-1.39385e-05
-1.39354e-05
-1.39323e-05
-1.39291e-05
-1.3926e-05
-1.39229e-05
-1.39197e-05
-1.39166e-05
-1.39135e-05
-1.39103e-05
-1.39072e-05
-1.39041e-05
-1.39011e-05
-1.3898e-05
-1.3895e-05
-1.3892e-05
-1.3889e-05
-1.3886e-05
-1.38832e-05
-1.38804e-05
-1.38776e-05
-1.3875e-05
-1.38725e-05
-1.38702e-05
-1.3868e-05
-1.3866e-05
-1.38643e-05
-1.38628e-05
-1.38618e-05
-1.38612e-05
-1.38612e-05
-1.38616e-05
-1.38632e-05
-1.3865e-05
-1.38676e-05
-1.38743e-05
-1.38711e-05
-1.38966e-05
-1.38714e-05
-1.39316e-05
-1.39068e-05
-1.39646e-05
-1.45189e-05
-1.68512e-05
-1.59309e-05
-1.66282e-05
-1.66239e-05
-1.60416e-05
-1.59313e-05
-1.58823e-05
-1.57283e-05
-1.56806e-05
-1.56528e-05
-1.55939e-05
-1.55474e-05
-1.54998e-05
-1.5448e-05
-1.54045e-05
-1.53604e-05
-1.53105e-05
-1.52607e-05
-1.52118e-05
-1.51612e-05
-1.51092e-05
-1.50565e-05
-1.50027e-05
-1.49485e-05
-1.48933e-05
-1.48377e-05
-1.4782e-05
-1.47262e-05
-1.46716e-05
-1.46184e-05
-1.45665e-05
-1.45164e-05
-1.44688e-05
-1.4424e-05
-1.43817e-05
-1.43419e-05
-1.4305e-05
-1.42709e-05
-1.42393e-05
-1.42103e-05
-1.41836e-05
-1.4159e-05
-1.41364e-05
-1.41157e-05
-1.40966e-05
-1.40793e-05
-1.40633e-05
-1.40486e-05
-1.4035e-05
-1.40226e-05
-1.4011e-05
-1.40003e-05
-1.39904e-05
-1.39812e-05
-1.39726e-05
-1.39646e-05
-1.39571e-05
-1.395e-05
-1.39433e-05
-1.3937e-05
-1.3931e-05
-1.39253e-05
-1.39198e-05
-1.39146e-05
-1.39097e-05
-1.39049e-05
-1.39004e-05
-1.3896e-05
-1.38917e-05
-1.38876e-05
-1.38836e-05
-1.38797e-05
-1.38759e-05
-1.38723e-05
-1.38687e-05
-1.38651e-05
-1.38617e-05
-1.38583e-05
-1.38549e-05
-1.38517e-05
-1.38484e-05
-1.38452e-05
-1.38421e-05
-1.38389e-05
-1.38358e-05
-1.38327e-05
-1.38297e-05
-1.38267e-05
-1.38237e-05
-1.38206e-05
-1.38177e-05
-1.38147e-05
-1.38117e-05
-1.38088e-05
-1.38058e-05
-1.38028e-05
-1.37999e-05
-1.37969e-05
-1.3794e-05
-1.37911e-05
-1.37881e-05
-1.37851e-05
-1.37822e-05
-1.37792e-05
-1.37763e-05
-1.37733e-05
-1.37704e-05
-1.37674e-05
-1.37644e-05
-1.37615e-05
-1.37585e-05
-1.37554e-05
-1.37524e-05
-1.37494e-05
-1.37464e-05
-1.37434e-05
-1.37403e-05
-1.37373e-05
-1.37343e-05
-1.37312e-05
-1.37281e-05
-1.37251e-05
-1.3722e-05
-1.3719e-05
-1.37159e-05
-1.37127e-05
-1.37096e-05
-1.37065e-05
-1.37034e-05
-1.37003e-05
-1.36971e-05
-1.3694e-05
-1.36909e-05
-1.36877e-05
-1.36846e-05
-1.36814e-05
-1.36782e-05
-1.36751e-05
-1.36719e-05
-1.36687e-05
-1.36655e-05
-1.36624e-05
-1.36592e-05
-1.3656e-05
-1.36528e-05
-1.36497e-05
-1.36465e-05
-1.36434e-05
-1.36402e-05
-1.36371e-05
-1.3634e-05
-1.36309e-05
-1.36278e-05
-1.36248e-05
-1.36219e-05
-1.3619e-05
-1.36162e-05
-1.36134e-05
-1.36107e-05
-1.36082e-05
-1.36058e-05
-1.36037e-05
-1.36017e-05
-1.36001e-05
-1.35988e-05
-1.35979e-05
-1.35974e-05
-1.35977e-05
-1.35984e-05
-1.36001e-05
-1.36028e-05
-1.36053e-05
-1.36131e-05
-1.36108e-05
-1.36345e-05
-1.36168e-05
-1.36639e-05
-1.36542e-05
-1.36916e-05
-1.5699e-05
-1.71762e-05
-1.55782e-05
-1.62329e-05
-1.61175e-05
-1.61975e-05
-1.61095e-05
-1.58921e-05
-1.58209e-05
-1.57643e-05
-1.56864e-05
-1.56348e-05
-1.55797e-05
-1.552e-05
-1.54723e-05
-1.54223e-05
-1.53657e-05
-1.53112e-05
-1.52576e-05
-1.52017e-05
-1.51431e-05
-1.50838e-05
-1.50237e-05
-1.49628e-05
-1.49007e-05
-1.48377e-05
-1.47745e-05
-1.47118e-05
-1.46497e-05
-1.45891e-05
-1.45314e-05
-1.44758e-05
-1.44228e-05
-1.43732e-05
-1.43268e-05
-1.42833e-05
-1.42428e-05
-1.42054e-05
-1.41706e-05
-1.41387e-05
-1.41092e-05
-1.40819e-05
-1.40569e-05
-1.4034e-05
-1.40128e-05
-1.39934e-05
-1.39755e-05
-1.39592e-05
-1.39441e-05
-1.39302e-05
-1.39173e-05
-1.39053e-05
-1.38941e-05
-1.38838e-05
-1.3874e-05
-1.38648e-05
-1.38563e-05
-1.38483e-05
-1.38407e-05
-1.38336e-05
-1.38267e-05
-1.38202e-05
-1.3814e-05
-1.38081e-05
-1.38024e-05
-1.37969e-05
-1.37916e-05
-1.37866e-05
-1.37816e-05
-1.37768e-05
-1.37722e-05
-1.37676e-05
-1.37632e-05
-1.3759e-05
-1.37548e-05
-1.37507e-05
-1.37467e-05
-1.37427e-05
-1.37388e-05
-1.3735e-05
-1.37312e-05
-1.37274e-05
-1.37237e-05
-1.37201e-05
-1.37165e-05
-1.37129e-05
-1.37093e-05
-1.37058e-05
-1.37023e-05
-1.36987e-05
-1.36953e-05
-1.36918e-05
-1.36884e-05
-1.3685e-05
-1.36816e-05
-1.36782e-05
-1.36748e-05
-1.36714e-05
-1.3668e-05
-1.36646e-05
-1.36612e-05
-1.36578e-05
-1.36545e-05
-1.36511e-05
-1.36477e-05
-1.36443e-05
-1.36409e-05
-1.36375e-05
-1.36341e-05
-1.36308e-05
-1.36274e-05
-1.36241e-05
-1.36207e-05
-1.36173e-05
-1.36139e-05
-1.36104e-05
-1.3607e-05
-1.36036e-05
-1.36002e-05
-1.35968e-05
-1.35933e-05
-1.35899e-05
-1.35864e-05
-1.35829e-05
-1.35795e-05
-1.3576e-05
-1.35726e-05
-1.35691e-05
-1.35656e-05
-1.35621e-05
-1.35586e-05
-1.35551e-05
-1.35515e-05
-1.3548e-05
-1.35445e-05
-1.3541e-05
-1.35374e-05
-1.35339e-05
-1.35304e-05
-1.35269e-05
-1.35233e-05
-1.35198e-05
-1.35163e-05
-1.35128e-05
-1.35093e-05
-1.35057e-05
-1.35022e-05
-1.34987e-05
-1.34953e-05
-1.34918e-05
-1.34884e-05
-1.34851e-05
-1.34817e-05
-1.34784e-05
-1.34751e-05
-1.34719e-05
-1.34688e-05
-1.34658e-05
-1.34629e-05
-1.34601e-05
-1.34576e-05
-1.34552e-05
-1.3453e-05
-1.34512e-05
-1.34498e-05
-1.34488e-05
-1.34483e-05
-1.34485e-05
-1.34495e-05
-1.34513e-05
-1.34544e-05
-1.34573e-05
-1.34653e-05
-1.34649e-05
-1.34858e-05
-1.34752e-05
-1.3512e-05
-1.35101e-05
-1.35364e-05
-1.54423e-05
-1.59818e-05
-1.60641e-05
-1.58164e-05
-1.58891e-05
-1.58121e-05
-1.56976e-05
-1.57197e-05
-1.5672e-05
-1.55947e-05
-1.55529e-05
-1.54944e-05
-1.54324e-05
-1.53851e-05
-1.5331e-05
-1.52696e-05
-1.52109e-05
-1.51536e-05
-1.50935e-05
-1.50312e-05
-1.49662e-05
-1.49008e-05
-1.48345e-05
-1.47673e-05
-1.46995e-05
-1.4631e-05
-1.45638e-05
-1.44984e-05
-1.44343e-05
-1.43727e-05
-1.43141e-05
-1.42582e-05
-1.42051e-05
-1.41553e-05
-1.41086e-05
-1.40652e-05
-1.4025e-05
-1.39877e-05
-1.39538e-05
-1.39227e-05
-1.3894e-05
-1.38679e-05
-1.3844e-05
-1.3822e-05
-1.38019e-05
-1.37834e-05
-1.37664e-05
-1.37508e-05
-1.37364e-05
-1.37229e-05
-1.37105e-05
-1.3699e-05
-1.36882e-05
-1.3678e-05
-1.36685e-05
-1.36596e-05
-1.36512e-05
-1.36432e-05
-1.36358e-05
-1.36286e-05
-1.36217e-05
-1.36151e-05
-1.3609e-05
-1.36031e-05
-1.35973e-05
-1.35918e-05
-1.35866e-05
-1.35814e-05
-1.35764e-05
-1.35715e-05
-1.35668e-05
-1.35622e-05
-1.35578e-05
-1.35534e-05
-1.35491e-05
-1.35448e-05
-1.35406e-05
-1.35365e-05
-1.35326e-05
-1.35286e-05
-1.35248e-05
-1.3521e-05
-1.35171e-05
-1.35133e-05
-1.35095e-05
-1.35059e-05
-1.35022e-05
-1.34985e-05
-1.34948e-05
-1.34913e-05
-1.34877e-05
-1.34841e-05
-1.34805e-05
-1.34769e-05
-1.34733e-05
-1.34698e-05
-1.34663e-05
-1.34627e-05
-1.34591e-05
-1.34555e-05
-1.34519e-05
-1.34484e-05
-1.34448e-05
-1.34413e-05
-1.34378e-05
-1.34342e-05
-1.34306e-05
-1.3427e-05
-1.34234e-05
-1.34198e-05
-1.34162e-05
-1.34126e-05
-1.3409e-05
-1.34055e-05
-1.34018e-05
-1.33982e-05
-1.33946e-05
-1.33909e-05
-1.33873e-05
-1.33836e-05
-1.338e-05
-1.33763e-05
-1.33725e-05
-1.33688e-05
-1.33651e-05
-1.33614e-05
-1.33577e-05
-1.33539e-05
-1.33502e-05
-1.33465e-05
-1.33428e-05
-1.3339e-05
-1.33353e-05
-1.33315e-05
-1.33277e-05
-1.3324e-05
-1.33202e-05
-1.33164e-05
-1.33126e-05
-1.33088e-05
-1.3305e-05
-1.33012e-05
-1.32974e-05
-1.32937e-05
-1.329e-05
-1.32862e-05
-1.32825e-05
-1.32788e-05
-1.32751e-05
-1.32714e-05
-1.32677e-05
-1.32641e-05
-1.32605e-05
-1.3257e-05
-1.32536e-05
-1.32502e-05
-1.32469e-05
-1.32438e-05
-1.32409e-05
-1.32381e-05
-1.32356e-05
-1.32333e-05
-1.32314e-05
-1.32298e-05
-1.32287e-05
-1.32282e-05
-1.32284e-05
-1.32293e-05
-1.32312e-05
-1.32346e-05
-1.32378e-05
-1.32459e-05
-1.32471e-05
-1.32653e-05
-1.32601e-05
-1.32882e-05
-1.32912e-05
-1.33089e-05
-1.79334e-05
-1.5943e-05
-1.63896e-05
-1.67453e-05
-1.6241e-05
-1.58648e-05
-1.5827e-05
-1.5738e-05
-1.56468e-05
-1.56028e-05
-1.55288e-05
-1.54567e-05
-1.54072e-05
-1.5347e-05
-1.5278e-05
-1.52143e-05
-1.51515e-05
-1.50847e-05
-1.50166e-05
-1.49453e-05
-1.48728e-05
-1.48004e-05
-1.47258e-05
-1.46521e-05
-1.45786e-05
-1.45052e-05
-1.44331e-05
-1.43634e-05
-1.42956e-05
-1.42304e-05
-1.41691e-05
-1.4111e-05
-1.40562e-05
-1.4006e-05
-1.39599e-05
-1.39176e-05
-1.38784e-05
-1.38424e-05
-1.38095e-05
-1.37791e-05
-1.37513e-05
-1.37253e-05
-1.37014e-05
-1.36795e-05
-1.36593e-05
-1.36405e-05
-1.36232e-05
-1.36072e-05
-1.35922e-05
-1.35783e-05
-1.35655e-05
-1.35537e-05
-1.35424e-05
-1.35318e-05
-1.35219e-05
-1.35125e-05
-1.35036e-05
-1.34953e-05
-1.34875e-05
-1.34799e-05
-1.34726e-05
-1.34655e-05
-1.3459e-05
-1.34527e-05
-1.34466e-05
-1.34407e-05
-1.34351e-05
-1.34297e-05
-1.34242e-05
-1.3419e-05
-1.34139e-05
-1.34091e-05
-1.34043e-05
-1.33997e-05
-1.33951e-05
-1.33906e-05
-1.33861e-05
-1.33816e-05
-1.33772e-05
-1.3373e-05
-1.33688e-05
-1.33647e-05
-1.33605e-05
-1.33564e-05
-1.33523e-05
-1.33484e-05
-1.33444e-05
-1.33403e-05
-1.33364e-05
-1.33325e-05
-1.33285e-05
-1.33246e-05
-1.33207e-05
-1.33168e-05
-1.33129e-05
-1.3309e-05
-1.33052e-05
-1.33013e-05
-1.32975e-05
-1.32936e-05
-1.32898e-05
-1.32859e-05
-1.32821e-05
-1.32782e-05
-1.32743e-05
-1.32704e-05
-1.32665e-05
-1.32627e-05
-1.32588e-05
-1.32548e-05
-1.32509e-05
-1.32469e-05
-1.3243e-05
-1.3239e-05
-1.32351e-05
-1.32311e-05
-1.32272e-05
-1.32232e-05
-1.32192e-05
-1.32153e-05
-1.32114e-05
-1.32074e-05
-1.32034e-05
-1.31994e-05
-1.31954e-05
-1.31913e-05
-1.31873e-05
-1.31831e-05
-1.31791e-05
-1.31751e-05
-1.3171e-05
-1.31669e-05
-1.31629e-05
-1.31588e-05
-1.31547e-05
-1.31507e-05
-1.31467e-05
-1.31426e-05
-1.31385e-05
-1.31345e-05
-1.31304e-05
-1.31262e-05
-1.31221e-05
-1.31181e-05
-1.3114e-05
-1.311e-05
-1.3106e-05
-1.3102e-05
-1.30981e-05
-1.30941e-05
-1.30902e-05
-1.30864e-05
-1.30827e-05
-1.3079e-05
-1.30754e-05
-1.30719e-05
-1.30685e-05
-1.30652e-05
-1.30621e-05
-1.30594e-05
-1.30569e-05
-1.30549e-05
-1.30532e-05
-1.30521e-05
-1.30515e-05
-1.30518e-05
-1.30529e-05
-1.30549e-05
-1.30584e-05
-1.30621e-05
-1.30701e-05
-1.30733e-05
-1.30893e-05
-1.30885e-05
-1.31106e-05
-1.31156e-05
-1.31275e-05
-1.44842e-05
-1.66641e-05
-1.49636e-05
-1.59907e-05
-1.60734e-05
-1.585e-05
-1.57832e-05
-1.5645e-05
-1.5568e-05
-1.55505e-05
-1.54781e-05
-1.54066e-05
-1.53618e-05
-1.52967e-05
-1.5219e-05
-1.51522e-05
-1.50846e-05
-1.50123e-05
-1.4938e-05
-1.4862e-05
-1.47859e-05
-1.47083e-05
-1.46296e-05
-1.45513e-05
-1.44719e-05
-1.43935e-05
-1.43152e-05
-1.4239e-05
-1.41658e-05
-1.40959e-05
-1.40305e-05
-1.39694e-05
-1.39122e-05
-1.38595e-05
-1.38109e-05
-1.37659e-05
-1.37245e-05
-1.36861e-05
-1.36504e-05
-1.36178e-05
-1.35881e-05
-1.35609e-05
-1.35358e-05
-1.35123e-05
-1.34911e-05
-1.34716e-05
-1.34533e-05
-1.34368e-05
-1.34216e-05
-1.34072e-05
-1.33937e-05
-1.33814e-05
-1.33698e-05
-1.33588e-05
-1.33485e-05
-1.33389e-05
-1.33299e-05
-1.33212e-05
-1.3313e-05
-1.33054e-05
-1.32981e-05
-1.32908e-05
-1.32838e-05
-1.32773e-05
-1.3271e-05
-1.32648e-05
-1.32588e-05
-1.32532e-05
-1.32478e-05
-1.32422e-05
-1.3237e-05
-1.32319e-05
-1.32268e-05
-1.32219e-05
-1.32172e-05
-1.32125e-05
-1.3208e-05
-1.32033e-05
-1.31987e-05
-1.31942e-05
-1.31897e-05
-1.31854e-05
-1.3181e-05
-1.31767e-05
-1.31723e-05
-1.3168e-05
-1.31638e-05
-1.31595e-05
-1.31552e-05
-1.31511e-05
-1.3147e-05
-1.31428e-05
-1.31387e-05
-1.31346e-05
-1.31304e-05
-1.31263e-05
-1.31221e-05
-1.31179e-05
-1.31137e-05
-1.31095e-05
-1.31054e-05
-1.31013e-05
-1.30972e-05
-1.3093e-05
-1.30889e-05
-1.30847e-05
-1.30805e-05
-1.30763e-05
-1.30723e-05
-1.30681e-05
-1.3064e-05
-1.30598e-05
-1.30556e-05
-1.30514e-05
-1.30472e-05
-1.30429e-05
-1.30387e-05
-1.30346e-05
-1.30304e-05
-1.30261e-05
-1.30218e-05
-1.30176e-05
-1.30133e-05
-1.30091e-05
-1.30049e-05
-1.30006e-05
-1.29964e-05
-1.2992e-05
-1.29877e-05
-1.29834e-05
-1.2979e-05
-1.29747e-05
-1.29704e-05
-1.2966e-05
-1.29617e-05
-1.29573e-05
-1.2953e-05
-1.29486e-05
-1.29442e-05
-1.29399e-05
-1.29357e-05
-1.29314e-05
-1.2927e-05
-1.29227e-05
-1.29183e-05
-1.2914e-05
-1.29097e-05
-1.29055e-05
-1.29013e-05
-1.28971e-05
-1.28929e-05
-1.28888e-05
-1.28847e-05
-1.28807e-05
-1.28768e-05
-1.28732e-05
-1.28696e-05
-1.28663e-05
-1.2863e-05
-1.286e-05
-1.28573e-05
-1.2855e-05
-1.28531e-05
-1.28519e-05
-1.28513e-05
-1.28514e-05
-1.28525e-05
-1.28548e-05
-1.28583e-05
-1.28626e-05
-1.28702e-05
-1.28752e-05
-1.28894e-05
-1.2892e-05
-1.29098e-05
-1.29151e-05
-1.29227e-05
-1.58033e-05
-1.58253e-05
-1.60683e-05
-1.61003e-05
-1.59681e-05
-1.59824e-05
-1.57779e-05
-1.56537e-05
-1.55962e-05
-1.54807e-05
-1.53984e-05
-1.53535e-05
-1.52789e-05
-1.51944e-05
-1.51236e-05
-1.50511e-05
-1.49731e-05
-1.48939e-05
-1.48137e-05
-1.47326e-05
-1.46486e-05
-1.45654e-05
-1.44793e-05
-1.43925e-05
-1.43073e-05
-1.42229e-05
-1.41405e-05
-1.40618e-05
-1.39881e-05
-1.39185e-05
-1.38532e-05
-1.37928e-05
-1.37369e-05
-1.36852e-05
-1.36363e-05
-1.3592e-05
-1.35509e-05
-1.35129e-05
-1.3479e-05
-1.34469e-05
-1.34184e-05
-1.33924e-05
-1.33681e-05
-1.3346e-05
-1.33257e-05
-1.33064e-05
-1.32886e-05
-1.32725e-05
-1.32572e-05
-1.32431e-05
-1.32297e-05
-1.32173e-05
-1.32057e-05
-1.31949e-05
-1.31845e-05
-1.31747e-05
-1.31652e-05
-1.31561e-05
-1.31476e-05
-1.31398e-05
-1.31322e-05
-1.31248e-05
-1.31178e-05
-1.3111e-05
-1.31042e-05
-1.30976e-05
-1.30914e-05
-1.30855e-05
-1.30797e-05
-1.30741e-05
-1.30684e-05
-1.30629e-05
-1.30574e-05
-1.30519e-05
-1.30467e-05
-1.30418e-05
-1.30369e-05
-1.3032e-05
-1.30272e-05
-1.30222e-05
-1.30173e-05
-1.30126e-05
-1.3008e-05
-1.30035e-05
-1.29987e-05
-1.29941e-05
-1.29897e-05
-1.29851e-05
-1.29803e-05