/*--------------------------------*- C++ -*----------------------------------*\
| =========                 |                                                 |
| \\      /  F ield         | OpenFOAM: The Open Source CFD Toolbox           |
|  \\    /   O peration     | Version:  2512                                  |
|   \\  /    A nd           | Website:  www.openfoam.com                      |
|    \\/     M anipulation  |                                                 |
\*---------------------------------------------------------------------------*/
FoamFile
{
    version     2.0;
    format      ascii;
    arch        "LSB;label=32;scalar=64";
    class       volScalarField;
    location    "0.1";
    object      Uz;
}
// * * * * * * * * * * * * * * * * * * * * * * * * * * * * * * * * * * * * * //

dimensions      [0 1 -1 0 0 0 0];

internalField   nonuniform List<scalar> 
8333
(
5.88336e-20
5.6678e-20
5.64989e-20
5.68904e-20
5.74785e-20
5.7884e-20
5.82164e-20
5.85301e-20
5.89345e-20
5.91986e-20
5.96008e-20
6.00246e-20
6.01536e-20
6.12834e-20
5.71575e-20
7.50344e-20
1.00743e-20
2.25946e-19
-4.0368e-19
1.20786e-18
-2.41341e-18
5.21826e-18
-1.34623e-17
-6.44747e-18
-3.57588e-18
-1.85026e-18
-8.18849e-19
-2.91087e-19
-6.24879e-20
2.28278e-20
5.07207e-20
5.87863e-20
6.10769e-20
6.1448e-20
6.13141e-20
6.12423e-20
6.12525e-20
6.1149e-20
6.09912e-20
6.09761e-20
6.118e-20
6.11201e-20
6.09963e-20
6.09127e-20
6.08233e-20
6.06449e-20
6.04011e-20
6.01316e-20
5.99438e-20
6.02661e-20
5.96199e-20
6.06157e-20
5.88591e-20
6.03892e-20
5.91242e-20
5.63163e-20
5.47031e-20
5.52063e-20
5.68114e-20
5.84503e-20
5.94325e-20
5.99751e-20
6.04168e-20
6.05527e-20
6.06152e-20
6.07489e-20
6.09491e-20
6.11164e-20
6.12489e-20
6.13052e-20
6.13105e-20
6.12638e-20
6.12838e-20
6.11391e-20
6.1076e-20
6.10078e-20
6.0723e-20
6.04663e-20
6.02999e-20
5.99407e-20
5.99138e-20
5.93363e-20
6.04155e-20
5.86901e-20
6.00474e-20
5.86041e-20
5.53948e-20
5.35094e-20
5.38817e-20
5.55044e-20
5.71214e-20
5.84453e-20
5.89455e-20
5.91086e-20
5.92122e-20
5.9404e-20
5.96562e-20
5.99598e-20
6.02348e-20
6.046e-20
6.05033e-20
6.06713e-20
6.08906e-20
6.09038e-20
6.07514e-20
6.07454e-20
6.06698e-20
6.07914e-20
6.10058e-20
6.1106e-20
6.11892e-20
6.1164e-20
6.11593e-20
6.11964e-20
6.10979e-20
6.09443e-20
6.08977e-20
6.09561e-20
6.1016e-20
6.09907e-20
6.10092e-20
6.09385e-20
6.1044e-20
6.12273e-20
6.02103e-20
6.32106e-20
5.26455e-20
8.5416e-20
1.53282e-21
1.77584e-19
-9.40267e-20
1.63473e-19
1.31501e-19
-5.90906e-20
-1.51426e-19
-1.1771e-19
-4.35498e-20
1.36404e-20
4.3727e-20
5.59994e-20
6.00561e-20
6.0946e-20
6.1162e-20
6.10348e-20
6.09818e-20
6.10441e-20
6.10568e-20
6.10984e-20
6.12353e-20
6.13015e-20
6.12504e-20
6.14216e-20
6.14993e-20
6.16515e-20
6.17555e-20
6.16742e-20
6.1606e-20
6.16087e-20
6.16068e-20
6.16206e-20
6.15477e-20
6.14522e-20
6.13924e-20
6.13954e-20
6.13805e-20
6.14764e-20
6.1654e-20
6.1826e-20
6.19278e-20
6.20115e-20
6.19985e-20
6.19204e-20
6.18048e-20
6.18226e-20
6.18527e-20
6.1924e-20
6.18821e-20
6.18288e-20
6.17732e-20
6.17756e-20
6.17608e-20
6.16349e-20
6.18831e-20
6.20729e-20
6.20164e-20
9.36948e-20
9.04156e-20
9.01937e-20
9.11441e-20
9.18316e-20
9.23593e-20
9.2816e-20
9.35915e-20
9.38533e-20
9.43951e-20
9.54098e-20
9.45935e-20
1.01886e-19
7.31854e-20
1.81755e-19
-1.79898e-19
8.87443e-19
-1.8379e-18
4.07876e-18
-6.63215e-18
9.51732e-18
-1.16678e-17
-1.07786e-17
-8.77069e-18
-5.84575e-18
-3.17117e-18
-1.40832e-18
-4.96768e-19
-1.07081e-19
3.52963e-20
8.0435e-20
9.39e-20
9.72511e-20
9.74699e-20
9.73475e-20
9.75242e-20
9.74579e-20
9.70733e-20
9.67822e-20
9.73998e-20
9.73768e-20
9.7048e-20
9.69557e-20
9.68782e-20
9.65688e-20
9.61975e-20
9.57525e-20
9.49055e-20
9.65826e-20
9.37634e-20
9.80818e-20
9.26916e-20
9.55657e-20
9.68465e-20
9.24443e-20
8.7176e-20
8.58792e-20
8.80275e-20
9.13362e-20
9.35802e-20
9.47994e-20
9.58652e-20
9.62395e-20
9.62936e-20
9.64848e-20
9.68127e-20
9.70646e-20
9.72823e-20
9.73334e-20
9.73576e-20
9.72379e-20
9.75e-20
9.72262e-20
9.71211e-20
9.71945e-20
9.6741e-20
9.62324e-20
9.61333e-20
9.513e-20
9.5881e-20
9.3107e-20
9.76298e-20
9.24575e-20
9.51881e-20
9.64155e-20
9.13004e-20
8.54084e-20
8.37883e-20
8.61169e-20
8.91161e-20
9.22622e-20
9.35963e-20
9.40089e-20
9.41992e-20
9.43757e-20
9.45746e-20
9.51258e-20
9.5642e-20
9.61911e-20
9.62166e-20
9.63921e-20
9.68368e-20
9.6963e-20
9.66213e-20
9.65687e-20
9.62658e-20
9.64098e-20
9.68798e-20
9.69911e-20
9.72273e-20
9.71838e-20
9.71634e-20
9.73182e-20
9.72669e-20
9.70111e-20
9.67788e-20
9.67992e-20
9.69785e-20
9.69451e-20
9.70766e-20
9.67869e-20
9.67083e-20
9.85699e-20
9.17507e-20
1.14926e-19
3.88821e-20
2.52861e-19
-2.49177e-19
6.93915e-19
-5.9908e-19
4.44405e-19
4.37231e-19
-2.91167e-19
-7.95136e-19
-7.63973e-19
-4.67303e-19
-1.88146e-19
-2.06018e-20
5.62517e-20
8.53196e-20
9.40578e-20
9.66346e-20
9.69114e-20
9.67966e-20
9.69551e-20
9.69739e-20
9.70159e-20
9.7288e-20
9.74969e-20
9.72696e-20
9.76153e-20
9.7697e-20
9.79345e-20
9.82539e-20
9.81563e-20
9.7973e-20
9.79342e-20
9.78635e-20
9.80479e-20
9.7828e-20
9.76413e-20
9.75349e-20
9.76335e-20
9.74867e-20
9.75339e-20
9.78182e-20
9.82688e-20
9.84252e-20
9.86472e-20
9.86799e-20
9.86223e-20
9.83241e-20
9.82567e-20
9.82362e-20
9.8334e-20
9.82919e-20
9.82672e-20
9.81477e-20
9.8118e-20
9.82048e-20
9.77524e-20
9.81967e-20
9.87107e-20
9.85038e-20
1.1987e-19
1.18299e-19
1.19745e-19
1.2052e-19
1.21025e-19
1.21283e-19
1.22745e-19
1.22436e-19
1.22871e-19
1.24595e-19
1.2256e-19
1.3714e-19
8.34121e-20
2.66841e-19
-2.86148e-19
1.17551e-18
-2.12899e-18
4.09674e-18
-5.4084e-18
6.36516e-18
-7.07894e-18
-6.89172e-18
-6.89593e-18
-5.53093e-18
-3.48248e-18
-1.75221e-18
-6.97212e-19
-1.84986e-19
2.3425e-20
9.49929e-20
1.1911e-19
1.26227e-19
1.26643e-19
1.26269e-19
1.27003e-19
1.2727e-19
1.26539e-19
1.25265e-19
1.27146e-19
1.27351e-19
1.26469e-19
1.26496e-19
1.2661e-19
1.26031e-19
1.25575e-19
1.25352e-19
1.21849e-19
1.2928e-19
1.17599e-19
1.34442e-19
1.17909e-19
1.22044e-19
1.31537e-19
1.26273e-19
1.13044e-19
1.06665e-19
1.0879e-19
1.15187e-19
1.19844e-19
1.2223e-19
1.24678e-19
1.25554e-19
1.25446e-19
1.25696e-19
1.26206e-19
1.26458e-19
1.26736e-19
1.26539e-19
1.26546e-19
1.26044e-19
1.27187e-19
1.26562e-19
1.26323e-19
1.26923e-19
1.26238e-19
1.2519e-19
1.25968e-19
1.22705e-19
1.27748e-19
1.16239e-19
1.33516e-19
1.17609e-19
1.21668e-19
1.31841e-19
1.25376e-19
1.10922e-19
1.03851e-19
1.07105e-19
1.12085e-19
1.19161e-19
1.22114e-19
1.22965e-19
1.2341e-19
1.23465e-19
1.23077e-19
1.24057e-19
1.24856e-19
1.26073e-19
1.25881e-19
1.25798e-19
1.26537e-19
1.26832e-19
1.25982e-19
1.25924e-19
1.24929e-19
1.24994e-19
1.26066e-19
1.25875e-19
1.26486e-19
1.26368e-19
1.26281e-19
1.26688e-19
1.26825e-19
1.26517e-19
1.25855e-19
1.25674e-19
1.26211e-19
1.26083e-19
1.26794e-19
1.2586e-19
1.24976e-19
1.3181e-19
1.09177e-19
1.85282e-19
-5.45601e-20
5.9388e-19
-8.80276e-19
1.83763e-18
-1.97524e-18
1.64135e-18
1.37112e-19
-1.55514e-18
-2.5039e-18
-2.27549e-18
-1.4598e-18
-6.9956e-19
-2.29172e-19
-4.31344e-21
8.5459e-20
1.14397e-19
1.23826e-19
1.25628e-19
1.25496e-19
1.26033e-19
1.26096e-19
1.26129e-19
1.26636e-19
1.27231e-19
1.26342e-19
1.27191e-19
1.27156e-19
1.27418e-19
1.2821e-19
1.28101e-19
1.27624e-19
1.27478e-19
1.27032e-19
1.27878e-19
1.27203e-19
1.26849e-19
1.26631e-19
1.2716e-19
1.26654e-19
1.26481e-19
1.26815e-19
1.27989e-19
1.28063e-19
1.28556e-19
1.28584e-19
1.28709e-19
1.27998e-19
1.27756e-19
1.27571e-19
1.27674e-19
1.27622e-19
1.27764e-19
1.27501e-19
1.27293e-19
1.2786e-19
1.26417e-19
1.2733e-19
1.28734e-19
1.27829e-19
2.34596e-19
2.39036e-19
2.401e-19
2.40172e-19
2.39175e-19
2.43514e-19
2.40451e-19
2.40479e-19
2.43527e-19
2.43103e-19
2.60915e-19
1.98728e-19
3.90097e-19
-1.35255e-19
1.10866e-18
-1.3324e-18
2.308e-18
-9.2322e-19
-1.96758e-18
8.24868e-18
2.69959e-18
-1.23582e-18
-2.64368e-18
-2.2277e-18
-1.25831e-18
-4.85558e-19
-5.35535e-20
1.40496e-19
2.07271e-19
2.36647e-19
2.47516e-19
2.45702e-19
2.43951e-19
2.46869e-19
2.48548e-19
2.46693e-19
2.41393e-19
2.48379e-19
2.49455e-19
2.4622e-19
2.46699e-19
2.47736e-19
2.46086e-19
2.45154e-19
2.46452e-19
2.31614e-19
2.63945e-19
2.13404e-19
2.86189e-19
2.17672e-19
2.32702e-19
2.73762e-19
2.5933e-19
2.12143e-19
1.87856e-19
1.92531e-19
2.12717e-19
2.275e-19
2.34525e-19
2.42795e-19
2.45556e-19
2.44706e-19
2.45115e-19
2.46422e-19
2.46386e-19
2.46958e-19
2.45842e-19
2.45735e-19
2.43304e-19
2.48115e-19
2.46091e-19
2.45312e-19
2.48211e-19
2.46601e-19
2.42808e-19
2.47498e-19
2.34995e-19
2.58626e-19
2.09305e-19
2.83337e-19
2.17541e-19
2.32031e-19
2.76829e-19
2.58875e-19
2.08503e-19
1.82191e-19
1.92279e-19
2.06607e-19
2.30232e-19
2.39469e-19
2.41952e-19
2.43272e-19
2.43131e-19
2.40663e-19
2.43273e-19
2.45238e-19
2.49029e-19
2.47436e-19
2.46191e-19
2.48391e-19
2.4932e-19
2.45799e-19
2.46115e-19
2.42059e-19
2.41423e-19
2.45213e-19
2.4384e-19
2.45856e-19
2.4546e-19
2.45047e-19
2.465e-19
2.47352e-19
2.46347e-19
2.44077e-19
2.43184e-19
2.45465e-19
2.4472e-19
2.48186e-19
2.44204e-19
2.42958e-19
2.57769e-19
2.18285e-19
3.43029e-19
-5.19846e-20
1.01766e-18
-1.44541e-18
3.28001e-18
-4.12562e-18
5.55518e-18
-6.60315e-18
-5.64789e-18
-5.1875e-18
-3.96877e-18
-2.38547e-18
-1.10016e-18
-3.32917e-19
3.01836e-20
1.78225e-19
2.23639e-19
2.41305e-19
2.44044e-19
2.42779e-19
2.44807e-19
2.44987e-19
2.44977e-19
2.464e-19
2.48884e-19
2.44751e-19
2.47876e-19
2.47282e-19
2.47721e-19
2.5034e-19
2.50418e-19
2.48424e-19
2.47721e-19
2.45959e-19
2.49236e-19
2.46916e-19
2.45712e-19
2.45091e-19
2.47125e-19
2.45482e-19
2.44689e-19
2.45415e-19
2.49183e-19
2.48783e-19
2.50413e-19
2.50351e-19
2.51052e-19
2.48247e-19
2.47797e-19
2.46784e-19
2.46993e-19
2.47198e-19
2.48162e-19
2.46978e-19
2.46007e-19
2.48841e-19
2.42996e-19
2.45835e-19
2.50824e-19
2.47236e-19
7.64989e-19
7.82486e-19
7.85293e-19
7.83309e-19
7.75364e-19
7.9212e-19
7.78465e-19
7.7631e-19
7.84025e-19
7.9033e-19
8.2513e-19
7.01349e-19
1.05207e-18
1.08807e-19
2.35783e-18
-2.29957e-18
5.6267e-18
-4.93581e-18
6.04307e-18
-5.00556e-18
-5.0213e-18
-6.24617e-18
-5.85702e-18
-3.97061e-18
-1.90824e-18
-4.81961e-19
2.74349e-19
6.08193e-19
7.09115e-19
7.70789e-19
7.961e-19
7.86081e-19
7.79824e-19
7.90642e-19
7.98042e-19
7.92425e-19
7.72119e-19
7.97511e-19
8.02153e-19
7.90153e-19
7.90641e-19
7.96158e-19
7.92095e-19
7.88498e-19
7.95818e-19
7.37915e-19
8.64759e-19
6.61613e-19
9.65807e-19
6.57888e-19
7.67423e-19
9.07089e-19
8.2359e-19
6.40393e-19
5.62228e-19
5.89904e-19
6.6963e-19
7.2536e-19
7.48694e-19
7.81122e-19
7.9029e-19
7.86661e-19
7.86323e-19
7.91842e-19
7.90208e-19
7.92319e-19
7.8948e-19
7.89468e-19
7.77986e-19
7.95777e-19
7.89564e-19
7.86319e-19
7.99469e-19
7.94293e-19
7.77579e-19
7.97593e-19
7.53271e-19
8.44554e-19
6.48051e-19
9.55568e-19
6.61535e-19
7.6497e-19
9.20087e-19
8.21851e-19
6.30114e-19
5.45155e-19
5.94023e-19
6.51098e-19
7.40912e-19
7.74399e-19
7.82949e-19
7.85264e-19
7.85986e-19
7.79603e-19
7.86117e-19
7.92547e-19
8.06959e-19
7.97426e-19
7.91212e-19
8.01572e-19
8.06783e-19
7.8891e-19
7.93936e-19
7.76951e-19
7.70883e-19
7.86276e-19
7.82201e-19
7.88952e-19
7.87966e-19
7.85035e-19
7.9172e-19
7.9496e-19
7.87837e-19
7.80439e-19
7.78079e-19
7.87839e-19
7.83772e-19
7.98573e-19
7.82595e-19
7.85326e-19
8.14515e-19
7.70054e-19
8.62518e-19
5.59545e-19
1.36475e-18
-4.06385e-19
2.70584e-18
-1.36576e-18
2.13857e-18
9.84334e-19
-7.04631e-19
-1.90437e-18
-1.85133e-18
-1.05466e-18
-2.14242e-19
3.40024e-19
6.11748e-19
7.38442e-19
7.60985e-19
7.8555e-19
7.84688e-19
7.78098e-19
7.86115e-19
7.86553e-19
7.84876e-19
7.89908e-19
8.01788e-19
7.82278e-19
7.95072e-19
7.91615e-19
7.93551e-19
8.03874e-19
8.05219e-19
7.96026e-19
7.93256e-19
7.88471e-19
7.97888e-19
7.93041e-19
7.86826e-19
7.8424e-19
7.89727e-19
7.85573e-19
7.83293e-19
7.87285e-19
7.98426e-19
7.96888e-19
8.02369e-19
8.02589e-19
8.04695e-19
7.91769e-19
7.93305e-19
7.88389e-19
7.90871e-19
7.92322e-19
7.96473e-19
7.90235e-19
7.8667e-19
7.99822e-19
7.74563e-19
7.83909e-19
8.02974e-19
7.9233e-19
2.86559e-18
2.87543e-18
2.86876e-18
2.8263e-18
2.88697e-18
2.84405e-18
2.83826e-18
2.85283e-18
2.88396e-18
2.95013e-18
2.71154e-18
3.27633e-18
1.88576e-18
5.08998e-18
-1.59718e-18
9.93313e-18
-5.55505e-18
1.02266e-17
-3.30008e-18
-5.2597e-18
-7.37052e-18
-6.79546e-18
-4.01599e-18
-1.0055e-18
1.06353e-18
2.14339e-18
2.61887e-18
2.71469e-18
2.84671e-18
2.89303e-18
2.85725e-18
2.83501e-18
2.86919e-18
2.89374e-18
2.87614e-18
2.81464e-18
2.89352e-18
2.91139e-18
2.87857e-18
2.86501e-18
2.88786e-18
2.88791e-18
2.87163e-18
2.89341e-18
2.7055e-18
3.11862e-18
2.43647e-18
3.51329e-18
2.28277e-18
2.99144e-18
3.20637e-18
2.7696e-18
2.19665e-18
2.04394e-18
2.19991e-18
2.49173e-18
2.6757e-18
2.73003e-18
2.84863e-18
2.87145e-18
2.85881e-18
2.84841e-18
2.8751e-18
2.87131e-18
2.87839e-18
2.87715e-18
2.88179e-18
2.83678e-18
2.88679e-18
2.87224e-18
2.85695e-18
2.90974e-18
2.88881e-18
2.82754e-18
2.89909e-18
2.77156e-18
3.05191e-18
2.40225e-18
3.48558e-18
2.31528e-18
2.98226e-18
3.24822e-18
2.75251e-18
2.16337e-18
1.99113e-18
2.21278e-18
2.42603e-18
2.72469e-18
2.83197e-18
2.8552e-18
2.84577e-18
2.85723e-18
2.86252e-18
2.86847e-18
2.88547e-18
2.9384e-18
2.89336e-18
2.86957e-18
2.91346e-18
2.94255e-18
2.85807e-18
2.89583e-18
2.83592e-18
2.80244e-18
2.8546e-18
2.85308e-18
2.87062e-18
2.87045e-18
2.85087e-18
2.88371e-18
2.88809e-18
2.84771e-18
2.83129e-18
2.83252e-18
2.86663e-18
2.84802e-18
2.90011e-18
2.84692e-18
2.87219e-18
2.95027e-18
2.8533e-18
2.91338e-18
2.7027e-18
3.28851e-18
1.99208e-18
4.16743e-18
1.72602e-18
3.17843e-18
3.58429e-18
2.51206e-18
1.35976e-18
1.11748e-18
1.54545e-18
2.11952e-18
2.51858e-18
2.70679e-18
2.84309e-18
2.8039e-18
2.86648e-18
2.85349e-18
2.83441e-18
2.86445e-18
2.86713e-18
2.84763e-18
2.86694e-18
2.91495e-18
2.83574e-18
2.88404e-18
2.8682e-18
2.87832e-18
2.91934e-18
2.91713e-18
2.88541e-18
2.88012e-18
2.87398e-18
2.88408e-18
2.89528e-18
2.86457e-18
2.85009e-18
2.85684e-18
2.85067e-18
2.84563e-18
2.86898e-18
2.89192e-18
2.89607e-18
2.9057e-18
2.90925e-18
2.91152e-18
2.86254e-18
2.87992e-18
2.8621e-18
2.88853e-18
2.88494e-18
2.89465e-18
2.87049e-18
2.85967e-18
2.9118e-18
2.81254e-18
2.84168e-18
2.90987e-18
2.89194e-18
9.32714e-18
9.33271e-18
9.1594e-18
9.32158e-18
9.23834e-18
9.28515e-18
9.27415e-18
9.29157e-18
9.46586e-18
8.99625e-18
9.83949e-18
8.2143e-18
1.16899e-17
4.2952e-18
1.70907e-17
7.76069e-20
1.69363e-17
2.94726e-18
8.34494e-19
-1.63329e-18
-1.37903e-18
1.5585e-18
4.91073e-18
7.33608e-18
8.5427e-18
9.09096e-18
9.03085e-18
9.33442e-18
9.34185e-18
9.27231e-18
9.1875e-18
9.29092e-18
9.32876e-18
9.2722e-18
9.15486e-18
9.34855e-18
9.41941e-18
9.3957e-18
9.26539e-18
9.33535e-18
9.38535e-18
9.33453e-18
9.34085e-18
8.87059e-18
9.91487e-18
8.20046e-18
1.10506e-17
7.23801e-18
1.05782e-17
9.28611e-18
7.90638e-18
6.8951e-18
6.98103e-18
7.55257e-18
8.43801e-18
8.88095e-18
8.88074e-18
9.26391e-18
9.29018e-18
9.24479e-18
9.1798e-18
9.28289e-18
9.32666e-18
9.32344e-18
9.3456e-18
9.37642e-18
9.26586e-18
9.3489e-18
9.30611e-18
9.23247e-18
9.41311e-18
9.32014e-18
9.19509e-18
9.38676e-18
9.12516e-18
9.73877e-18
8.16083e-18
1.10222e-17
7.39833e-18
1.0551e-17
9.3805e-18
7.8395e-18
6.81665e-18
6.8485e-18
7.58584e-18
8.19909e-18
8.9637e-18
9.24391e-18
9.25543e-18
9.15729e-18
9.23805e-18
9.35119e-18
9.33039e-18
9.34648e-18
9.50723e-18
9.34343e-18
9.27417e-18
9.39943e-18
9.52802e-18
9.21782e-18
9.38527e-18
9.23485e-18
9.11183e-18
9.20742e-18
9.28701e-18
9.31074e-18
9.31777e-18
9.2257e-18
9.36117e-18
9.33552e-18
9.18759e-18
9.18087e-18
9.22159e-18
9.3126e-18
9.23899e-18
9.38304e-18
9.24915e-18
9.35822e-18
9.56612e-18
9.21709e-18
9.30608e-18
9.08014e-18
9.83732e-18
8.02852e-18
1.13187e-17
7.33972e-18
1.06776e-17
9.38942e-18
7.67002e-18
6.54233e-18
6.52728e-18
7.39928e-18
8.28477e-18
8.83001e-18
9.02204e-18
9.30601e-18
9.08374e-18
9.33031e-18
9.24107e-18
9.1993e-18
9.2998e-18
9.33742e-18
9.19927e-18
9.27818e-18
9.40492e-18
9.15087e-18
9.31616e-18
9.27432e-18
9.31359e-18
9.45939e-18
9.36378e-18
9.34391e-18
9.32963e-18
9.34629e-18
9.27619e-18
9.43631e-18
9.30998e-18
9.2254e-18
9.23168e-18
9.21759e-18
9.21289e-18
9.30577e-18
9.30446e-18
9.38199e-18
9.3673e-18
9.38431e-18
9.37498e-18
9.25071e-18
9.31574e-18
9.28079e-18
9.46259e-18
9.35827e-18
9.34327e-18
9.29322e-18
9.26403e-18
9.42378e-18
9.09419e-18
9.20959e-18
9.41368e-18
9.42654e-18
2.48351e-17
2.47416e-17
2.4377e-17
2.46459e-17
2.44659e-17
2.50246e-17
2.48825e-17
2.42104e-17
2.51756e-17
2.41928e-17
2.52622e-17
2.39509e-17
2.71613e-17
1.96921e-17
3.20451e-17
1.56354e-17
3.22417e-17
1.83433e-17
1.64342e-17
1.41752e-17
1.42441e-17
1.70392e-17
2.05683e-17
2.30735e-17
2.41259e-17
2.48768e-17
2.43746e-17
2.50817e-17
2.45774e-17
2.47438e-17
2.43602e-17
2.47268e-17
2.45868e-17
2.45009e-17
2.44123e-17
2.47639e-17
2.50096e-17
2.52299e-17
2.47607e-17
2.47051e-17
2.48383e-17
2.50098e-17
2.46718e-17
2.36242e-17
2.56215e-17
2.3266e-17
2.75652e-17
2.01722e-17
2.98638e-17
1.77118e-17
1.87418e-17
1.91674e-17
2.06021e-17
2.17418e-17
2.3686e-17
2.42875e-17
2.3803e-17
2.48907e-17
2.4735e-17
2.44743e-17
2.42789e-17
2.44263e-17
2.49824e-17
2.46459e-17
2.48166e-17
2.48615e-17
2.48291e-17
2.48454e-17
2.46256e-17
2.43337e-17
2.49162e-17
2.45064e-17
2.47979e-17
2.49282e-17
2.47479e-17
2.53377e-17
2.31051e-17
2.76346e-17
2.0541e-17
2.97403e-17
1.77924e-17
1.8774e-17
1.94349e-17
2.0333e-17
2.16297e-17
2.27477e-17
2.43109e-17
2.48465e-17
2.4543e-17
2.41881e-17
2.46204e-17
2.5115e-17
2.49424e-17
2.49236e-17
2.52292e-17
2.48694e-17
2.44801e-17
2.47454e-17
2.52053e-17
2.44106e-17
2.47659e-17
2.46766e-17
2.43441e-17
2.4178e-17
2.48218e-17
2.47249e-17
2.47202e-17
2.46732e-17
2.48113e-17
2.47061e-17
2.46829e-17
2.4599e-17
2.47391e-17
2.50841e-17
2.4652e-17
2.49434e-17
2.48191e-17
2.50865e-17
2.54824e-17
2.43208e-17
2.44933e-17
2.4336e-17
2.53765e-17
2.30444e-17
2.80572e-17
2.0888e-17
2.98851e-17
1.75066e-17
1.85489e-17
1.93314e-17
1.98554e-17
2.187e-17
2.3453e-17
2.41912e-17
2.43482e-17
2.50155e-17
2.42606e-17
2.52365e-17
2.45265e-17
2.41745e-17
2.45994e-17
2.51208e-17
2.44966e-17
2.46848e-17
2.47474e-17
2.40049e-17
2.46937e-17
2.47827e-17
2.48961e-17
2.51711e-17
2.45647e-17
2.50479e-17
2.47563e-17
2.48614e-17
2.44741e-17
2.52425e-17
2.46278e-17
2.45755e-17
2.46826e-17
2.45117e-17
2.47154e-17
2.46263e-17
2.43772e-17
2.47583e-17
2.48579e-17
2.48255e-17
2.49498e-17
2.47195e-17
2.48732e-17
2.48091e-17
2.54828e-17
2.48881e-17
2.46005e-17
2.45575e-17
2.45067e-17
2.4859e-17
2.41175e-17
2.46746e-17
2.49799e-17
2.50442e-17
9.26518e-18
9.09842e-18
9.26677e-18
9.18749e-18
9.23664e-18
9.22614e-18
9.24612e-18
9.41164e-18
8.97027e-18
9.72467e-18
8.35261e-18
1.11996e-17
5.12853e-18
1.56361e-17
1.69792e-18
1.56527e-17
3.12955e-18
2.15048e-18
3.67734e-19
4.95169e-19
2.85058e-18
5.60926e-18
7.63515e-18
8.63333e-18
9.0908e-18
8.9969e-18
9.28902e-18
9.2931e-18
9.22229e-18
9.13838e-18
9.24092e-18
9.27832e-18
9.22197e-18
9.105e-18
9.29858e-18
9.36783e-18
9.34455e-18
9.21495e-18
9.28472e-18
9.33464e-18
9.28341e-18
9.28888e-18
8.82179e-18
9.85719e-18
8.15864e-18
1.09866e-17
7.19682e-18
1.05245e-17
9.2286e-18
7.85495e-18
6.85555e-18
6.94625e-18
7.51478e-18
8.39426e-18
8.83327e-18
8.83083e-18
9.21128e-18
9.23822e-18
9.19277e-18
9.1288e-18
9.2312e-18
9.27401e-18
9.27211e-18
9.29465e-18
9.3244e-18
9.21508e-18
9.29731e-18
9.25459e-18
9.18074e-18
9.36062e-18
9.2684e-18
9.14444e-18
9.3347e-18
9.07567e-18
9.68164e-18
8.11785e-18
1.09571e-17
7.3565e-18
1.04977e-17
9.32307e-18
7.78859e-18
6.77809e-18
6.81436e-18
7.54782e-18
8.15578e-18
8.91547e-18
9.19325e-18
9.20347e-18
9.10566e-18
9.1869e-18
9.29943e-18
9.27852e-18
9.29377e-18
9.45475e-18
9.29178e-18
9.22203e-18
9.34804e-18
9.47626e-18
9.16644e-18
9.3327e-18
9.1832e-18
9.06023e-18
9.15632e-18
9.2365e-18
9.25907e-18
9.2663e-18
9.17383e-18
9.30842e-18
9.28336e-18
9.13663e-18
9.12994e-18
9.17057e-18
9.26073e-18
9.18767e-18
9.33113e-18
9.19706e-18
9.30596e-18
9.51204e-18
9.1686e-18
9.24369e-18
9.0571e-18
9.71751e-18
8.10421e-18
1.10885e-17
7.43027e-18
1.06355e-17
9.20724e-18
7.6018e-18
6.66354e-18
6.71771e-18
7.54104e-18
8.34562e-18
8.83027e-18
8.98982e-18
9.26037e-18
9.03433e-18
9.2791e-18
9.18862e-18
9.14821e-18
9.24791e-18
9.28502e-18
9.14699e-18
9.22599e-18
9.35241e-18
9.09958e-18
9.26376e-18
9.22256e-18
9.26182e-18
9.40754e-18
9.31155e-18
9.29119e-18
9.27838e-18
9.29502e-18
9.22478e-18
9.38419e-18
9.25705e-18
9.17387e-18
9.18085e-18
9.16617e-18
9.16172e-18
9.2535e-18
9.25275e-18
9.32964e-18
9.31564e-18
9.33312e-18
9.3237e-18
9.19917e-18
9.26469e-18
9.22977e-18
9.41077e-18
9.30641e-18
9.29084e-18
9.24147e-18
9.21313e-18
9.37238e-18
9.04288e-18
9.15825e-18
9.36176e-18
9.37663e-18
2.66021e-18
2.72735e-18
2.68757e-18
2.68482e-18
2.6999e-18
2.73611e-18
2.78766e-18
2.58828e-18
3.03054e-18
2.00538e-18
4.26683e-18
-3.2623e-19
7.2419e-18
-1.93082e-18
5.13871e-18
3.30217e-18
5.3606e-20
-2.87915e-18
-3.47584e-18
-2.00174e-18
-2.61928e-20
1.41739e-18
2.18963e-18
2.53466e-18
2.58121e-18
2.69915e-18
2.74019e-18
2.70143e-18
2.68354e-18
2.71536e-18
2.73845e-18
2.72191e-18
2.66198e-18
2.74217e-18
2.75415e-18
2.72351e-18
2.71194e-18
2.73488e-18
2.73566e-18
2.71741e-18
2.73519e-18
2.55755e-18
2.94064e-18
2.31472e-18
3.3175e-18
2.15399e-18
2.8442e-18
3.01945e-18
2.59822e-18
2.07232e-18
1.94365e-18
2.09143e-18
2.36559e-18
2.53563e-18
2.57927e-18
2.68925e-18
2.7149e-18
2.70102e-18
2.6942e-18
2.71908e-18
2.71135e-18
2.724e-18
2.72494e-18
2.72507e-18
2.6846e-18
2.73152e-18
2.71699e-18
2.70014e-18
2.75168e-18
2.73273e-18
2.67518e-18
2.74225e-18
2.62427e-18
2.8753e-18
2.27572e-18
3.28589e-18
2.18607e-18
2.83651e-18
3.06289e-18
2.58334e-18
2.043e-18
1.89267e-18
2.1046e-18
2.30002e-18
2.5839e-18
2.68235e-18
2.69901e-18
2.68915e-18
2.7036e-18
2.70773e-18
2.71261e-18
2.7259e-18
2.78158e-18
2.73795e-18
2.71098e-18
2.75998e-18
2.78853e-18
2.70274e-18
2.73724e-18
2.67982e-18
2.64488e-18
2.70008e-18
2.70247e-18
2.71515e-18
2.71588e-18
2.69351e-18
2.72386e-18
2.73024e-18
2.69334e-18
2.67722e-18
2.67897e-18
2.71027e-18
2.69309e-18
2.74391e-18
2.689e-18
2.71451e-18
2.78741e-18
2.70677e-18
2.72106e-18
2.64276e-18
2.89894e-18
2.28655e-18
3.34134e-18
2.19824e-18
2.88254e-18
3.02092e-18
2.49668e-18
1.97182e-18
1.8801e-18
2.08208e-18
2.35525e-18
2.54162e-18
2.6171e-18
2.70996e-18
2.65595e-18
2.71422e-18
2.69425e-18
2.68099e-18
2.70822e-18
2.70883e-18
2.68821e-18
2.70883e-18
2.7567e-18
2.67956e-18
2.72485e-18
2.71161e-18
2.72204e-18
2.76452e-18
2.75955e-18
2.72563e-18
2.72675e-18
2.72061e-18
2.72877e-18
2.73951e-18
2.70359e-18
2.69437e-18
2.70376e-18
2.6951e-18
2.6914e-18
2.71111e-18
2.73595e-18
2.73846e-18
2.75085e-18
2.75675e-18
2.75861e-18
2.70687e-18
2.72764e-18
2.709e-18
2.73417e-18
2.72931e-18
2.73592e-18
2.7141e-18
2.70696e-18
2.7586e-18
2.65571e-18
2.68591e-18
2.75434e-18
2.74203e-18
1.22958e-19
1.08889e-19
1.128e-19
1.21503e-19
1.36523e-19
1.50033e-19
4.04837e-20
3.7544e-19
-4.95147e-19
1.56133e-18
-2.69456e-18
4.56031e-18
-5.23394e-18
5.38163e-18
-6.07302e-18
-5.68214e-18
-6.46646e-18
-5.96738e-18
-4.22283e-18
-2.34893e-18
-1.04244e-18
-3.3843e-19
-3.73597e-20
4.53056e-20
1.08745e-19
1.28364e-19
1.12444e-19
1.24288e-19
1.27566e-19
1.27126e-19
1.27103e-19
1.15342e-19
1.43947e-19
1.28249e-19
1.23674e-19
1.32397e-19
1.38438e-19
1.38625e-19
1.27715e-19
1.19858e-19
9.87845e-20
1.15171e-19
1.2536e-19
1.39017e-19
1.14724e-19
1.14406e-19
1.20292e-19
1.22953e-19
1.20558e-19
1.2057e-19
1.03938e-19
1.16332e-19
1.19731e-19
1.02101e-19
1.00191e-19
1.19565e-19
1.11056e-19
1.24985e-19
1.24081e-19
1.06005e-19
1.28354e-19
1.36772e-19
1.18656e-19
1.25136e-19
1.2921e-19
1.22243e-19
1.14723e-19
1.2549e-19
1.2743e-19
1.23524e-19
1.2686e-19
1.16715e-19
9.71545e-20
9.14959e-20
1.14902e-19
1.15811e-19
1.16847e-19
1.38891e-19
1.32287e-19
1.24175e-19
1.08676e-19
1.13027e-19
9.83427e-20
1.33488e-19
1.32376e-19
1.13144e-19
1.14096e-19
1.28208e-19
1.17799e-19
1.19287e-19
1.1238e-19
1.38346e-19
1.29857e-19
1.10662e-19
1.45015e-19
1.46309e-19
1.2445e-19
1.15634e-19
1.07498e-19
9.65943e-20
1.23621e-19
1.35092e-19
1.23557e-19
1.25022e-19
1.10878e-19
1.07648e-19
1.18661e-19
1.22906e-19
1.16094e-19
1.18927e-19
1.19242e-19
1.18431e-19
1.28417e-19
1.06805e-19
1.09813e-19
1.23374e-19
1.20531e-19
1.04608e-19
1.24291e-19
1.12304e-19
9.74228e-20
1.38903e-19
1.34908e-19
1.15293e-19
1.18662e-19
1.01937e-19
9.29285e-20
9.81065e-20
9.58247e-20
1.02901e-19
1.14866e-19
1.02199e-19
1.29681e-19
1.17373e-19
1.32254e-19
1.034e-19
1.21977e-19
1.18054e-19
1.09811e-19
1.03614e-19
1.14631e-19
1.2799e-19
1.11903e-19
1.14592e-19
1.21739e-19
1.23556e-19
1.40532e-19
1.32478e-19
1.125e-19
1.36264e-19
1.31191e-19
1.30749e-19
1.27034e-19
9.86605e-20
1.18791e-19
1.31266e-19
1.18628e-19
1.22597e-19
1.13521e-19
1.29793e-19
1.23682e-19
1.38849e-19
1.49746e-19
1.50657e-19
1.24124e-19
1.42455e-19
1.29954e-19
1.28764e-19
1.26922e-19
1.16888e-19
1.19345e-19
1.3283e-19
1.43952e-19
1.01368e-19
1.14588e-19
1.37883e-19
1.41903e-19
-2.37741e-18
-2.38292e-18
-2.3642e-18
-2.35878e-18
-2.34675e-18
-2.39921e-18
-2.44517e-18
-2.16709e-18
-2.8668e-18
-1.21439e-18
-4.57175e-18
9.51628e-19
-5.93075e-18
-1.25006e-19
-2.39562e-18
-4.83976e-18
-6.7937e-18
-6.9424e-18
-5.76203e-18
-4.34202e-18
-3.30871e-18
-2.69895e-18
-2.48812e-18
-2.43171e-18
-2.38144e-18
-2.39398e-18
-2.40534e-18
-2.34928e-18
-2.36344e-18
-2.4033e-18
-2.38128e-18
-2.34387e-18
-2.34292e-18
-2.39261e-18
-2.37336e-18
-2.34943e-18
-2.3452e-18
-2.32539e-18
-2.35315e-18
-2.39366e-18
-2.30238e-18
-2.61944e-18
-1.97039e-18
-2.91483e-18
-1.853e-18
-2.5364e-18
-2.67788e-18
-2.26129e-18
-1.74681e-18
-1.61956e-18
-1.83651e-18
-2.04606e-18
-2.19363e-18
-2.31779e-18
-2.42874e-18
-2.40346e-18
-2.41376e-18
-2.35976e-18
-2.3779e-18
-2.43118e-18
-2.37502e-18
-2.32432e-18
-2.3876e-18
-2.32487e-18
-2.3827e-18
-2.3925e-18
-2.3969e-18
-2.39124e-18
-2.3664e-18
-2.33599e-18
-2.38568e-18
-2.29955e-18
-2.63039e-18
-2.05005e-18
-2.95371e-18
-1.87333e-18
-2.52406e-18
-2.66547e-18
-2.21135e-18
-1.71198e-18
-1.61591e-18
-1.80761e-18
-2.04978e-18
-2.20972e-18
-2.31093e-18
-2.40837e-18
-2.39993e-18
-2.34933e-18
-2.36165e-18
-2.37875e-18
-2.41327e-18
-2.37287e-18
-2.39363e-18
-2.43086e-18
-2.33453e-18
-2.35755e-18
-2.36227e-18
-2.4197e-18
-2.39544e-18
-2.3943e-18
-2.36459e-18
-2.31703e-18
-2.36898e-18
-2.36727e-18
-2.40628e-18
-2.44122e-18
-2.41136e-18
-2.38392e-18
-2.38843e-18
-2.35702e-18
-2.37755e-18
-2.3824e-18
-2.39228e-18
-2.41198e-18
-2.41378e-18
-2.4438e-18
-2.40118e-18
-2.44178e-18
-2.29778e-18
-2.59607e-18
-2.04702e-18
-2.93914e-18
-1.81102e-18
-2.57273e-18
-2.6842e-18
-2.23001e-18
-1.73335e-18
-1.64628e-18
-1.84029e-18
-2.081e-18
-2.21864e-18
-2.35098e-18
-2.33536e-18
-2.34491e-18
-2.33994e-18
-2.43216e-18
-2.33822e-18
-2.38199e-18
-2.41075e-18
-2.42244e-18
-2.39693e-18
-2.38396e-18
-2.39016e-18
-2.41662e-18
-2.38239e-18
-2.38667e-18
-2.36254e-18
-2.38527e-18
-2.43949e-18
-2.34558e-18
-2.3443e-18
-2.38548e-18
-2.37117e-18
-2.45387e-18
-2.36356e-18
-2.35514e-18
-2.38001e-18
-2.35488e-18
-2.39135e-18
-2.38608e-18
-2.39234e-18
-2.36983e-18
-2.32616e-18
-2.32857e-18
-2.38476e-18
-2.31575e-18
-2.3582e-18
-2.36758e-18
-2.36889e-18
-2.42476e-18
-2.39678e-18
-2.32612e-18
-2.33548e-18
-2.40333e-18
-2.3904e-18
-2.3708e-18
-2.32624e-18
-8.31015e-18
-8.30297e-18
-8.2716e-18
-8.3237e-18
-8.50141e-18
-8.44583e-18
-8.16999e-18
-8.83151e-18
-7.39544e-18
-1.01928e-17
-5.44545e-18
-1.19278e-17
-4.30237e-18
-1.47473e-17
-1.2828e-17
-1.27765e-17
-1.23268e-17
-1.11257e-17
-9.92408e-18
-9.12912e-18
-8.46141e-18
-8.38311e-18
-8.42989e-18
-8.36294e-18
-8.45283e-18
-8.45919e-18
-8.32537e-18
-8.33555e-18
-8.49305e-18
-8.43326e-18
-8.25872e-18
-8.33552e-18
-8.39067e-18
-8.32789e-18
-8.32839e-18
-8.28589e-18
-8.19379e-18
-8.29292e-18
-8.33417e-18
-8.1873e-18
-8.99347e-18
-7.26714e-18
-9.93906e-18
-6.49081e-18
-9.72246e-18
-8.26933e-18
-7.0539e-18
-6.0941e-18
-6.21145e-18
-6.96254e-18
-7.55055e-18
-7.86539e-18
-8.17048e-18
-8.4847e-18
-8.50526e-18
-8.49021e-18
-8.33249e-18
-8.3719e-18
-8.45529e-18
-8.38802e-18
-8.19679e-18
-8.39184e-18
-8.1881e-18
-8.42885e-18
-8.48266e-18
-8.45957e-18
-8.4034e-18
-8.28514e-18
-8.27704e-18
-8.38093e-18
-8.2063e-18
-9.02555e-18
-7.50812e-18
-9.98019e-18
-6.59013e-18
-9.70506e-18
-8.28097e-18
-6.88848e-18
-6.03596e-18
-6.19134e-18
-6.85823e-18
-7.52693e-18
-8.01019e-18
-8.21292e-18
-8.51622e-18
-8.42544e-18
-8.31773e-18
-8.31122e-18
-8.35589e-18
-8.44654e-18
-8.33838e-18
-8.47832e-18
-8.52674e-18
-8.24379e-18
-8.33074e-18
-8.29404e-18
-8.49478e-18
-8.45788e-18
-8.33353e-18
-8.35646e-18
-8.26582e-18
-8.34208e-18
-8.34965e-18
-8.45476e-18
-8.56142e-18
-8.47247e-18
-8.42607e-18
-8.45315e-18
-8.3229e-18
-8.35056e-18
-8.44306e-18
-8.42665e-18
-8.50608e-18
-8.47868e-18
-8.60238e-18
-8.50976e-18
-8.52777e-18
-8.16504e-18
-8.9021e-18
-7.5392e-18
-9.98922e-18
-6.44262e-18
-9.85758e-18
-8.26657e-18
-6.95157e-18
-6.10708e-18
-6.27075e-18
-6.97975e-18
-7.63319e-18
-7.92158e-18
-8.2724e-18
-8.20051e-18
-8.28956e-18
-8.25519e-18
-8.52272e-18
-8.25365e-18
-8.39991e-18
-8.47155e-18
-8.46203e-18
-8.38259e-18
-8.34872e-18
-8.39106e-18
-8.45e-18
-8.39072e-18
-8.37986e-18
-8.33072e-18
-8.35036e-18
-8.59536e-18
-8.35914e-18
-8.29915e-18
-8.43482e-18
-8.34394e-18
-8.59329e-18
-8.30742e-18
-8.31942e-18
-8.38377e-18
-8.2919e-18
-8.36178e-18
-8.41989e-18
-8.39722e-18
-8.40569e-18
-8.27533e-18
-8.27062e-18
-8.44142e-18
-8.21043e-18
-8.35092e-18
-8.38971e-18
-8.34996e-18
-8.51625e-18
-8.45353e-18
-8.20556e-18
-8.26401e-18
-8.43133e-18
-8.42417e-18
-8.42283e-18
-8.24135e-18
-2.13562e-17
-2.12827e-17
-2.1719e-17
-2.18594e-17
-2.17464e-17
-2.15622e-17
-2.23996e-17
-2.10771e-17
-2.30638e-17
-1.9971e-17
-2.22557e-17
-2.42368e-17
-1.43079e-17
-1.87766e-17
-2.20981e-17
-2.39745e-17
-2.34523e-17
-2.27833e-17
-2.25954e-17
-2.14748e-17
-2.13628e-17
-2.15713e-17
-2.16541e-17
-2.18787e-17
-2.18907e-17
-2.1743e-17
-2.18583e-17
-2.18305e-17
-2.20626e-17
-2.13475e-17
-2.17493e-17
-2.17178e-17
-2.15443e-17
-2.21588e-17
-2.15564e-17
-2.13471e-17
-2.16123e-17
-2.1328e-17
-2.17163e-17
-2.29695e-17
-2.00461e-17
-2.43658e-17
-1.78757e-17
-2.67087e-17
-1.43292e-17
-1.63535e-17
-1.69237e-17
-1.85706e-17
-1.96068e-17
-2.06877e-17
-2.07328e-17
-2.0953e-17
-2.17961e-17
-2.20335e-17
-2.19365e-17
-2.17842e-17
-2.18599e-17
-2.15265e-17
-2.18775e-17
-2.12697e-17
-2.20407e-17