/*--------------------------------*- C++ -*----------------------------------*\
| =========                 |                                                 |
| \\      /  F ield         | OpenFOAM: The Open Source CFD Toolbox           |
|  \\    /   O peration     | Version:  2512                                  |
|   \\  /    A nd           | Website:  www.openfoam.com                      |
|    \\/     M anipulation  |                                                 |
\*---------------------------------------------------------------------------*/
FoamFile
{
    version     2.0;
    format      ascii;
    arch        "LSB;label=32;scalar=64";
    class       volVectorField;
    location    "0.1";
    object      B;
}
// * * * * * * * * * * * * * * * * * * * * * * * * * * * * * * * * * * * * * //

dimensions      [1 0 -2 0 0 -1 0];

internalField   nonuniform List<vector> 
8333
(
(0.000227357 20 -8.86032e-21)
(0.000227351 20 -8.9359e-21)
(0.00022734 20 -4.34488e-21)
(0.000227333 20 -1.27805e-20)
(0.000227327 20 -9.92706e-21)
(0.000227321 20 -9.66018e-21)
(0.000227314 20 -5.22221e-21)
(0.000227307 20 -1.36979e-20)
(0.000227299 20 -1.11518e-20)
(0.000227291 20 -1.12339e-20)
(0.000227284 20 -6.99225e-21)
(0.000227276 20 -1.57175e-20)
(0.000227267 20 -1.30688e-20)
(0.000227259 20 -1.46555e-20)
(0.00022725 20 -9.10325e-21)
(0.000227242 20 -2.39587e-20)
(0.000227233 20 -1.58246e-20)
(0.000227224 20 -2.89821e-20)
(0.000227214 20 -2.09186e-20)
(0.000227205 20 -3.54085e-20)
(0.000227195 20 -2.83754e-20)
(0.000227186 20 -4.3087e-20)
(0.000227176 20 -3.49527e-20)
(0.000227166 20 -4.81585e-20)
(0.000227156 20 -3.88822e-20)
(0.000227145 20 -5.12244e-20)
(0.000227135 20 -4.12136e-20)
(0.000227124 20 -5.27097e-20)
(0.000227113 20 -4.25265e-20)
(0.000227102 20 -5.3963e-20)
(0.000227091 20 -4.35539e-20)
(0.00022708 20 -5.50927e-20)
(0.000227068 20 -4.42067e-20)
(0.000227057 20 -5.525e-20)
(0.000227045 20 -4.44035e-20)
(0.000227033 20 -5.55984e-20)
(0.000227021 20 -4.46397e-20)
(0.000227009 20 -5.58228e-20)
(0.000226996 20 -4.52498e-20)
(0.000226984 20 -5.61777e-20)
(0.000226971 20 -4.52311e-20)
(0.000226959 20 -5.62141e-20)
(0.000226946 20 -4.51944e-20)
(0.000226933 20 -5.63565e-20)
(0.000226919 20 -4.5486e-20)
(0.000226906 20 -5.63425e-20)
(0.000226892 20 -4.52662e-20)
(0.000226879 20 -5.63146e-20)
(0.000226865 20 -4.5234e-20)
(0.000226851 20 -5.61674e-20)
(0.000226837 20 -4.55332e-20)
(0.000226822 20 -5.65476e-20)
(0.000226808 20 -4.53645e-20)
(0.000226793 20 -5.6429e-20)
(0.000226778 20 -4.5525e-20)
(0.000226763 20 -5.65378e-20)
(0.000226748 20 -4.53271e-20)
(0.000226733 20 -5.62086e-20)
(0.000226717 20 -4.51302e-20)
(0.000226701 20 -5.63606e-20)
(0.000226685 20 -4.52685e-20)
(0.000226669 20 -5.64264e-20)
(0.000226653 20 -4.53435e-20)
(0.000226637 20 -5.64843e-20)
(0.00022662 20 -4.55656e-20)
(0.000226604 20 -5.63758e-20)
(0.000226587 20 -4.5628e-20)
(0.00022657 20 -5.65788e-20)
(0.000226552 20 -4.57109e-20)
(0.000226535 20 -5.67677e-20)
(0.000226517 20 -4.56902e-20)
(0.0002265 20 -5.65793e-20)
(0.000226482 20 -4.53193e-20)
(0.000226464 20 -5.63289e-20)
(0.000226445 20 -4.55409e-20)
(0.000226427 20 -5.54653e-20)
(0.000226408 20 -4.6326e-20)
(0.00022639 20 -5.16712e-20)
(0.000226371 20 -5.18217e-20)
(0.000226352 20 -4.39105e-20)
(0.000226332 20 -5.77646e-20)
(0.000226313 20 -4.86216e-20)
(0.000226293 20 -5.94447e-20)
(0.000226274 20 -4.70786e-20)
(0.000226254 20 -5.69571e-20)
(0.000226233 20 -4.53356e-20)
(0.000226213 20 -5.61732e-20)
(0.000226193 20 -4.5181e-20)
(0.000226172 20 -5.60623e-20)
(0.000226151 20 -4.51817e-20)
(0.00022613 20 -5.62891e-20)
(0.000226109 20 -4.55204e-20)
(0.000226088 20 -5.671e-20)
(0.000226067 20 -4.57354e-20)
(0.000226045 20 -5.68876e-20)
(0.000226023 20 -4.58601e-20)
(0.000226001 20 -5.68144e-20)
(0.000225979 20 -4.58337e-20)
(0.000225957 20 -5.69722e-20)
(0.000225934 20 -4.592e-20)
(0.000225912 20 -5.69572e-20)
(0.000225889 20 -4.59483e-20)
(0.000225866 20 -5.7011e-20)
(0.000225843 20 -4.57173e-20)
(0.000225819 20 -5.68058e-20)
(0.000225796 20 -4.59888e-20)
(0.000225772 20 -5.68849e-20)
(0.000225749 20 -4.57713e-20)
(0.000225725 20 -5.6687e-20)
(0.0002257 20 -4.55647e-20)
(0.000225676 20 -5.66223e-20)
(0.000225652 20 -4.57451e-20)
(0.000225627 20 -5.66283e-20)
(0.000225602 20 -4.56828e-20)
(0.000225577 20 -5.67599e-20)
(0.000225552 20 -4.58909e-20)
(0.000225527 20 -5.67496e-20)
(0.000225501 20 -4.55767e-20)
(0.000225476 20 -5.69137e-20)
(0.00022545 20 -4.60563e-20)
(0.000225424 20 -5.66776e-20)
(0.000225398 20 -4.56641e-20)
(0.000225371 20 -5.68915e-20)
(0.000225345 20 -4.61662e-20)
(0.000225318 20 -5.70743e-20)
(0.000225291 20 -4.60914e-20)
(0.000225265 20 -5.69366e-20)
(0.000225237 20 -4.61149e-20)
(0.00022521 20 -5.70583e-20)
(0.000225183 20 -4.63042e-20)
(0.000225155 20 -5.73027e-20)
(0.000225127 20 -4.62117e-20)
(0.000225099 20 -5.72448e-20)
(0.000225071 20 -4.60883e-20)
(0.000225043 20 -5.68326e-20)
(0.000225014 20 -4.59817e-20)
(0.000224986 20 -5.68818e-20)
(0.000224957 20 -4.59654e-20)
(0.000224928 20 -5.69402e-20)
(0.000224899 20 -4.59393e-20)
(0.00022487 20 -5.67851e-20)
(0.00022484 20 -4.58453e-20)
(0.000224811 20 -5.67521e-20)
(0.000224781 20 -4.58558e-20)
(0.000224751 20 -5.66079e-20)
(0.000224721 20 -4.55981e-20)
(0.000224691 20 -5.65328e-20)
(0.00022466 20 -4.56966e-20)
(0.00022463 20 -5.65658e-20)
(0.000224599 20 -4.54922e-20)
(0.000224568 20 -5.64972e-20)
(0.000224537 20 -4.54601e-20)
(0.000224506 20 -5.63324e-20)
(0.000224474 20 -4.52378e-20)
(0.000224443 20 -5.62372e-20)
(0.000224411 20 -4.52716e-20)
(0.000224379 20 -5.62476e-20)
(0.000224347 20 -4.52695e-20)
(0.000224315 20 -5.6252e-20)
(0.000224283 20 -4.51226e-20)
(0.00022425 20 -5.60905e-20)
(0.000224217 20 -4.5066e-20)
(0.000224185 20 -5.59842e-20)
(0.000224152 20 -4.52222e-20)
(0.000224118 20 -5.62662e-20)
(0.000224085 20 -4.50439e-20)
(0.000224052 20 -5.58099e-20)
(0.000224018 20 -4.49012e-20)
(0.000223984 20 -5.56711e-20)
(0.00022395 20 -4.47208e-20)
(0.000223916 20 -5.56843e-20)
(0.000223882 20 -4.43573e-20)
(0.000223847 20 -5.48531e-20)
(0.000223813 20 -4.34235e-20)
(0.000223778 20 -5.42084e-20)
(0.000223743 20 -4.30227e-20)
(0.000223708 20 -5.3317e-20)
(0.000223673 20 -4.16832e-20)
(0.000223637 20 -5.17623e-20)
(0.000223602 20 -4.149e-20)
(0.000223566 20 -4.88189e-20)
(0.00022353 20 -4.3597e-20)
(0.000223493 20 -4.67786e-20)
(0.000223456 20 -4.33433e-20)
(0.000403362 20 -2.78089e-20)
(0.000403296 20 -2.82984e-20)
(0.00040321 20 -1.94115e-20)
(0.000403116 20 -4.03284e-20)
(0.000403024 20 -3.09949e-20)
(0.000402936 20 -3.04829e-20)
(0.00040285 20 -2.19959e-20)
(0.000402766 20 -4.30946e-20)
(0.000402682 20 -3.46096e-20)
(0.000402598 20 -3.50867e-20)
(0.000402514 20 -2.72051e-20)
(0.00040243 20 -4.90448e-20)
(0.000402347 20 -4.02444e-20)
(0.000402263 20 -4.51509e-20)
(0.00040218 20 -3.37767e-20)
(0.000402096 20 -7.27059e-20)
(0.000402012 20 -4.9544e-20)
(0.000401929 20 -8.73545e-20)
(0.000401845 20 -6.72172e-20)
(0.000401761 20 -1.09328e-19)
(0.000401677 20 -9.13868e-20)
(0.000401593 20 -1.32971e-19)
(0.000401509 20 -1.11092e-19)
(0.000401425 20 -1.48068e-19)
(0.00040134 20 -1.22661e-19)
(0.000401256 20 -1.57187e-19)
(0.000401172 20 -1.29702e-19)
(0.000401087 20 -1.61782e-19)
(0.000401003 20 -1.33616e-19)
(0.000400918 20 -1.65326e-19)
(0.000400834 20 -1.36605e-19)
(0.000400749 20 -1.68558e-19)
(0.000400664 20 -1.38449e-19)
(0.00040058 20 -1.69138e-19)
(0.000400495 20 -1.39052e-19)
(0.00040041 20 -1.70195e-19)
(0.000400326 20 -1.39979e-19)
(0.000400241 20 -1.70838e-19)
(0.000400156 20 -1.4164e-19)
(0.000400071 20 -1.71883e-19)
(0.000399987 20 -1.41613e-19)
(0.000399902 20 -1.71949e-19)
(0.000399817 20 -1.41594e-19)
(0.000399732 20 -1.72414e-19)
(0.000399647 20 -1.42254e-19)
(0.000399562 20 -1.7243e-19)
(0.000399477 20 -1.41826e-19)
(0.000399392 20 -1.72471e-19)
(0.000399307 20 -1.41732e-19)
(0.000399221 20 -1.71934e-19)
(0.000399136 20 -1.42425e-19)
(0.00039905 20 -1.72885e-19)
(0.000398964 20 -1.42049e-19)
(0.000398878 20 -1.72553e-19)
(0.000398792 20 -1.42383e-19)
(0.000398706 20 -1.72899e-19)
(0.000398619 20 -1.41931e-19)
(0.000398533 20 -1.72096e-19)
(0.000398446 20 -1.41462e-19)
(0.000398359 20 -1.72521e-19)
(0.000398272 20 -1.41825e-19)
(0.000398185 20 -1.72655e-19)
(0.000398098 20 -1.41933e-19)
(0.000398011 20 -1.72837e-19)
(0.000397923 20 -1.4275e-19)
(0.000397835 20 -1.72634e-19)
(0.000397747 20 -1.42807e-19)
(0.000397659 20 -1.73142e-19)
(0.000397571 20 -1.43102e-19)
(0.000397483 20 -1.73662e-19)
(0.000397394 20 -1.4298e-19)
(0.000397305 20 -1.73059e-19)
(0.000397216 20 -1.41986e-19)
(0.000397127 20 -1.72284e-19)
(0.000397038 20 -1.4242e-19)
(0.000396949 20 -1.7002e-19)
(0.000396859 20 -1.44307e-19)
(0.000396769 20 -1.60309e-19)
(0.00039668 20 -1.57831e-19)
(0.00039659 20 -1.39649e-19)
(0.000396499 20 -1.76207e-19)
(0.000396409 20 -1.49645e-19)
(0.000396319 20 -1.79579e-19)
(0.000396228 20 -1.4586e-19)
(0.000396137 20 -1.73574e-19)
(0.000396046 20 -1.41757e-19)
(0.000395955 20 -1.71792e-19)
(0.000395864 20 -1.41397e-19)
(0.000395772 20 -1.71674e-19)
(0.00039568 20 -1.41631e-19)
(0.000395589 20 -1.72318e-19)
(0.000395497 20 -1.42512e-19)
(0.000395404 20 -1.73435e-19)
(0.000395312 20 -1.43109e-19)
(0.00039522 20 -1.73985e-19)
(0.000395127 20 -1.43465e-19)
(0.000395034 20 -1.73824e-19)
(0.000394941 20 -1.43505e-19)
(0.000394848 20 -1.7428e-19)
(0.000394755 20 -1.43774e-19)
(0.000394661 20 -1.74248e-19)
(0.000394568 20 -1.4371e-19)
(0.000394474 20 -1.74398e-19)
(0.00039438 20 -1.43301e-19)
(0.000394286 20 -1.73827e-19)
(0.000394192 20 -1.43876e-19)
(0.000394097 20 -1.74036e-19)
(0.000394002 20 -1.43302e-19)
(0.000393908 20 -1.73579e-19)
(0.000393813 20 -1.42659e-19)
(0.000393718 20 -1.73293e-19)
(0.000393622 20 -1.43159e-19)
(0.000393527 20 -1.73348e-19)
(0.000393431 20 -1.42992e-19)
(0.000393336 20 -1.73656e-19)
(0.00039324 20 -1.43428e-19)
(0.000393144 20 -1.73531e-19)
(0.000393047 20 -1.42657e-19)
(0.000392951 20 -1.73996e-19)
(0.000392855 20 -1.43939e-19)
(0.000392758 20 -1.73482e-19)
(0.000392661 20 -1.42916e-19)
(0.000392564 20 -1.74005e-19)
(0.000392467 20 -1.44345e-19)
(0.000392369 20 -1.74525e-19)
(0.000392272 20 -1.44096e-19)
(0.000392174 20 -1.74128e-19)
(0.000392076 20 -1.44281e-19)
(0.000391978 20 -1.74447e-19)
(0.00039188 20 -1.44764e-19)
(0.000391782 20 -1.75112e-19)
(0.000391683 20 -1.44491e-19)
(0.000391585 20 -1.75012e-19)
(0.000391486 20 -1.44208e-19)
(0.000391387 20 -1.73913e-19)
(0.000391288 20 -1.43978e-19)
(0.000391188 20 -1.74094e-19)
(0.000391089 20 -1.43802e-19)
(0.000390989 20 -1.74182e-19)
(0.000390889 20 -1.43782e-19)
(0.00039079 20 -1.73745e-19)
(0.000390689 20 -1.43475e-19)
(0.000390589 20 -1.73596e-19)
(0.000390489 20 -1.43373e-19)
(0.000390388 20 -1.73267e-19)
(0.000390287 20 -1.4271e-19)
(0.000390187 20 -1.72985e-19)
(0.000390085 20 -1.42942e-19)
(0.000389984 20 -1.72949e-19)
(0.000389883 20 -1.42326e-19)
(0.000389781 20 -1.72779e-19)
(0.00038968 20 -1.42196e-19)
(0.000389578 20 -1.72331e-19)
(0.000389476 20 -1.41644e-19)
(0.000389374 20 -1.72085e-19)
(0.000389271 20 -1.41699e-19)
(0.000389169 20 -1.72055e-19)
(0.000389066 20 -1.41646e-19)
(0.000388963 20 -1.72139e-19)
(0.00038886 20 -1.41313e-19)
(0.000388757 20 -1.71708e-19)
(0.000388654 20 -1.41161e-19)
(0.000388551 20 -1.71339e-19)
(0.000388447 20 -1.41532e-19)
(0.000388343 20 -1.72131e-19)
(0.000388239 20 -1.41085e-19)
(0.000388135 20 -1.7081e-19)
(0.000388031 20 -1.40598e-19)
(0.000387927 20 -1.70387e-19)
(0.000387822 20 -1.40087e-19)
(0.000387717 20 -1.70391e-19)
(0.000387612 20 -1.38975e-19)
(0.000387507 20 -1.68019e-19)
(0.000387402 20 -1.36381e-19)
(0.000387297 20 -1.65925e-19)
(0.000387191 20 -1.34905e-19)
(0.000387085 20 -1.63419e-19)
(0.000386979 20 -1.31114e-19)
(0.000386873 20 -1.58955e-19)
(0.000386767 20 -1.30099e-19)
(0.00038666 20 -1.51029e-19)
(0.000386554 20 -1.3505e-19)
(0.000386445 20 -1.44925e-19)
(0.000386337 20 -1.37268e-19)
(0.000457913 20 -5.27949e-20)
(0.000457797 20 -4.97453e-20)
(0.00045766 20 -7.20853e-20)
(0.00045752 20 -5.86786e-20)
(0.000457385 20 -5.65235e-20)
(0.000457253 20 -5.39752e-20)
(0.000457123 20 -7.68655e-20)
(0.000456995 20 -6.46415e-20)
(0.000456867 20 -6.39134e-20)
(0.00045674 20 -6.23766e-20)
(0.000456613 20 -8.65772e-20)
(0.000456486 20 -7.38588e-20)
(0.000456359 20 -8.03353e-20)
(0.000456233 20 -7.37446e-20)
(0.000456106 20 -1.24107e-19)
(0.00045598 20 -9.13694e-20)
(0.000455853 20 -1.49143e-19)
(0.000455726 20 -1.27417e-19)
(0.0004556 20 -1.93098e-19)
(0.000455473 20 -1.72903e-19)
(0.000455346 20 -2.34788e-19)
(0.00045522 20 -2.06159e-19)
(0.000455093 20 -2.59967e-19)
(0.000454966 20 -2.25114e-19)
(0.000454839 20 -2.74892e-19)
(0.000454712 20 -2.36892e-19)
(0.000454586 20 -2.83059e-19)
(0.000454459 20 -2.43564e-19)
(0.000454332 20 -2.88485e-19)
(0.000454205 20 -2.48242e-19)
(0.000454078 20 -2.93402e-19)
(0.000453952 20 -2.51048e-19)
(0.000453825 20 -2.94693e-19)
(0.000453698 20 -2.52301e-19)
(0.000453572 20 -2.96507e-19)
(0.000453446 20 -2.54199e-19)
(0.000453319 20 -2.97659e-19)
(0.000453193 20 -2.56529e-19)
(0.000453067 20 -2.99158e-19)
(0.000452941 20 -2.56673e-19)
(0.000452814 20 -2.99272e-19)
(0.000452688 20 -2.56757e-19)
(0.000452562 20 -3.0008e-19)
(0.000452436 20 -2.5754e-19)
(0.00045231 20 -3.00232e-19)
(0.000452184 20 -2.57256e-19)
(0.000452057 20 -3.00626e-19)
(0.000451931 20 -2.57222e-19)
(0.000451805 20 -2.99782e-19)
(0.000451678 20 -2.57929e-19)
(0.000451551 20 -3.00623e-19)
(0.000451425 20 -2.57366e-19)
(0.000451298 20 -3.00208e-19)
(0.000451171 20 -2.57706e-19)
(0.000451044 20 -3.00705e-19)
(0.000450917 20 -2.57247e-19)
(0.000450789 20 -2.99878e-19)
(0.000450662 20 -2.56813e-19)
(0.000450534 20 -3.00519e-19)
(0.000450406 20 -2.57316e-19)
(0.000450279 20 -3.007e-19)
(0.000450151 20 -2.57306e-19)
(0.000450022 20 -3.00988e-19)
(0.000449894 20 -2.58821e-19)
(0.000449766 20 -3.00969e-19)
(0.000449637 20 -2.5866e-19)
(0.000449508 20 -3.01446e-19)
(0.000449379 20 -2.59195e-19)
(0.00044925 20 -3.02105e-19)
(0.000449121 20 -2.58935e-19)
(0.000448992 20 -3.0114e-19)
(0.000448862 20 -2.57616e-19)
(0.000448732 20 -2.99934e-19)
(0.000448603 20 -2.57675e-19)
(0.000448473 20 -2.96966e-19)
(0.000448342 20 -2.59483e-19)
(0.000448212 20 -2.84885e-19)
(0.000448082 20 -2.74841e-19)
(0.000447951 20 -2.57009e-19)
(0.00044782 20 -3.04168e-19)
(0.000447689 20 -2.64436e-19)
(0.000447558 20 -3.06739e-19)
(0.000447427 20 -2.603e-19)
(0.000447295 20 -3.00275e-19)
(0.000447164 20 -2.56324e-19)
(0.000447032 20 -2.98835e-19)
(0.0004469 20 -2.56096e-19)
(0.000446768 20 -2.99186e-19)
(0.000446636 20 -2.57127e-19)
(0.000446503 20 -3.00241e-19)
(0.000446371 20 -2.58296e-19)
(0.000446238 20 -3.01789e-19)
(0.000446105 20 -2.59138e-19)
(0.000445972 20 -3.02688e-19)
(0.000445839 20 -2.59718e-19)
(0.000445706 20 -3.02613e-19)
(0.000445572 20 -2.60035e-19)
(0.000445439 20 -3.03271e-19)
(0.000445305 20 -2.60469e-19)
(0.000445171 20 -3.03332e-19)
(0.000445037 20 -2.60217e-19)
(0.000444902 20 -3.03454e-19)
(0.000444768 20 -2.5996e-19)
(0.000444633 20 -3.02802e-19)
(0.000444499 20 -2.60468e-19)
(0.000444364 20 -3.0294e-19)
(0.000444228 20 -2.59583e-19)
(0.000444093 20 -3.02421e-19)
(0.000443958 20 -2.58605e-19)
(0.000443822 20 -3.01832e-19)
(0.000443686 20 -2.59258e-19)
(0.000443551 20 -3.02014e-19)
(0.000443415 20 -2.59128e-19)
(0.000443278 20 -3.02336e-19)
(0.000443142 20 -2.59474e-19)
(0.000443005 20 -3.0186e-19)
(0.000442869 20 -2.58484e-19)
(0.000442732 20 -3.02531e-19)
(0.000442595 20 -2.6021e-19)
(0.000442458 20 -3.02285e-19)
(0.00044232 20 -2.59033e-19)
(0.000442183 20 -3.02874e-19)
(0.000442045 20 -2.60992e-19)
(0.000441907 20 -3.0345e-19)
(0.00044177 20 -2.60628e-19)
(0.000441631 20 -3.02982e-19)
(0.000441493 20 -2.61104e-19)
(0.000441355 20 -3.03472e-19)
(0.000441216 20 -2.61679e-19)
(0.000441077 20 -3.04205e-19)
(0.000440938 20 -2.61251e-19)
(0.000440799 20 -3.04211e-19)
(0.00044066 20 -2.61038e-19)
(0.000440521 20 -3.0291e-19)
(0.000440381 20 -2.60822e-19)
(0.000440242 20 -3.03177e-19)
(0.000440102 20 -2.60309e-19)
(0.000439962 20 -3.03078e-19)
(0.000439822 20 -2.60287e-19)
(0.000439681 20 -3.02438e-19)
(0.000439541 20 -2.59826e-19)
(0.0004394 20 -3.02116e-19)
(0.000439259 20 -2.59333e-19)
(0.000439119 20 -3.0178e-19)
(0.000438977 20 -2.5857e-19)
(0.000438836 20 -3.01157e-19)
(0.000438695 20 -2.58814e-19)
(0.000438553 20 -3.00804e-19)
(0.000438411 20 -2.57702e-19)
(0.00043827 20 -3.00571e-19)
(0.000438128 20 -2.57488e-19)
(0.000437985 20 -3.00008e-19)
(0.000437843 20 -2.56838e-19)
(0.000437701 20 -2.99778e-19)
(0.000437558 20 -2.56815e-19)
(0.000437415 20 -2.99497e-19)
(0.000437272 20 -2.56492e-19)
(0.000437129 20 -2.99639e-19)
(0.000436986 20 -2.56212e-19)
(0.000436842 20 -2.99148e-19)
(0.000436699 20 -2.56044e-19)
(0.000436555 20 -2.98587e-19)
(0.000436411 20 -2.56398e-19)
(0.000436267 20 -2.99446e-19)
(0.000436123 20 -2.5583e-19)
(0.000435978 20 -2.97648e-19)
(0.000435834 20 -2.5491e-19)
(0.000435689 20 -2.96784e-19)
(0.000435544 20 -2.54086e-19)
(0.000435399 20 -2.96578e-19)
(0.000435254 20 -2.52153e-19)
(0.000435109 20 -2.93056e-19)
(0.000434963 20 -2.48395e-19)
(0.000434817 20 -2.89264e-19)
(0.000434671 20 -2.45069e-19)
(0.000434525 20 -2.8513e-19)
(0.000434379 20 -2.39322e-19)
(0.000434232 20 -2.78405e-19)
(0.000434085 20 -2.36447e-19)
(0.000433939 20 -2.67338e-19)
(0.000433791 20 -2.41354e-19)
(0.000433643 20 -2.57299e-19)
(0.000433493 20 -2.50097e-19)
(0.000466056 20 -1.10793e-19)
(0.000465914 20 -9.92951e-20)
(0.000465763 20 -1.21541e-19)
(0.000465612 20 -1.00062e-19)
(0.000465465 20 -1.16499e-19)
(0.000465322 20 -1.06619e-19)
(0.000465178 20 -1.29771e-19)
(0.000465036 20 -1.09697e-19)
(0.000464895 20 -1.27581e-19)
(0.000464754 20 -1.19538e-19)
(0.000464612 20 -1.43888e-19)
(0.000464471 20 -1.32421e-19)
(0.000464331 20 -1.44191e-19)
(0.00046419 20 -1.68188e-19)
(0.000464049 20 -1.74665e-19)
(0.000463908 20 -2.1621e-19)
(0.000463768 20 -2.40603e-19)
(0.000463627 20 -2.92331e-19)
(0.000463486 20 -3.14086e-19)
(0.000463346 20 -3.54634e-19)
(0.000463205 20 -3.62449e-19)
(0.000463064 20 -3.90177e-19)
(0.000462923 20 -3.88835e-19)
(0.000462783 20 -4.10339e-19)
(0.000462642 20 -4.04502e-19)
(0.000462501 20 -4.231e-19)
(0.00046236 20 -4.14062e-19)
(0.000462219 20 -4.29837e-19)
(0.000462079 20 -4.2012e-19)
(0.000461938 20 -4.35123e-19)
(0.000461797 20 -4.23888e-19)
(0.000461657 20 -4.37937e-19)
(0.000461516 20 -4.26796e-19)
(0.000461376 20 -4.40889e-19)
(0.000461236 20 -4.29146e-19)
(0.000461096 20 -4.42874e-19)
(0.000460956 20 -4.30717e-19)
(0.000460816 20 -4.43671e-19)
(0.000460676 20 -4.31466e-19)
(0.000460536 20 -4.44358e-19)
(0.000460397 20 -4.31954e-19)
(0.000460257 20 -4.45025e-19)
(0.000460117 20 -4.32428e-19)
(0.000459978 20 -4.45954e-19)
(0.000459838 20 -4.33652e-19)
(0.000459698 20 -4.46737e-19)
(0.000459558 20 -4.34224e-19)
(0.000459418 20 -4.46613e-19)
(0.000459278 20 -4.335e-19)
(0.000459138 20 -4.45726e-19)
(0.000458998 20 -4.32649e-19)
(0.000458858 20 -4.45376e-19)
(0.000458718 20 -4.33071e-19)
(0.000458577 20 -4.45659e-19)
(0.000458437 20 -4.32921e-19)
(0.000458296 20 -4.45819e-19)
(0.000458155 20 -4.3345e-19)
(0.000458014 20 -4.46471e-19)
(0.000457873 20 -4.33755e-19)
(0.000457732 20 -4.46602e-19)
(0.00045759 20 -4.34217e-19)
(0.000457449 20 -4.47485e-19)
(0.000457307 20 -4.34808e-19)
(0.000457165 20 -4.47885e-19)
(0.000457023 20 -4.34891e-19)
(0.000456881 20 -4.47645e-19)
(0.000456739 20 -4.348e-19)
(0.000456597 20 -4.47655e-19)
(0.000456454 20 -4.34802e-19)
(0.000456312 20 -4.46852e-19)
(0.000456169 20 -4.33517e-19)
(0.000456026 20 -4.45524e-19)
(0.000455883 20 -4.3236e-19)
(0.00045574 20 -4.43034e-19)
(0.000455596 20 -4.32104e-19)
(0.000455453 20 -4.35012e-19)
(0.000455309 20 -4.35735e-19)
(0.000455165 20 -4.22124e-19)
(0.000455021 20 -4.37984e-19)
(0.000454877 20 -4.29398e-19)
(0.000454732 20 -4.4412e-19)
(0.000454588 20 -4.30791e-19)
(0.000454443 20 -4.42669e-19)
(0.000454298 20 -4.29776e-19)
(0.000454154 20 -4.43032e-19)
(0.000454008 20 -4.31121e-19)
(0.000453863 20 -4.44882e-19)
(0.000453718 20 -4.33027e-19)
(0.000453572 20 -4.46253e-19)
(0.000453426 20 -4.3424e-19)
(0.000453281 20 -4.47858e-19)
(0.000453134 20 -4.35465e-19)
(0.000452988 20 -4.48933e-19)
(0.000452842 20 -4.36565e-19)
(0.000452695 20 -4.49576e-19)
(0.000452549 20 -4.37383e-19)
(0.000452402 20 -4.4998e-19)
(0.000452255 20 -4.37238e-19)
(0.000452108 20 -4.5007e-19)
(0.000451961 20 -4.37581e-19)
(0.000451813 20 -4.50466e-19)
(0.000451665 20 -4.37407e-19)
(0.000451518 20 -4.50106e-19)
(0.00045137 20 -4.37301e-19)
(0.000451222 20 -4.49715e-19)
(0.000451073 20 -4.36683e-19)
(0.000450925 20 -4.49178e-19)
(0.000450777 20 -4.36054e-19)
(0.000450628 20 -4.48554e-19)
(0.000450479 20 -4.35885e-19)
(0.00045033 20 -4.48839e-19)
(0.000450181 20 -4.36387e-19)
(0.000450032 20 -4.48946e-19)
(0.000449882 20 -4.35692e-19)
(0.000449732 20 -4.4791e-19)
(0.000449583 20 -4.35175e-19)
(0.000449433 20 -4.48333e-19)
(0.000449283 20 -4.36208e-19)
(0.000449132 20 -4.49606e-19)
(0.000448982 20 -4.37006e-19)
(0.000448831 20 -4.50075e-19)
(0.000448681 20 -4.37195e-19)
(0.00044853 20 -4.49448e-19)
(0.000448379 20 -4.36944e-19)
(0.000448228 20 -4.49965e-19)
(0.000448076 20 -4.37572e-19)
(0.000447925 20 -4.50476e-19)
(0.000447773 20 -4.37408e-19)
(0.000447621 20 -4.5011e-19)
(0.000447469 20 -4.37735e-19)
(0.000447317 20 -4.50477e-19)
(0.000447165 20 -4.38177e-19)
(0.000447013 20 -4.50475e-19)
(0.00044686 20 -4.37333e-19)
(0.000446707 20 -4.501e-19)
(0.000446555 20 -4.37415e-19)
(0.000446402 20 -4.49752e-19)
(0.000446248 20 -4.36725e-19)
(0.000446095 20 -4.48941e-19)
(0.000445942 20 -4.35671e-19)
(0.000445788 20 -4.48247e-19)
(0.000445634 20 -4.35334e-19)
(0.00044548 20 -4.48302e-19)
(0.000445326 20 -4.35342e-19)
(0.000445172 20 -4.4728e-19)
(0.000445018 20 -4.34158e-19)
(0.000444863 20 -4.46094e-19)
(0.000444708 20 -4.33204e-19)
(0.000444554 20 -4.45748e-19)
(0.000444399 20 -4.32977e-19)
(0.000444243 20 -4.45467e-19)
(0.000444088 20 -4.32962e-19)
(0.000443933 20 -4.45778e-19)
(0.000443777 20 -4.32717e-19)
(0.000443621 20 -4.44807e-19)
(0.000443465 20 -4.31943e-19)
(0.000443309 20 -4.44605e-19)
(0.000443153 20 -4.31867e-19)
(0.000442997 20 -4.44639e-19)
(0.00044284 20 -4.31724e-19)
(0.000442683 20 -4.4439e-19)
(0.000442527 20 -4.31151e-19)
(0.00044237 20 -4.43703e-19)
(0.000442212 20 -4.30629e-19)
(0.000442055 20 -4.42848e-19)
(0.000441898 20 -4.29278e-19)
(0.00044174 20 -4.41135e-19)
(0.000441582 20 -4.27483e-19)
(0.000441424 20 -4.39693e-19)
(0.000441266 20 -4.2586e-19)
(0.000441107 20 -4.36453e-19)
(0.000440949 20 -4.20778e-19)
(0.00044079 20 -4.30523e-19)
(0.000440631 20 -4.14641e-19)
(0.000440472 20 -4.24111e-19)
(0.000440313 20 -4.08089e-19)
(0.000440153 20 -4.16615e-19)
(0.000439993 20 -4.01747e-19)
(0.000439833 20 -4.06363e-19)
(0.000439672 20 -3.98339e-19)
(0.000439511 20 -4.01149e-19)
(0.000439348 20 -3.97304e-19)
(0.000460129 20 -1.2495e-19)
(0.00045998 20 -1.8891e-19)
(0.000459828 20 -1.39465e-19)
(0.000459681 20 -1.82241e-19)
(0.000459535 20 -1.349e-19)
(0.00045939 20 -1.99361e-19)
(0.000459246 20 -1.51321e-19)
(0.000459104 20 -1.9595e-19)
(0.000458961 20 -1.50926e-19)
(0.000458818 20 -2.17898e-19)
(0.000458675 20 -1.81149e-19)
(0.000458533 20 -2.15094e-19)
(0.000458391 20 -2.14397e-19)
(0.000458248 20 -2.54788e-19)
(0.000458106 20 -2.85246e-19)
(0.000457963 20 -3.51235e-19)
(0.000457821 20 -3.94221e-19)
(0.000457679 20 -4.52812e-19)
(0.000457536 20 -4.76825e-19)
(0.000457394 20 -5.15731e-19)
(0.000457251 20 -5.22086e-19)
(0.000457109 20 -5.49125e-19)
(0.000456966 20 -5.47207e-19)
(0.000456824 20 -5.68447e-19)
(0.000456681 20 -5.64566e-19)
(0.000456539 20 -5.80887e-19)
(0.000456396 20 -5.72426e-19)
(0.000456254 20 -5.8835e-19)
(0.000456112 20 -5.78126e-19)
(0.000455969 20 -5.92933e-19)
(0.000455827 20 -5.82336e-19)
(0.000455685 20 -5.97526e-19)
(0.000455543 20 -5.86478e-19)
(0.000455401 20 -6.0029e-19)
(0.000455259 20 -5.89345e-19)
(0.000455118 20 -6.01142e-19)
(0.000454976 20 -5.89351e-19)
(0.000454835 20 -6.02521e-19)
(0.000454694 20 -5.90613e-19)
(0.000454552 20 -6.03367e-19)
(0.000454411 20 -5.91202e-19)
(0.00045427 20 -6.03475e-19)
(0.000454128 20 -5.92905e-19)
(0.000453987 20 -6.06281e-19)
(0.000453846 20 -5.94085e-19)
(0.000453704 20 -6.07499e-19)
(0.000453563 20 -5.94649e-19)
(0.000453421 20 -6.05306e-19)
(0.00045328 20 -5.92e-19)
(0.000453138 20 -6.04089e-19)
(0.000452996 20 -5.91718e-19)
(0.000452854 20 -6.04723e-19)
(0.000452712 20 -5.91771e-19)
(0.00045257 20 -6.04783e-19)
(0.000452428 20 -5.92927e-19)
(0.000452285 20 -6.06338e-19)
(0.000452143 20 -5.93661e-19)
(0.000452 20 -6.06441e-19)
(0.000451857 20 -5.93688e-19)
(0.000451715 20 -6.07334e-19)
(0.000451572 20 -5.95223e-19)
(0.000451428 20 -6.06943e-19)
(0.000451285 20 -5.9605e-19)
(0.000451142 20 -6.07318e-19)
(0.000450998 20 -5.95023e-19)
(0.000450855 20 -6.06591e-19)
(0.000450711 20 -5.94417e-19)
(0.000450567 20 -6.06929e-19)
(0.000450423 20 -5.93735e-19)
(0.000450278 20 -6.05637e-19)
(0.000450134 20 -5.92302e-19)
(0.000449989 20 -6.03296e-19)
(0.000449845 20 -5.90182e-19)
(0.0004497 20 -6.01518e-19)
(0.000449555 20 -5.85074e-19)
(0.00044941 20 -5.95597e-19)
(0.000449264 20 -5.83397e-19)
(0.000449119 20 -5.73396e-19)
(0.000448973 20 -5.90723e-19)
(0.000448828 20 -5.8247e-19)
(0.000448682 20 -5.97006e-19)
(0.000448536 20 -5.85841e-19)
(0.000448389 20 -5.99191e-19)
(0.000448243 20 -5.88341e-19)
(0.000448097 20 -6.02305e-19)
(0.00044795 20 -5.91738e-19)
(0.000447803 20 -6.05178e-19)
(0.000447656 20 -5.93455e-19)
(0.000447509 20 -6.06405e-19)
(0.000447362 20 -5.95185e-19)
(0.000447214 20 -6.07971e-19)
(0.000447067 20 -5.964e-19)
(0.000446919 20 -6.09637e-19)
(0.000446771 20 -5.97688e-19)
(0.000446623 20 -6.11018e-19)
(0.000446475 20 -5.97877e-19)
(0.000446327 20 -6.10203e-19)
(0.000446178 20 -5.97977e-19)
(0.00044603 20 -6.11148e-19)
(0.000445881 20 -5.987e-19)
(0.000445732 20 -6.11034e-19)
(0.000445583 20 -5.98621e-19)
(0.000445434 20 -6.10394e-19)
(0.000445284 20 -5.97659e-19)
(0.000445135 20 -6.09987e-19)
(0.000444985 20 -5.97145e-19)
(0.000444835 20 -6.0971e-19)
(0.000444685 20 -5.96441e-19)
(0.000444535 20 -6.08685e-19)
(0.000444385 20 -5.96832e-19)
(0.000444234 20 -6.099e-19)
(0.000444084 20 -5.96773e-19)
(0.000443933 20 -6.08138e-19)
(0.000443782 20 -5.95101e-19)
(0.000443631 20 -6.08055e-19)
(0.00044348 20 -5.95312e-19)
(0.000443328 20 -6.08385e-19)
(0.000443177 20 -5.98149e-19)
(0.000443025 20 -6.11205e-19)
(0.000442873 20 -5.98518e-19)
(0.000442721 20 -6.09643e-19)
(0.000442569 20 -5.96569e-19)
(0.000442417 20 -6.09458e-19)
(0.000442264 20 -5.98101e-19)
(0.000442112 20 -6.10253e-19)
(0.000441959 20 -5.98713e-19)
(0.000441806 20 -6.09315e-19)
(0.000441653 20 -5.9717e-19)
(0.0004415 20 -6.10476e-19)
(0.000441347 20 -5.97904e-19)
(0.000441193 20 -6.11592e-19)
(0.00044104 20 -5.99228e-19)
(0.000440886 20 -6.10004e-19)
(0.000440732 20 -5.98237e-19)
(0.000440578 20 -6.10795e-19)
(0.000440424 20 -5.97629e-19)
(0.000440269 20 -6.09423e-19)
(0.000440115 20 -5.96634e-19)
(0.00043996 20 -6.07699e-19)
(0.000439805 20 -5.95635e-19)
(0.00043965 20 -6.0755e-19)
(0.000439495 20 -5.96052e-19)
(0.00043934 20 -6.0838e-19)
(0.000439184 20 -5.94581e-19)
(0.000439029 20 -6.05769e-19)
(0.000438873 20 -5.92497e-19)
(0.000438717 20 -6.04908e-19)
(0.000438561 20 -5.92109e-19)
(0.000438405 20 -6.04711e-19)
(0.000438249 20 -5.92082e-19)
(0.000438092 20 -6.05313e-19)
(0.000437936 20 -5.93035e-19)
(0.000437779 20 -6.04888e-19)
(0.000437622 20 -5.91288e-19)
(0.000437465 20 -6.03612e-19)
(0.000437308 20 -5.9077e-19)
(0.00043715 20 -6.03742e-19)
(0.000436993 20 -5.91367e-19)
(0.000436835 20 -6.03618e-19)
(0.000436677 20 -5.91444e-19)
(0.000436519 20 -6.02126e-19)
(0.000436361 20 -5.89157e-19)
(0.000436203 20 -6.01666e-19)
(0.000436044 20 -5.893e-19)
(0.000435886 20 -5.99879e-19)
(0.000435727 20 -5.86669e-19)
(0.000435568 20 -5.97048e-19)
(0.000435409 20 -5.84067e-19)
(0.000435249 20 -5.95862e-19)
(0.00043509 20 -5.81087e-19)
(0.00043493 20 -5.89402e-19)
(0.00043477 20 -5.73037e-19)
(0.00043461 20 -5.8044e-19)
(0.00043445 20 -5.64259e-19)
(0.000434289 20 -5.7311e-19)
(0.000434129 20 -5.55951e-19)
(0.000433967 20 -5.63567e-19)
(0.000433806 20 -5.45702e-19)
(0.000433644 20 -5.5272e-19)
(0.000433482 20 -5.43649e-19)
(0.000433317 20 -5.41371e-19)
(0.000450854 20 -1.54272e-19)
(0.000450714 20 -2.29394e-19)
(0.000450566 20 -1.55445e-19)
(0.00045042 20 -2.25283e-19)
(0.000450277 20 -1.66428e-19)
(0.000450134 20 -2.41981e-19)
(0.000449993 20 -1.69906e-19)
(0.000449852 20 -2.41969e-19)
(0.000449711 20 -1.85804e-19)
(0.000449571 20 -2.63019e-19)
(0.000449431 20 -2.07706e-19)
(0.00044929 20 -2.59774e-19)
(0.00044915 20 -2.71499e-19)
(0.00044901 20 -2.89119e-19)
(0.00044887 20 -3.53792e-19)
(0.000448729 20 -4.05082e-19)
(0.000448589 20 -4.84531e-19)
(0.000448449 20 -5.25919e-19)
(0.000448309 20 -5.82648e-19)
(0.000448168 20 -5.9986e-19)
(0.000448028 20 -6.35707e-19)
(0.000447887 20 -6.39306e-19)
(0.000447747 20 -6.65768e-19)
(0.000447606 20 -6.62675e-19)
(0.000447466 20 -6.86685e-19)
(0.000447325 20 -6.77827e-19)
(0.000447185 20 -6.95912e-19)
(0.000447045 20 -6.8703e-19)
(0.000446904 20 -7.03329e-19)
(0.000446764 20 -6.92141e-19)
(0.000446624 20 -7.07977e-19)
(0.000446484 20 -6.97473e-19)
(0.000446344 20 -7.12974e-19)
(0.000446204 20 -7.01109e-19)
(0.000446064 20 -7.16507e-19)
(0.000445925 20 -7.02677e-19)
(0.000445785 20 -7.16741e-19)
(0.000445646 20 -7.0436e-19)
(0.000445506 20 -7.1803e-19)
(0.000445367 20 -7.05206e-19)
(0.000445228 20 -7.19144e-19)
(0.000445089 20 -7.05296e-19)
(0.000444949 20 -7.21021e-19)
(0.00044481 20 -7.0846e-19)
(0.000444671 20 -7.22582e-19)
(0.000444531 20 -7.09777e-19)
(0.000444392 20 -7.22664e-19)
(0.000444252 20 -7.07442e-19)
(0.000444113 20 -7.19852e-19)
(0.000443973 20 -7.05912e-19)
(0.000443833 20 -7.19516e-19)
(0.000443693 20 -7.06889e-19)
(0.000443553 20 -7.19629e-19)
(0.000443413 20 -7.06708e-19)
(0.000443273 20 -7.20863e-19)
(0.000443133 20 -7.08511e-19)
(0.000442992 20 -7.21969e-19)
(0.000442852 20 -7.08753e-19)
(0.000442711 20 -7.21894e-19)
(0.00044257 20 -7.09343e-19)
(0.00044243 20 -7.23685e-19)
(0.000442288 20 -7.09451e-19)
(0.000442147 20 -7.24681e-19)