/*--------------------------------*- C++ -*----------------------------------*\
| =========                 |                                                 |
| \\      /  F ield         | OpenFOAM: The Open Source CFD Toolbox           |
|  \\    /   O peration     | Version:  2512                                  |
|   \\  /    A nd           | Website:  www.openfoam.com                      |
|    \\/     M anipulation  |                                                 |
\*---------------------------------------------------------------------------*/
FoamFile
{
    version     2.0;
    format      ascii;
    arch        "LSB;label=32;scalar=64";
    class       volScalarField;
    location    "0.1";
    object      p;
}
// * * * * * * * * * * * * * * * * * * * * * * * * * * * * * * * * * * * * * //

dimensions      [1 -1 -2 0 0 0 0];

internalField   nonuniform List<scalar> 
8333
(
-173.68
-174.351
-175.023
-175.697
-176.372
-177.048
-177.725
-178.403
-179.082
-179.763
-180.444
-181.126
-181.809
-182.494
-183.179
-183.865
-184.553
-185.241
-185.93
-186.621
-187.312
-188.004
-188.698
-189.392
-190.087
-190.783
-191.48
-192.178
-192.877
-193.577
-194.278
-194.98
-195.683
-196.387
-197.091
-197.797
-198.503
-199.21
-199.919
-200.628
-201.338
-202.049
-202.76
-203.473
-204.187
-204.901
-205.616
-206.332
-207.049
-207.767
-208.486
-209.205
-209.925
-210.647
-211.369
-212.091
-212.815
-213.539
-214.265
-214.991
-215.717
-216.445
-217.174
-217.903
-218.633
-219.364
-220.095
-220.828
-221.561
-222.295
-223.029
-223.765
-224.501
-225.238
-225.976
-226.714
-227.454
-228.193
-228.934
-229.676
-230.418
-231.161
-231.904
-232.648
-233.393
-234.139
-234.886
-235.633
-236.38
-237.129
-237.878
-238.628
-239.379
-240.13
-240.882
-241.634
-242.387
-243.141
-243.896
-244.651
-245.407
-246.163
-246.92
-247.678
-248.436
-249.195
-249.955
-250.715
-251.476
-252.237
-252.999
-253.762
-254.525
-255.289
-256.053
-256.818
-257.584
-258.35
-259.117
-259.884
-260.652
-261.42
-262.189
-262.959
-263.729
-264.499
-265.27
-266.042
-266.814
-267.587
-268.36
-269.134
-269.908
-270.682
-271.458
-272.233
-273.01
-273.786
-274.563
-275.341
-276.119
-276.898
-277.677
-278.456
-279.236
-280.017
-280.797
-281.579
-282.36
-283.142
-283.925
-284.708
-285.491
-286.275
-287.059
-287.844
-288.629
-289.415
-290.2
-290.987
-291.773
-292.56
-293.347
-294.135
-294.923
-295.712
-296.5
-297.289
-298.079
-298.869
-299.659
-300.449
-301.24
-302.031
-302.823
-303.614
-304.406
-305.199
-305.991
-306.784
-307.578
-308.371
-309.165
-309.959
-177.92
-178.592
-179.264
-179.938
-180.613
-181.289
-181.966
-182.644
-183.323
-184.004
-184.685
-185.367
-186.05
-186.735
-187.42
-188.106
-188.794
-189.482
-190.171
-190.862
-191.553
-192.245
-192.939
-193.633
-194.328
-195.024
-195.721
-196.42
-197.119
-197.819
-198.519
-199.221
-199.924
-200.628
-201.332
-202.038
-202.744
-203.452
-204.16
-204.869
-205.579
-206.29
-207.002
-207.714
-208.428
-209.142
-209.857
-210.573
-211.29
-212.008
-212.727
-213.446
-214.167
-214.888
-215.61
-216.332
-217.056
-217.781
-218.506
-219.232
-219.959
-220.686
-221.415
-222.144
-222.874
-223.605
-224.337
-225.069
-225.802
-226.536
-227.271
-228.006
-228.742
-229.479
-230.217
-230.956
-231.695
-232.435
-233.175
-233.917
-234.659
-235.402
-236.145
-236.89
-237.635
-238.38
-239.127
-239.874
-240.622
-241.37
-242.119
-242.869
-243.62
-244.371
-245.123
-245.875
-246.629
-247.382
-248.137
-248.892
-249.648
-250.404
-251.161
-251.919
-252.678
-253.437
-254.196
-254.956
-255.717
-256.479
-257.241
-258.003
-258.766
-259.53
-260.295
-261.06
-261.825
-262.591
-263.358
-264.125
-264.893
-265.662
-266.43
-267.2
-267.97
-268.741
-269.512
-270.283
-271.055
-271.828
-272.601
-273.375
-274.149
-274.924
-275.699
-276.475
-277.251
-278.028
-278.805
-279.582
-280.36
-281.139
-281.918
-282.698
-283.477
-284.258
-285.039
-285.82
-286.602
-287.384
-288.166
-288.949
-289.733
-290.517
-291.301
-292.085
-292.87
-293.656
-294.442
-295.228
-296.014
-296.801
-297.589
-298.376
-299.165
-299.953
-300.742
-301.531
-302.32
-303.11
-303.9
-304.691
-305.481
-306.273
-307.064
-307.856
-308.648
-309.44
-310.233
-311.026
-311.819
-312.612
-313.406
-314.2
-182.83
-183.503
-184.176
-184.851
-185.527
-186.204
-186.882
-187.562
-188.242
-188.923
-189.605
-190.289
-190.973
-191.658
-192.345
-193.032
-193.72
-194.41
-195.1
-195.791
-196.484
-197.177
-197.871
-198.566
-199.262
-199.96
-200.658
-201.357
-202.057
-202.758
-203.459
-204.162
-204.866
-205.57
-206.276
-206.982
-207.69
-208.398
-209.107
-209.817
-210.528
-211.24
-211.952
-212.666
-213.38
-214.095
-214.812
-215.528
-216.246
-216.965
-217.684
-218.405
-219.126
-219.848
-220.571
-221.294
-222.019
-222.744
-223.47
-224.197
-224.924
-225.653
-226.382
-227.112
-227.843
-228.575
-229.307
-230.04
-230.774
-231.509
-232.244
-232.98
-233.717
-234.455
-235.194
-235.933
-236.673
-237.413
-238.155
-238.897
-239.64
-240.383
-241.128
-241.873
-242.618
-243.365
-244.112
-244.86
-245.608
-246.357
-247.107
-247.858
-248.609
-249.361
-250.113
-250.867
-251.621
-252.375
-253.13
-253.886
-254.643
-255.4
-256.157
-256.916
-257.675
-258.434
-259.194
-259.955
-260.717
-261.479
-262.241
-263.005
-263.768
-264.533
-265.298
-266.063
-266.829
-267.596
-268.363
-269.131
-269.9
-270.669
-271.438
-272.208
-272.979
-273.75
-274.521
-275.293
-276.066
-276.839
-277.613
-278.387
-279.162
-279.937
-280.713
-281.489
-282.266
-283.043
-283.82
-284.599
-285.377
-286.156
-286.936
-287.716
-288.496
-289.277
-290.058
-290.84
-291.622
-292.404
-293.187
-293.971
-294.755
-295.539
-296.323
-297.109
-297.894
-298.68
-299.466
-300.253
-301.039
-301.827
-302.615
-303.403
-304.191
-304.98
-305.769
-306.558
-307.348
-308.138
-308.929
-309.719
-310.511
-311.302
-312.094
-312.886
-313.678
-314.471
-315.264
-316.057
-316.85
-317.644
-318.438
-187.74
-188.414
-189.089
-189.765
-190.442
-191.12
-191.8
-192.48
-193.161
-193.843
-194.527
-195.211
-195.896
-196.583
-197.27
-197.958
-198.648
-199.338
-200.029
-200.721
-201.415
-202.109
-202.804
-203.5
-204.198
-204.896
-205.595
-206.295
-206.995
-207.697
-208.4
-209.104
-209.808
-210.514
-211.22
-211.928
-212.636
-213.345
-214.055
-214.766
-215.478
-216.19
-216.904
-217.618
-218.333
-219.049
-219.766
-220.484
-221.203
-221.922
-222.643
-223.364
-224.086
-224.809
-225.532
-226.257
-226.982
-227.708
-228.435
-229.162
-229.891
-230.62
-231.35
-232.081
-232.813
-233.545
-234.278
-235.012
-235.747
-236.482
-237.218
-237.955
-238.693
-239.432
-240.171
-240.911
-241.651
-242.393
-243.135
-243.878
-244.621
-245.366
-246.111
-246.856
-247.603
-248.35
-249.098
-249.846
-250.595
-251.345
-252.096
-252.847
-253.599
-254.351
-255.105
-255.858
-256.613
-257.368
-258.124
-258.88
-259.638
-260.395
-261.154
-261.913
-262.672
-263.432
-264.193
-264.955
-265.717
-266.479
-267.243
-268.006
-268.771
-269.536
-270.301
-271.067
-271.834
-272.601
-273.369
-274.138
-274.906
-275.676
-276.446
-277.217
-277.988
-278.759
-279.531
-280.304
-281.077
-281.851
-282.625
-283.4
-284.175
-284.951
-285.727
-286.504
-287.281
-288.058
-288.836
-289.615
-290.394
-291.174
-291.953
-292.734
-293.515
-294.296
-295.078
-295.86
-296.642
-297.425
-298.209
-298.993
-299.777
-300.561
-301.346
-302.132
-302.918
-303.704
-304.49
-305.277
-306.065
-306.852
-307.64
-308.429
-309.218
-310.007
-310.796
-311.586
-312.376
-313.167
-313.957
-314.749
-315.54
-316.332
-317.124
-317.916
-318.709
-319.502
-320.295
-321.088
-321.882
-322.676
-192.652
-193.327
-194.003
-194.68
-195.358
-196.037
-196.718
-197.399
-198.081
-198.764
-199.449
-200.134
-200.82
-201.508
-202.196
-202.885
-203.576
-204.267
-204.959
-205.653
-206.347
-207.042
-207.738
-208.435
-209.134
-209.833
-210.533
-211.233
-211.935
-212.638
-213.342
-214.046
-214.752
-215.458
-216.166
-216.874
-217.583
-218.293
-219.004
-219.716
-220.428
-221.142
-221.856
-222.571
-223.287
-224.004
-224.722
-225.441
-226.16
-226.881
-227.602
-228.324
-229.046
-229.77
-230.495
-231.22
-231.946
-232.673
-233.4
-234.129
-234.858
-235.588
-236.319
-237.051
-237.783
-238.516
-239.25
-239.985
-240.72
-241.456
-242.193
-242.931
-243.669
-244.409
-245.149
-245.889
-246.631
-247.373
-248.116
-248.859
-249.604
-250.349
-251.094
-251.841
-252.588
-253.336
-254.084
-254.833
-255.583
-256.334
-257.085
-257.837
-258.589
-259.343
-260.096
-260.851
-261.606
-262.362
-263.118
-263.875
-264.633
-265.392
-266.151
-266.91
-267.67
-268.431
-269.193
-269.955
-270.717
-271.48
-272.244
-273.009
-273.774
-274.539
-275.305
-276.072
-276.839
-277.607
-278.375
-279.144
-279.914
-280.684
-281.454
-282.226
-282.997
-283.769
-284.542
-285.315
-286.089
-286.863
-287.638
-288.413
-289.189
-289.965
-290.741
-291.519
-292.296
-293.074
-293.853
-294.632
-295.411
-296.191
-296.972
-297.753
-298.534
-299.316
-300.098
-300.88
-301.663
-302.447
-303.23
-304.015
-304.799
-305.584
-306.37
-307.156
-307.942
-308.728
-309.515
-310.303
-311.09
-311.878
-312.667
-313.456
-314.245
-315.034
-315.824
-316.614
-317.405
-318.195
-318.986
-319.778
-320.57
-321.362
-322.154
-322.947
-323.74
-324.533
-325.326
-326.12
-326.914
-196.89
-197.565
-198.241
-198.918
-199.596
-200.275
-200.956
-201.637
-202.319
-203.002
-203.687
-204.372
-205.058
-205.746
-206.434
-207.123
-207.814
-208.505
-209.197
-209.891
-210.585
-211.28
-211.976
-212.673
-213.371
-214.07
-214.77
-215.471
-216.173
-216.876
-217.58
-218.284
-218.99
-219.696
-220.403
-221.112
-221.821
-222.531
-223.242
-223.953
-224.666
-225.38
-226.094
-226.809
-227.525
-228.242
-228.96
-229.679
-230.398
-231.118
-231.84
-232.562
-233.284
-234.008
-234.732
-235.458
-236.184
-236.911
-237.638
-238.367
-239.096
-239.826
-240.557
-241.288
-242.021
-242.754
-243.488
-244.223
-244.958
-245.694
-246.431
-247.169
-247.907
-248.647
-249.387
-250.127
-250.869
-251.611
-252.354
-253.097
-253.842
-254.587
-255.332
-256.079
-256.826
-257.574
-258.322
-259.071
-259.821
-260.572
-261.323
-262.075
-262.827
-263.58
-264.334
-265.089
-265.844
-266.6
-267.356
-268.113
-268.871
-269.629
-270.388
-271.148
-271.908
-272.669
-273.43
-274.193
-274.955
-275.718
-276.482
-277.247
-278.012
-278.777
-279.543
-280.31
-281.077
-281.845
-282.613
-283.382
-284.152
-284.922
-285.692
-286.463
-287.235
-288.007
-288.78
-289.553
-290.327
-291.101
-291.876
-292.651
-293.427
-294.203
-294.979
-295.757
-296.534
-297.312
-298.091
-298.87
-299.649
-300.429
-301.21
-301.991
-302.772
-303.553
-304.336
-305.118
-305.901
-306.685
-307.468
-308.253
-309.037
-309.822
-310.608
-311.394
-312.18
-312.966
-313.753
-314.541
-315.328
-316.116
-316.905
-317.694
-318.483
-319.272
-320.062
-320.852
-321.642
-322.433
-323.224
-324.016
-324.808
-325.6
-326.392
-327.185
-327.977
-328.771
-329.564
-330.358
-331.152
-201.803
-202.479
-203.156
-203.834
-204.513
-205.193
-205.875
-206.557
-207.24
-207.925
-208.61
-209.296
-209.984
-210.672
-211.361
-212.052
-212.743
-213.435
-214.128
-214.823
-215.518
-216.214
-216.911
-217.609
-218.308
-219.008
-219.709
-220.411
-221.114
-221.818
-222.522
-223.228
-223.934
-224.641
-225.35
-226.059
-226.769
-227.48
-228.191
-228.904
-229.618
-230.332
-231.047
-231.763
-232.48
-233.198
-233.917
-234.636
-235.356
-236.078
-236.8
-237.522
-238.246
-238.97
-239.696
-240.422
-241.149
-241.876
-242.605
-243.334
-244.064
-244.795
-245.526
-246.259
-246.992
-247.726
-248.461
-249.196
-249.932
-250.669
-251.407
-252.145
-252.885
-253.624
-254.365
-255.107
-255.849
-256.592
-257.335
-258.079
-258.824
-259.57
-260.317
-261.064
-261.811
-262.56
-263.309
-264.059
-264.81
-265.561
-266.313
-267.065
-267.818
-268.572
-269.327
-270.082
-270.838
-271.594
-272.351
-273.109
-273.867
-274.626
-275.386
-276.146
-276.907
-277.668
-278.43
-279.193
-279.956
-280.72
-281.484
-282.249
-283.015
-283.781
-284.548
-285.315
-286.083
-286.851
-287.62
-288.39
-289.16
-289.93
-290.701
-291.473
-292.245
-293.018
-293.791
-294.565
-295.339
-296.114
-296.889
-297.664
-298.441
-299.217
-299.994
-300.772
-301.55
-302.329
-303.108
-303.887
-304.667
-305.448
-306.228
-307.01
-307.791
-308.574
-309.356
-310.139
-310.922
-311.706
-312.491
-313.275
-314.06
-314.846
-315.631
-316.418
-317.204
-317.991
-318.778
-319.566
-320.354
-321.143
-321.931
-322.721
-323.51
-324.3
-325.09
-325.88
-326.671
-327.462
-328.254
-329.045
-329.837
-330.63
-331.422
-332.215
-333.009
-333.802
-334.596
-335.39
-206.717
-207.394
-208.072
-208.751
-209.431
-210.113
-210.795
-211.478
-212.162
-212.848
-213.534
-214.221
-214.91
-215.599
-216.289
-216.981
-217.673
-218.366
-219.061
-219.756
-220.452
-221.149
-221.847
-222.546
-223.246
-223.947
-224.649
-225.352
-226.055
-226.76
-227.466
-228.172
-228.879
-229.588
-230.297
-231.007
-231.718
-232.429
-233.142
-233.855
-234.57
-235.285
-236.001
-236.718
-237.436
-238.155
-238.874
-239.594
-240.315
-241.037
-241.76
-242.484
-243.208
-243.934
-244.66
-245.386
-246.114
-246.843
-247.572
-248.302
-249.033
-249.764
-250.497
-251.23
-251.964
-252.698
-253.434
-254.17
-254.907
-255.645
-256.383
-257.122
-257.862
-258.603
-259.344
-260.087
-260.829
-261.573
-262.317
-263.062
-263.808
-264.554
-265.302
-266.049
-266.798
-267.547
-268.297
-269.047
-269.799
-270.551
-271.303
-272.056
-272.81
-273.565
-274.32
-275.076
-275.832
-276.589
-277.347
-278.105
-278.864
-279.624
-280.384
-281.145
-281.906
-282.668
-283.431
-284.194
-284.958
-285.722
-286.487
-287.253
-288.019
-288.786
-289.553
-290.321
-291.089
-291.858
-292.628
-293.398
-294.168
-294.939
-295.711
-296.483
-297.256
-298.029
-298.803
-299.577
-300.351
-301.127
-301.902
-302.679
-303.455
-304.232
-305.01
-305.788
-306.567
-307.346
-308.125
-308.905
-309.686
-310.466
-311.248
-312.029
-312.811
-313.594
-314.377
-315.16
-315.944
-316.728
-317.513
-318.298
-319.084
-319.869
-320.656
-321.442
-322.229
-323.016
-323.804
-324.592
-325.381
-326.169
-326.958
-327.748
-328.538
-329.328
-330.118
-330.909
-331.7
-332.492
-333.283
-334.075
-334.868
-335.66
-336.453
-337.247
-338.04
-338.834
-339.628
-210.955
-211.632
-212.31
-212.989
-213.669
-214.35
-215.033
-215.716
-216.4
-217.086
-217.772
-218.459
-219.148
-219.837
-220.527
-221.219
-221.911
-222.604
-223.298
-223.994
-224.69
-225.387
-226.085
-226.784
-227.484
-228.185
-228.887
-229.59
-230.293
-230.998
-231.703
-232.41
-233.117
-233.825
-234.535
-235.245
-235.955
-236.667
-237.38
-238.093
-238.808
-239.523
-240.239
-240.956
-241.674
-242.392
-243.112
-243.832
-244.553
-245.275
-245.998
-246.722
-247.446
-248.171
-248.897
-249.624
-250.352
-251.08
-251.81
-252.54
-253.271
-254.002
-254.735
-255.468
-256.202
-256.936
-257.672
-258.408
-259.145
-259.883
-260.621
-261.36
-262.1
-262.841
-263.582
-264.325
-265.067
-265.811
-266.555
-267.3
-268.046
-268.792
-269.54
-270.287
-271.036
-271.785
-272.535
-273.285
-274.037
-274.788
-275.541
-276.294
-277.048
-277.803
-278.558
-279.314
-280.07
-280.827
-281.585
-282.343
-283.102
-283.862
-284.622
-285.383
-286.144
-286.906
-287.669
-288.432
-289.196
-289.96
-290.725
-291.491
-292.257
-293.024
-293.791
-294.559
-295.327
-296.096
-296.866
-297.636
-298.406
-299.177
-299.949
-300.721
-301.494
-302.267
-303.041
-303.815
-304.589
-305.365
-306.14
-306.916
-307.693
-308.47
-309.248
-310.026
-310.805
-311.584
-312.363
-313.143
-313.923
-314.704
-315.486
-316.267
-317.049
-317.832
-318.615
-319.398
-320.182
-320.966
-321.751
-322.536
-323.321
-324.107
-324.893
-325.68
-326.467
-327.254
-328.042
-328.83
-329.618
-330.407
-331.196
-331.986
-332.776
-333.566
-334.356
-335.147
-335.938
-336.73
-337.521
-338.313
-339.106
-339.898
-340.691
-341.484
-342.278
-343.072
-343.866
-215.869
-216.548
-217.227
-217.907
-218.588
-219.271
-219.954
-220.638
-221.323
-222.01
-222.697
-223.386
-224.075
-224.765
-225.457
-226.149
-226.842
-227.536
-228.232
-228.928
-229.625
-230.323
-231.022
-231.722
-232.423
-233.125
-233.828
-234.531
-235.236
-235.941
-236.648
-237.355
-238.063
-238.772
-239.482
-240.193
-240.905
-241.618
-242.331
-243.046
-243.761
-244.477
-245.194
-245.912
-246.63
-247.35
-248.07
-248.791
-249.513
-250.236
-250.96
-251.684
-252.409
-253.135
-253.862
-254.59
-255.318
-256.048
-256.778
-257.508
-258.24
-258.972
-259.706
-260.44
-261.174
-261.91
-262.646
-263.383
-264.121
-264.859
-265.598
-266.338
-267.079
-267.82
-268.562
-269.305
-270.049
-270.793
-271.538
-272.284
-273.03
-273.777
-274.525
-275.274
-276.023
-276.773
-277.523
-278.274
-279.026
-279.779
-280.532
-281.286
-282.041
-282.796
-283.552
-284.308
-285.065
-285.823
-286.581
-287.34
-288.1
-288.86
-289.621
-290.382
-291.144
-291.907
-292.67
-293.434
-294.198
-294.963
-295.729
-296.495
-297.262
-298.029
-298.797
-299.565
-300.334
-301.103
-301.873
-302.644
-303.415
-304.187
-304.959
-305.732
-306.505
-307.278
-308.053
-308.827
-309.603
-310.378
-311.154
-311.931
-312.708
-313.486
-314.264
-315.042
-315.822
-316.601
-317.381
-318.161
-318.942
-319.723
-320.505
-321.287
-322.07
-322.853
-323.636
-324.42
-325.204
-325.989
-326.774
-327.559
-328.345
-329.131
-329.918
-330.705
-331.492
-332.28
-333.068
-333.856
-334.645
-335.434
-336.224
-337.014
-337.804
-338.594
-339.385
-340.176
-340.967
-341.759
-342.551
-343.344
-344.136
-344.929
-345.722
-346.516
-347.31
-348.104
-220.785
-221.465
-222.145
-222.826
-223.508
-224.192
-224.876
-225.561
-226.248
-226.935
-227.623
-228.313
-229.003
-229.694
-230.387
-231.08
-231.774
-232.469
-233.166
-233.863
-234.561
-235.26
-235.96
-236.661
-237.363
-238.065
-238.769
-239.474
-240.179
-240.886
-241.593
-242.301
-243.01
-243.72
-244.431
-245.143
-245.856
-246.569
-247.284
-247.999
-248.715
-249.432
-250.15
-250.868
-251.588
-252.308
-253.029
-253.751
-254.474
-255.198
-255.922
-256.647
-257.373
-258.1
-258.828
-259.556
-260.286
-261.016
-261.746
-262.478
-263.21
-263.944
-264.677
-265.412
-266.148
-266.884
-267.621
-268.359
-269.097
-269.836
-270.576
-271.317
-272.058
-272.8
-273.543
-274.287
-275.031
-275.776
-276.522
-277.268
-278.015
-278.763
-279.512
-280.261
-281.011
-281.761
-282.512
-283.264
-284.017
-284.77
-285.524
-286.278
-287.034
-287.789
-288.546
-289.303
-290.061
-290.819
-291.578
-292.338
-293.098
-293.859
-294.62
-295.382
-296.145
-296.908
-297.672
-298.436
-299.201
-299.967
-300.733
-301.5
-302.267
-303.035
-303.803
-304.572
-305.341
-306.111
-306.882
-307.653
-308.425
-309.197
-309.969
-310.743
-311.516
-312.291
-313.065
-313.84
-314.616
-315.392
-316.169
-316.946
-317.724
-318.502
-319.28
-320.059
-320.839
-321.619
-322.399
-323.18
-323.961
-324.743
-325.525
-326.308
-327.091
-327.874
-328.658
-329.442
-330.227
-331.012
-331.797
-332.583
-333.369
-334.156
-334.943
-335.73
-336.518
-337.306
-338.094
-338.883
-339.672
-340.462
-341.251
-342.042
-342.832
-343.623
-344.414
-345.205
-345.997
-346.789
-347.581
-348.374
-349.167
-349.96
-350.754
-351.548
-352.342
-225.702
-226.383
-227.064
-227.746
-228.429
-229.114
-229.799
-230.486
-231.173
-231.861
-232.551
-233.241
-233.932
-234.625
-235.318
-236.012
-236.707
-237.403
-238.101
-238.799
-239.498
-240.198
-240.899
-241.601
-242.303
-243.007
-243.712
-244.417
-245.124
-245.831
-246.539
-247.248
-247.958
-248.669
-249.381
-250.094
-250.807
-251.521
-252.237
-252.953
-253.67
-254.388
-255.106
-255.826
-256.546
-257.267
-257.989
-258.712
-259.435
-260.16
-260.885
-261.611
-262.338
-263.066
-263.794
-264.523
-265.253
-265.984
-266.716
-267.448
-268.181
-268.915
-269.65
-270.386
-271.122
-271.859
-272.596
-273.335
-274.074
-274.814
-275.555
-276.296
-277.038
-277.781
-278.525
-279.269
-280.014
-280.76
-281.506
-282.253
-283.001
-283.75
-284.499
-285.249
-285.999
-286.75
-287.502
-288.255
-289.008
-289.762
-290.516
-291.272
-292.027
-292.784
-293.541
-294.299
-295.057
-295.816
-296.576
-297.336
-298.097
-298.858
-299.62
-300.383
-301.146
-301.91
-302.674
-303.439
-304.205
-304.971
-305.737
-306.505
-307.272
-308.041
-308.81
-309.579
-310.349
-311.12
-311.891
-312.663
-313.435
-314.207
-314.981
-315.754
-316.528
-317.303
-318.078
-318.854
-319.63
-320.407
-321.184
-321.962
-322.74
-323.518
-324.297
-325.077
-325.857
-326.637
-327.418
-328.199
-328.981
-329.763
-330.546
-331.329
-332.112
-332.896
-333.68
-334.465
-335.25
-336.035
-336.821
-337.607
-338.394
-339.181
-339.968
-340.756
-341.544
-342.332
-343.121
-343.91
-344.7
-345.489
-346.279
-347.07
-347.861
-348.652
-349.443
-350.235
-351.027
-351.819
-352.612
-353.405
-354.198
-354.992
-355.785
-356.58
-229.94
-230.62
-231.302
-231.984
-232.667
-233.352
-234.037
-234.723
-235.411
-236.099
-236.788
-237.479
-238.17
-238.862
-239.556
-240.25
-240.945
-241.641
-242.338
-243.037
-243.736
-244.436
-245.137
-245.838
-246.541
-247.245
-247.949
-248.655
-249.361
-250.069
-250.777
-251.486
-252.196
-252.907
-253.619
-254.331
-255.045
-255.759
-256.475
-257.191
-257.908
-258.625
-259.344
-260.064
-260.784
-261.505
-262.227
-262.95
-263.673
-264.398
-265.123
-265.849
-266.576
-267.304
-268.032
-268.761
-269.491
-270.222
-270.954
-271.686
-272.419
-273.153
-273.888
-274.623
-275.36
-276.097
-276.834
-277.573
-278.312
-279.052
-279.793
-280.534
-281.276
-282.019
-282.763
-283.507
-284.252
-284.998
-285.744
-286.491
-287.239
-287.987
-288.737
-289.486
-290.237
-290.988
-291.74
-292.493
-293.246
-294
-294.754
-295.509
-296.265
-297.022
-297.779
-298.536
-299.295
-300.054
-300.813
-301.574
-302.334
-303.096
-303.858
-304.621
-305.384
-306.148
-306.912
-307.677
-308.442
-309.209
-309.975
-310.743
-311.51
-312.279
-313.048
-313.817
-314.587
-315.358
-316.129
-316.9
-317.673
-318.445
-319.218
-319.992
-320.766
-321.541
-322.316
-323.092
-323.868
-324.645
-325.422
-326.2
-326.978
-327.756
-328.535
-329.315
-330.095
-330.875
-331.656
-332.437
-333.219
-334.001
-334.784
-335.567
-336.35
-337.134
-337.918
-338.703
-339.488
-340.273
-341.059
-341.845
-342.632
-343.419
-344.206
-344.994
-345.782
-346.57
-347.359
-348.148
-348.937
-349.727
-350.517
-351.308
-352.099
-352.89
-353.681
-354.473
-355.265
-356.057
-356.85
-357.643
-358.436
-359.23
-360.023
-360.817
-234.858
-235.539
-236.222
-236.905
-237.589
-238.275
-238.961
-239.649
-240.337
-241.026
-241.717
-242.408
-243.1
-243.794
-244.488
-245.183
-245.879
-246.576
-247.274
-247.973
-248.673
-249.374
-250.076
-250.779
-251.483
-252.187
-252.893
-253.599
-254.307
-255.015
-255.724
-256.434
-257.145
-257.857
-258.569
-259.283
-259.997
-260.712
-261.429
-262.146
-262.863
-263.582
-264.301
-265.022
-265.743
-266.465
-267.188
-267.911
-268.636
-269.361
-270.087
-270.814
-271.542
-272.27
-272.999
-273.729
-274.46
-275.192
-275.924
-276.657
-277.391
-278.126
-278.861
-279.598
-280.335
-281.072
-281.811
-282.55
-283.29
-284.031
-284.772
-285.514
-286.257
-287.001
-287.745
-288.49
-289.236
-289.982
-290.729
-291.477
-292.225
-292.975
-293.724
-294.475
-295.226
-295.978
-296.731
-297.484
-298.238
-298.992
-299.747
-300.503
-301.26
-302.017
-302.774
-303.533
-304.292
-305.051
-305.812
-306.572
-307.334
-308.096
-308.858
-309.622
-310.385
-311.15
-311.915
-312.68
-313.447
-314.213
-314.98
-315.748
-316.517
-317.286
-318.055
-318.825
-319.596
-320.367
-321.138
-321.911
-322.683
-323.456
-324.23
-325.004
-325.779
-326.554
-327.33
-328.106
-328.883
-329.66
-330.437
-331.216
-331.994
-332.773
-333.553
-334.333
-335.113
-335.894
-336.675
-337.457
-338.239
-339.021
-339.804
-340.588
-341.372
-342.156
-342.941
-343.726
-344.511
-345.297
-346.083
-346.87
-347.657
-348.444
-349.232
-350.02
-350.808
-351.597
-352.386
-353.175
-353.965
-354.755
-355.546
-356.337
-357.128
-357.919
-358.711
-359.503
-360.295
-361.088
-361.881
-362.674
-363.468
-364.261
-365.055
-239.777
-240.46
-241.143
-241.827
-242.513
-243.199
-243.886
-244.575
-245.264
-245.954
-246.646
-247.338
-248.031
-248.726
-249.421
-250.117
-250.814
-251.512
-252.211
-252.911
-253.612
-254.314
-255.017
-255.721
-256.425
-257.131
-257.837
-258.545
-259.253
-259.962
-260.672
-261.383
-262.095
-262.807
-263.521
-264.235
-264.95
-265.666
-266.383
-267.101
-267.82
-268.539
-269.26
-269.981
-270.703
-271.426
-272.149
-272.874
-273.599
-274.325
-275.052
-275.779
-276.508
-277.237
-277.967
-278.698
-279.43
-280.162
-280.895
-281.629
-282.364
-283.099
-283.835
-284.572
-285.31
-286.049
-286.788
-287.528
-288.268
-289.01
-289.752
-290.495
-291.238
-291.983
-292.728
-293.473
-294.22
-294.967
-295.715
-296.463
-297.212
-297.962
-298.713
-299.464
-300.216
-300.968
-301.722
-302.476
-303.23
-303.985
-304.741
-305.497
-306.255
-307.012
-307.771
-308.53
-309.289
-310.049
-310.81
-311.572
-312.334
-313.096
-313.86
-314.623
-315.388
-316.153
-316.918
-317.684
-318.451
-319.218
-319.986
-320.755
-321.524
-322.293
-323.063
-323.834
-324.605
-325.376
-326.148
-326.921
-327.694
-328.468
-329.242
-330.017
-330.792
-331.568
-332.344
-333.121
-333.898
-334.675
-335.453
-336.232
-337.011
-337.791
-338.57
-339.351
-340.132
-340.913
-341.695
-342.477
-343.259
-344.042
-344.826
-345.61
-346.394
-347.178
-347.963
-348.749
-349.535
-350.321
-351.108
-351.894
-352.682
-353.469
-354.258
-355.046
-355.835
-356.624
-357.413
-358.203
-358.993
-359.784
-360.574
-361.366
-362.157
-362.949
-363.741
-364.533
-365.326
-366.119
-366.912
-367.705
-368.499
-369.293
-244.697
-245.381
-246.065
-246.75
-247.437
-248.124
-248.813
-249.502
-250.192
-250.884
-251.576
-252.269
-252.963
-253.659
-254.355
-255.052
-255.75
-256.449
-257.149
-257.85
-258.552
-259.255
-259.958
-260.663
-261.369
-262.075
-262.782
-263.491
-264.2
-264.91
-265.621
-266.332
-267.045
-267.759
-268.473
-269.188
-269.904
-270.621
-271.339
-272.058
-272.777
-273.498
-274.219
-274.941
-275.663
-276.387
-277.112
-277.837
-278.563
-279.29
-280.017
-280.746
-281.475
-282.205
-282.936
-283.668
-284.4
-285.133
-285.867
-286.602
-287.337
-288.073
-288.81
-289.548
-290.287
-291.026
-291.766
-292.506
-293.248
-293.99
-294.733
-295.476
-296.221
-296.966
-297.711
-298.458
-299.205
-299.953
-300.701
-301.45
-302.2
-302.951
-303.702
-304.454
-305.206
-305.96
-306.713
-307.468
-308.223
-308.979
-309.735
-310.492
-311.25
-312.009
-312.768
-313.527
-314.287
-315.048
-315.81
-316.572
-317.334
-318.097
-318.861
-319.626
-320.391
-321.156
-321.922
-322.689
-323.456
-324.224
-324.992
-325.761
-326.531
-327.301
-328.071
-328.843
-329.614
-330.386
-331.159
-331.932
-332.706
-333.48
-334.255
-335.03
-335.806
-336.582
-337.359
-338.136
-338.913
-339.691
-340.47
-341.249
-342.028
-342.808
-343.589
-344.37
-345.151
-345.933
-346.715
-347.497
-348.28
-349.064
-349.848
-350.632
-351.416
-352.201
-352.987
-353.773
-354.559
-355.345
-356.132
-356.92
-357.707
-358.495
-359.284
-360.073
-360.862
-361.651
-362.441
-363.231
-364.022
-364.812
-365.603
-366.395
-367.187
-367.979
-368.771
-369.564
-370.357
-371.15
-371.943
-372.737
-373.531
-248.935
-249.619
-250.303
-250.988
-251.675
-252.362
-253.05
-253.74
-254.43
-255.121
-255.814
-256.507
-257.201
-257.896
-258.593
-259.29
-259.988
-260.687
-261.387
-262.088
-262.79
-263.493
-264.196
-264.901
-265.606
-266.313
-267.02
-267.729
-268.438
-269.148
-269.859
-270.57
-271.283
-271.997
-272.711
-273.426
-274.142
-274.859
-275.577
-276.296
-277.015
-277.735
-278.457
-279.179
-279.901
-280.625
-281.349
-282.075
-282.801
-283.528
-284.255
-284.984
-285.713
-286.443
-287.174
-287.905
-288.638
-289.371
-290.105
-290.84
-291.575
-292.311
-293.048
-293.786
-294.524
-295.264
-296.004
-296.744
-297.486
-298.228
-298.971
-299.714
-300.459
-301.204
-301.949
-302.696
-303.443
-304.191
-304.939
-305.688
-306.438
-307.189
-307.94
-308.692
-309.444
-310.197
-310.951
-311.706
-312.461
-313.217
-313.973
-314.73
-315.488
-316.246
-317.005
-317.765
-318.525
-319.286
-320.047
-320.81
-321.572
-322.335
-323.099
-323.864
-324.629
-325.394
-326.16
-326.927
-327.694
-328.462
-329.23
-329.999
-330.769
-331.539
-332.309
-333.08
-333.852
-334.624
-335.397
-336.17
-336.944
-337.718
-338.493
-339.268
-340.044
-340.82
-341.596
-342.374
-343.151
-343.929
-344.708
-345.487
-346.266
-347.046
-347.827
-348.608
-349.389
-350.17
-350.953
-351.735
-352.518
-353.302
-354.085
-354.87
-355.654
-356.439
-357.225
-358.011
-358.797
-359.583
-360.37
-361.158
-361.945
-362.733
-363.522
-364.311
-365.1
-365.889
-366.679
-367.469
-368.26
-369.05
-369.841
-370.633
-371.425
-372.217
-373.009
-373.802
-374.595
-375.388
-376.181
-376.975
-377.769
-253.856
-254.541
-255.226
-255.912
-256.6
-257.288
-257.977
-258.668
-259.359
-260.052
-260.745
-261.439
-262.134
-262.831
-263.528
-264.226
-264.925
-265.625
-266.326
-267.028
-267.73
-268.434
-269.139
-269.844
-270.551
-271.258
-271.966
-272.676
-273.386
-274.096
-274.808
-275.521
-276.234
-276.949
-277.664
-278.38
-279.097
-279.815
-280.534
-281.253
-281.973
-282.694
-283.416
-284.139
-284.863
-285.587
-286.313
-287.039
-287.765
-288.493
-289.222
-289.951
-290.681
-291.412
-292.143
-292.876
-293.609
-294.343
-295.077
-295.813
-296.549
-297.286
-298.024
-298.762
-299.501
-300.241
-300.982
-301.724
-302.466
-303.209
-303.952
-304.696
-305.441
-306.187
-306.934
-307.681
-308.428
-309.177
-309.926
-310.676
-311.426
-312.178
-312.93
-313.682
-314.435
-315.189
-315.944
-316.699
-317.455
-318.211
-318.968
-319.726
-320.484
-321.243
-322.003
-322.763
-323.524
-324.285
-325.047
-325.81
-326.573
-327.337
-328.101
-328.866
-329.632
-330.398
-331.165
-331.932
-332.7
-333.468
-334.237
-335.007
-335.777
-336.547
-337.318
-338.09
-338.862
-339.635
-340.408
-341.182
-341.956
-342.731
-343.506
-344.281
-345.058
-345.834
-346.611
-347.389
-348.167
-348.946
-349.725
-350.504
-351.284
-352.065
-352.845
-353.627
-354.408
-355.191
-355.973
-356.756
-357.539
-358.323
-359.108
-359.892
-360.677
-361.463
-362.248
-363.035
-363.821
-364.608
-365.396
-366.183
-366.971
-367.76
-368.548
-369.338
-370.127
-370.917
-371.707
-372.497
-373.288
-374.079
-374.871
-375.662
-376.455
-377.247
-378.04
-378.832
-379.626
-380.419
-381.213
-382.007
-258.778
-259.464
-260.15
-260.838
-261.526
-262.215
-262.906
-263.597
-264.289
-264.983
-265.677
-266.372
-267.068
-267.765
-268.464
-269.163
-269.863
-270.564
-271.265
-271.968
-272.672
-273.377
-274.082
-274.789
-275.496
-276.204
-276.913
-277.623
-278.334
-279.046
-279.759
-280.472
-281.187
-281.902
-282.618
-283.335
-284.053
-284.771
-285.491
-286.211
-286.932
-287.654
-288.377
-289.101
-289.825
-290.55
-291.276
-292.003
-292.731
-293.459
-294.189
-294.919
-295.65
-296.381
-297.114
-297.847
-298.581
-299.315
-300.051
-300.787
-301.524
-302.262
-303
-303.739
-304.479
-305.22
-305.961
-306.704