/*--------------------------------*- C++ -*----------------------------------*\
| =========                 |                                                 |
| \\      /  F ield         | OpenFOAM: The Open Source CFD Toolbox           |
|  \\    /   O peration     | Version:  2512                                  |
|   \\  /    A nd           | Website:  www.openfoam.com                      |
|    \\/     M anipulation  |                                                 |
\*---------------------------------------------------------------------------*/
FoamFile
{
    version     2.0;
    format      ascii;
    arch        "LSB;label=32;scalar=64";
    class       volScalarField;
    location    "0.1";
    object      pB;
}
// * * * * * * * * * * * * * * * * * * * * * * * * * * * * * * * * * * * * * //

dimensions      [1 1 -3 0 0 -1 0];

internalField   nonuniform List<scalar> 
8333
(
1.74757
1.68989
1.63241
1.57525
1.51823
1.46127
1.4044
1.34763
1.29099
1.2345
1.17819
1.12205
1.0661
1.01035
0.954805
0.899459
0.844326
0.789407
0.734703
0.680219
0.625949
0.571894
0.518055
0.464423
0.410994
0.357756
0.304698
0.251812
0.199089
0.146513
0.0940702
0.0417459
-0.0104781
-0.0626165
-0.114689
-0.166717
-0.218719
-0.27071
-0.322708
-0.374729
-0.426789
-0.478901
-0.531075
-0.58332
-0.635642
-0.68805
-0.740549
-0.79314
-0.845825
-0.898605
-0.951481
-1.00445
-1.05752
-1.11068
-1.16392
-1.21726
-1.27068
-1.32418
-1.37776
-1.43141
-1.48514
-1.53893
-1.59279
-1.64671
-1.70069
-1.75472
-1.8088
-1.86293
-1.9171
-1.97131
-2.02555
-2.07983
-2.13414
-2.18848
-2.24285
-2.29724
-2.35165
-2.40607
-2.46051
-2.51496
-2.56943
-2.6239
-2.67838
-2.73286
-2.78734
-2.84183
-2.89631
-2.95079
-3.00526
-3.05973
-3.11418
-3.16863
-3.22307
-3.2775
-3.33191
-3.38631
-3.44069
-3.49505
-3.5494
-3.60373
-3.65804
-3.71232
-3.76658
-3.82082
-3.87503
-3.92922
-3.98338
-4.03752
-4.09162
-4.1457
-4.19975
-4.25378
-4.30777
-4.36174
-4.41567
-4.46957
-4.52344
-4.57728
-4.63109
-4.68486
-4.73861
-4.79232
-4.84599
-4.89964
-4.95325
-5.00683
-5.06037
-5.11389
-5.16737
-5.22082
-5.27424
-5.32763
-5.38099
-5.43433
-5.48763
-5.5409
-5.59415
-5.64737
-5.70056
-5.75373
-5.80688
-5.86001
-5.91312
-5.96621
-6.01928
-6.07234
-6.12538
-6.17841
-6.23143
-6.28444
-6.33745
-6.39045
-6.44344
-6.49644
-6.54943
-6.60243
-6.65543
-6.70843
-6.76144
-6.81445
-6.86746
-6.92049
-6.97351
-7.02654
-7.07957
-7.1326
-7.18562
-7.23863
-7.29162
-7.34459
-7.39753
-7.45042
-7.50326
-7.55603
-7.60871
-7.66128
-7.71372
-7.76599
-7.81808
-7.86993
-7.92148
-7.97269
-8.02343
-8.07359
1.75093
1.69342
1.63603
1.57893
1.52198
1.46511
1.40832
1.35165
1.29509
1.2387
1.18248
1.12643
1.07057
1.0149
0.959443
0.904184
0.849139
0.794307
0.73969
0.685292
0.63111
0.577141
0.523387
0.469841
0.416498
0.363346
0.310373
0.257572
0.204933
0.152442
0.100083
0.0478438
-0.00429539
-0.05635
-0.108339
-0.160283
-0.212201
-0.264107
-0.316021
-0.367958
-0.419934
-0.47196
-0.524049
-0.576209
-0.628447
-0.68077
-0.733183
-0.785688
-0.838287
-0.890981
-0.94377
-0.996656
-1.04964
-1.10271
-1.15587
-1.20911
-1.26245
-1.31586
-1.36935
-1.42292
-1.47656
-1.53027
-1.58404
-1.63787
-1.69175
-1.7457
-1.79969
-1.85373
-1.90781
-1.96194
-2.01609
-2.07029
-2.12451
-2.17876
-2.23304
-2.28734
-2.34166
-2.39599
-2.45035
-2.50471
-2.55909
-2.61347
-2.66786
-2.72225
-2.77665
-2.83104
-2.88544
-2.93983
-2.99421
-3.04859
-3.10296
-3.15732
-3.21167
-3.26601
-3.32033
-3.37464
-3.42893
-3.48321
-3.53747
-3.59171
-3.64593
-3.70012
-3.75429
-3.80844
-3.86257
-3.91667
-3.97074
-4.02479
-4.07881
-4.1328
-4.18677
-4.2407
-4.29461
-4.34848
-4.40233
-4.45614
-4.50993
-4.56368
-4.6174
-4.67108
-4.72474
-4.77836
-4.83195
-4.88551
-4.93904
-4.99253
-5.04599
-5.09941
-5.15281
-5.20617
-5.25951
-5.31281
-5.36609
-5.41933
-5.47255
-5.52573
-5.57889
-5.63203
-5.68514
-5.73822
-5.79128
-5.84432
-5.89734
-5.95035
-6.00333
-6.0563
-6.10926
-6.16221
-6.21514
-6.26807
-6.32098
-6.3739
-6.42681
-6.47972
-6.53263
-6.58554
-6.63845
-6.69136
-6.74428
-6.79721
-6.85014
-6.90307
-6.95601
-7.00896
-7.0619
-7.11484
-7.16777
-7.2207
-7.27361
-7.32649
-7.37934
-7.43215
-7.4849
-7.53758
-7.59017
-7.64265
-7.695
-7.74719
-7.79918
-7.85093
-7.90239
-7.9535
-8.00415
-8.0542
1.69917
1.64195
1.58496
1.52814
1.47141
1.41477
1.35825
1.30184
1.2456
1.18953
1.13363
1.07791
1.0224
0.967081
0.91197
0.857073
0.802387
0.747915
0.693662
0.639625
0.585802
0.532192
0.478791
0.425591
0.372583
0.319754
0.267097
0.2146
0.162251
0.110034
0.0579372
0.00594093
-0.0459721
-0.0978192
-0.149621
-0.201397
-0.253162
-0.304933
-0.356728
-0.408562
-0.460447
-0.512393
-0.56441
-0.616504
-0.668684
-0.720953
-0.773315
-0.82577
-0.878319
-0.930964
-0.983705
-1.03654
-1.08947
-1.14248
-1.19558
-1.24877
-1.30204
-1.35538
-1.4088
-1.4623
-1.51585
-1.56948
-1.62316
-1.6769
-1.7307
-1.78454
-1.83844
-1.89237
-1.94635
-2.00036
-2.0544
-2.10848
-2.16258
-2.21671
-2.27086
-2.32503
-2.37922
-2.43342
-2.48764
-2.54187
-2.5961
-2.65034
-2.70459
-2.75884
-2.81308
-2.86733
-2.92157
-2.9758
-3.03003
-3.08426
-3.13847
-3.19267
-3.24686
-3.30104
-3.3552
-3.40934
-3.46347
-3.51758
-3.57167
-3.62574
-3.67979
-3.73382
-3.78782
-3.8418
-3.89575
-3.94968
-4.00358
-4.05745
-4.11129
-4.16511
-4.2189
-4.27265
-4.32638
-4.38008
-4.43375
-4.48739
-4.54099
-4.59456
-4.64811
-4.70161
-4.75509
-4.80854
-4.86195
-4.91532
-4.96867
-5.02198
-5.07526
-5.12851
-5.18173
-5.23492
-5.28808
-5.34121
-5.39431
-5.44738
-5.50042
-5.55343
-5.60642
-5.65938
-5.71232
-5.76524
-5.81814
-5.87101
-5.92387
-5.97671
-6.02954
-6.08235
-6.13515
-6.18794
-6.24072
-6.2935
-6.34627
-6.39903
-6.4518
-6.50456
-6.55732
-6.61009
-6.66286
-6.71564
-6.76842
-6.82121
-6.874
-6.92679
-6.97959
-7.03239
-7.08518
-7.13797
-7.19075
-7.24351
-7.29625
-7.34896
-7.40162
-7.45422
-7.50675
-7.5592
-7.61153
-7.66373
-7.71577
-7.76761
-7.81921
-7.87052
-7.92147
-7.97194
-8.02184
1.65064
1.59384
1.53719
1.48067
1.42426
1.36795
1.31177
1.25575
1.1999
1.14421
1.08872
1.03342
0.978327
0.923434
0.868754
0.814286
0.76003
0.705992
0.65217
0.598562
0.545167
0.491981
0.438995
0.3862
0.333584
0.281139
0.228856
0.176717
0.124712
0.0728264
0.0210419
-0.0306604
-0.0822964
-0.133887
-0.185451
-0.237005
-0.288566
-0.34015
-0.391772
-0.443446
-0.495181
-0.546985
-0.598867
-0.650834
-0.70289
-0.755038
-0.807278
-0.859613
-0.912044
-0.96457
-1.01719
-1.0699
-1.1227
-1.17558
-1.22855
-1.2816
-1.33473
-1.38794
-1.44121
-1.49455
-1.54796
-1.60142
-1.65495
-1.70852
-1.76215
-1.81582
-1.86954
-1.9233
-1.97709
-2.03091
-2.08477
-2.13865
-2.19256
-2.24649
-2.30044
-2.35441
-2.4084
-2.46239
-2.5164
-2.57042
-2.62444
-2.67846
-2.73249
-2.78651
-2.84054
-2.89456
-2.94858
-3.00258
-3.05659
-3.11058
-3.16456
-3.21853
-3.27249
-3.32643
-3.38035
-3.43426
-3.48815
-3.54203
-3.59588
-3.6497
-3.70351
-3.75729
-3.81105
-3.86478
-3.91849
-3.97217
-4.02583
-4.07945
-4.13305
-4.18662
-4.24016
-4.29367
-4.34715
-4.4006
-4.45402
-4.50741
-4.56076
-4.61408
-4.66738
-4.72064
-4.77386
-4.82706
-4.88022
-4.93335
-4.98644
-5.03951
-5.09254
-5.14554
-5.19851
-5.25146
-5.30437
-5.35725
-5.41011
-5.46293
-5.51573
-5.5685
-5.62125
-5.67397
-5.72668
-5.77936
-5.83202
-5.88466
-5.93729
-5.9899
-6.0425
-6.09508
-6.14766
-6.20022
-6.25278
-6.30534
-6.35789
-6.41044
-6.46299
-6.51554
-6.56809
-6.62065
-6.67321
-6.72578
-6.77835
-6.83092
-6.8835
-6.93609
-6.98867
-7.04125
-7.09382
-7.14639
-7.19894
-7.25146
-7.30395
-7.35639
-7.40878
-7.4611
-7.51332
-7.56544
-7.61742
-7.66924
-7.72085
-7.77223
-7.8233
-7.87402
-7.92426
-7.97392
1.6055
1.54909
1.49285
1.43673
1.38071
1.32482
1.26909
1.21353
1.15814
1.10293
1.04792
0.993114
0.938509
0.884115
0.829933
0.775962
0.722209
0.668672
0.615347
0.562235
0.509331
0.456628
0.404114
0.35178
0.299616
0.247612
0.195753
0.144027
0.0924201
0.0409151
-0.0105084
-0.0618657
-0.113177
-0.164463
-0.215738
-0.267021
-0.318326
-0.36967
-0.421064
-0.472519
-0.524043
-0.575645
-0.627331
-0.679106
-0.730972
-0.78293
-0.834982
-0.88713
-0.939373
-0.991708
-1.04413
-1.09665
-1.14925
-1.20193
-1.2547
-1.30754
-1.36046
-1.41344
-1.4665
-1.51962
-1.57279
-1.62603
-1.67932
-1.73266
-1.78604
-1.83947
-1.89293
-1.94644
-1.99997
-2.05354
-2.10713
-2.16075
-2.21439
-2.26805
-2.32173
-2.37543
-2.42913
-2.48285
-2.53657
-2.59031
-2.64404
-2.69778
-2.75151
-2.80525
-2.85898
-2.9127
-2.96642
-3.02013
-3.07384
-3.12753
-3.18121
-3.23487
-3.28852
-3.34216
-3.39578
-3.44938
-3.50296
-3.55652
-3.61006
-3.66358
-3.71707
-3.77054
-3.82399
-3.87741
-3.9308
-3.98416
-4.0375
-4.09081
-4.14409
-4.19734
-4.25057
-4.30376
-4.35692
-4.41005
-4.46315
-4.51622
-4.56925
-4.62226
-4.67523
-4.72817
-4.78108
-4.83395
-4.8868
-4.93961
-4.99238
-5.04513
-5.09785
-5.15054
-5.20319
-5.25582
-5.30842
-5.36099
-5.41353
-5.46604
-5.51853
-5.571
-5.62344
-5.67585
-5.72825
-5.78063
-5.83299
-5.88533
-5.93766
-5.98997
-6.04227
-6.09457
-6.14685
-6.19913
-6.2514
-6.30367
-6.35593
-6.4082
-6.46047
-6.51274
-6.56501
-6.61729
-6.66957
-6.72186
-6.77415
-6.82645
-6.87875
-6.93105
-6.98335
-7.03564
-7.08792
-7.14018
-7.19242
-7.24462
-7.29678
-7.34889
-7.40092
-7.45286
-7.50468
-7.55638
-7.6079
-7.65923
-7.7103
-7.76108
-7.81149
-7.86143
-7.91079
1.61986
1.56381
1.50789
1.45212
1.39646
1.34094
1.28557
1.23036
1.17533
1.12048
1.06583
1.01137
0.957122
0.903081
0.849253
0.795636
0.742234
0.689048
0.636074
0.583313
0.530759
0.478404
0.426238
0.374251
0.322434
0.270776
0.219264
0.167884
0.116622
0.0654624
0.0143842
-0.0366282
-0.087595
-0.138536
-0.189467
-0.240404
-0.291364
-0.342363
-0.393413
-0.444522
-0.4957
-0.546955
-0.598294
-0.649721
-0.701238
-0.752847
-0.80455
-0.856348
-0.90824
-0.960224
-1.0123
-1.06446
-1.11671
-1.16904
-1.22145
-1.27394
-1.3265
-1.37913
-1.43183
-1.48459
-1.53742
-1.59029
-1.64323
-1.69621
-1.74924
-1.80231
-1.85542
-1.90856
-1.96174
-2.01494
-2.06818
-2.12144
-2.17472
-2.22803
-2.28135
-2.33468
-2.38803
-2.44139
-2.49475
-2.54813
-2.6015
-2.65488
-2.70826
-2.76163
-2.815
-2.86837
-2.92173
-2.97508
-3.02843
-3.08176
-3.13508
-3.18839
-3.24168
-3.29496
-3.34822
-3.40146
-3.45469
-3.50789
-3.56107
-3.61423
-3.66736
-3.72048
-3.77356
-3.82663
-3.87966
-3.93267
-3.98565
-4.0386
-4.09153
-4.14442
-4.19729
-4.25013
-4.30293
-4.35571
-4.40845
-4.46116
-4.51385
-4.5665
-4.61912
-4.6717
-4.72425
-4.77677
-4.82926
-4.88172
-4.93414
-4.98654
-5.0389
-5.09124
-5.14354
-5.19582
-5.24806
-5.30028
-5.35247
-5.40463
-5.45677
-5.50888
-5.56097
-5.61303
-5.66508
-5.71711
-5.76912
-5.82111
-5.87308
-5.92505
-5.977
-6.02894
-6.08088
-6.1328
-6.18472
-6.23664
-6.28856
-6.34048
-6.39239
-6.44431
-6.49624
-6.54817
-6.6001
-6.65204
-6.70398
-6.75593
-6.80788
-6.85983
-6.91177
-6.96371
-7.01564
-7.06755
-7.11944
-7.17129
-7.2231
-7.27485
-7.32653
-7.37811
-7.42958
-7.48092
-7.53209
-7.58305
-7.63376
-7.68417
-7.73421
-7.78377
-7.83277
1.58127
1.52575
1.47037
1.41514
1.36005
1.30511
1.25032
1.19571
1.14129
1.08706
1.03303
0.9792
0.925578
0.872168
0.818971
0.765988
0.713218
0.660661
0.608315
0.556176
0.504235
0.452482
0.400908
0.349503
0.298257
0.247156
0.196186
0.145334
0.0945847
0.0439168
-0.00668604
-0.0572435
-0.107775
-0.158296
-0.208824
-0.259375
-0.309964
-0.360603
-0.411302
-0.462069
-0.512912
-0.563839
-0.614853
-0.665957
-0.717151
-0.76844
-0.819822
-0.871298
-0.922865
-0.974521
-1.02627
-1.07809
-1.13001
-1.182
-1.23407
-1.28621
-1.33842
-1.3907
-1.44304
-1.49544
-1.54789
-1.6004
-1.65296
-1.70556
-1.75821
-1.81089
-1.86361
-1.91636
-1.96915
-2.02196
-2.07479
-2.12765
-2.18053
-2.23342
-2.28633
-2.33925
-2.39219
-2.44513
-2.49807
-2.55102
-2.60397
-2.65692
-2.70987
-2.76282
-2.81576
-2.86869
-2.92162
-2.97454
-3.02744
-3.08034
-3.13322
-3.18609
-3.23894
-3.29178
-3.34459
-3.39739
-3.45017
-3.50293
-3.55566
-3.60837
-3.66106
-3.71372
-3.76636
-3.81897
-3.87156
-3.92411
-3.97664
-4.02915
-4.08162
-4.13406
-4.18648
-4.23886
-4.29121
-4.34354
-4.39583
-4.44809
-4.50032
-4.55252
-4.60468
-4.65681
-4.70891
-4.76098
-4.81302
-4.86502
-4.917
-4.96894
-5.02086
-5.07274
-5.1246
-5.17643
-5.22823
-5.28
-5.33174
-5.38346
-5.43516
-5.48683
-5.53848
-5.59011
-5.64172
-5.69331
-5.74489
-5.79645
-5.848
-5.89953
-5.95106
-6.00258
-6.05409
-6.10559
-6.1571
-6.2086
-6.2601
-6.3116
-6.3631
-6.41461
-6.46613
-6.51764
-6.56917
-6.62069
-6.67222
-6.72376
-6.77529
-6.82682
-6.87835
-6.92986
-6.98135
-7.03282
-7.08426
-7.13565
-7.18698
-7.23824
-7.2894
-7.34045
-7.39136
-7.4421
-7.49264
-7.54292
-7.5929
-7.64249
-7.69163
-7.74021
1.54636
1.49143
1.43669
1.3821
1.32765
1.27335
1.21923
1.1653
1.11156
1.05801
1.00467
0.951531
0.898604
0.845891
0.793391
0.741103
0.689026
0.63716
0.585499
0.534035
0.482759
0.431661
0.380731
0.32996
0.279334
0.228839
0.17846
0.128184
0.0779897
0.0278597
-0.0222252
-0.0722838
-0.122333
-0.172387
-0.222466
-0.272582
-0.322747
-0.372972
-0.423264
-0.473633
-0.524084
-0.574622
-0.625247
-0.675964
-0.726774
-0.777677
-0.828673
-0.879759
-0.930933
-0.982195
-1.03354
-1.08497
-1.13648
-1.18806
-1.23972
-1.29144
-1.34323
-1.39509
-1.447
-1.49897
-1.55099
-1.60306
-1.65517
-1.70733
-1.75952
-1.81175
-1.86401
-1.9163
-1.96862
-2.02097
-2.07334
-2.12572
-2.17812
-2.23054
-2.28297
-2.33541
-2.38786
-2.44032
-2.49277
-2.54523
-2.59769
-2.65015
-2.7026
-2.75505
-2.80749
-2.85993
-2.91236
-2.96477
-3.01718
-3.06957
-3.12194
-3.1743
-3.22665
-3.27897
-3.33128
-3.38357
-3.43584
-3.48808
-3.5403
-3.5925
-3.64467
-3.69682
-3.74894
-3.80104
-3.85311
-3.90515
-3.95716
-4.00915
-4.0611
-4.11303
-4.16493
-4.21679
-4.26863
-4.32044
-4.37221
-4.42395
-4.47566
-4.52734
-4.57899
-4.63061
-4.68219
-4.73374
-4.78526
-4.83675
-4.88822
-4.93965
-4.99105
-5.04242
-5.09377
-5.14509
-5.19637
-5.24764
-5.29888
-5.35009
-5.40128
-5.45245
-5.5036
-5.55473
-5.60584
-5.65693
-5.70801
-5.75908
-5.81014
-5.86118
-5.91222
-5.96325
-6.01428
-6.0653
-6.11632
-6.16734
-6.21837
-6.26939
-6.32042
-6.37145
-6.42249
-6.47353
-6.52458
-6.57563
-6.62669
-6.67774
-6.72879
-6.77983
-6.83087
-6.88188
-6.93287
-6.98382
-7.03473
-7.08558
-7.13635
-7.18703
-7.23759
-7.28802
-7.33827
-7.38831
-7.4381
-7.48758
-7.53668
-7.58532
-7.63341
1.56963
1.51527
1.46105
1.40701
1.35312
1.29938
1.24581
1.19243
1.13924
1.08625
1.03345
0.980864
0.928484
0.876318
0.824363
0.772619
0.721085
0.669762
0.618642
0.567717
0.51698
0.46642
0.416028
0.365794
0.315705
0.265747
0.215903
0.166162
0.116503
0.0669073
0.0173568
-0.032167
-0.0816812
-0.131202
-0.180745
-0.230326
-0.279956
-0.329645
-0.379401
-0.429233
-0.479146
-0.529145
-0.579231
-0.629408
-0.679677
-0.730038
-0.780491
-0.831033
-0.881664
-0.93238
-0.983181
-1.03406
-1.08502
-1.13606
-1.18717
-1.23834
-1.28958
-1.34089
-1.39225
-1.44366
-1.49513
-1.54665
-1.59821
-1.64981
-1.70145
-1.75313
-1.80484
-1.85657
-1.90834
-1.96013
-2.01194
-2.06377
-2.11562
-2.16748
-2.21935
-2.27124
-2.32313
-2.37503
-2.42693
-2.47883
-2.53074
-2.58264
-2.63454
-2.68643
-2.73832
-2.7902
-2.84207
-2.89393
-2.94578
-2.99761
-3.04943
-3.10124
-3.15303
-3.2048
-3.25655
-3.30829
-3.36
-3.41169
-3.46336
-3.515
-3.56662
-3.61822
-3.66979
-3.72133
-3.77284
-3.82433
-3.8758
-3.92723
-3.97863
-4.03001
-4.08136
-4.13267
-4.18396
-4.23521
-4.28644
-4.33763
-4.38879
-4.43992
-4.49102
-4.54209
-4.59313
-4.64413
-4.6951
-4.74605
-4.79696
-4.84785
-4.8987
-4.94953
-5.00033
-5.0511
-5.10185
-5.15256
-5.20326
-5.25393
-5.30457
-5.3552
-5.4058
-5.45639
-5.50696
-5.55751
-5.60805
-5.65857
-5.70908
-5.75959
-5.81008
-5.86057
-5.91106
-5.96154
-6.01202
-6.0625
-6.11298
-6.16346
-6.21395
-6.26444
-6.31493
-6.36543
-6.41594
-6.46645
-6.51696
-6.56747
-6.61798
-6.66848
-6.71896
-6.76943
-6.81988
-6.87029
-6.92065
-6.97095
-7.02118
-7.07131
-7.12132
-7.1712
-7.2209
-7.27038
-7.31961
-7.36853
-7.41707
-7.46516
-7.51272
1.54179
1.48819
1.43474
1.38146
1.32834
1.27539
1.22263
1.17005
1.11767
1.06548
1.0135
0.961732
0.910174
0.858826
0.807687
0.756758
0.706037
0.655518
0.605194
0.555056
0.505095
0.455302
0.405666
0.356174
0.306812
0.257565
0.20842
0.159355
0.110355
0.0613991
0.0124704
-0.0364486
-0.0853741
-0.134323
-0.183308
-0.232342
-0.281435
-0.330594
-0.379828
-0.429143
-0.478542
-0.528028
-0.577604
-0.627272
-0.67703
-0.726879
-0.776817
-0.826842
-0.876952
-0.927145
-0.977419
-1.02777
-1.0782
-1.12869
-1.17926
-1.22989
-1.28058
-1.33133
-1.38213
-1.43298
-1.48389
-1.53483
-1.58582
-1.63684
-1.6879
-1.73899
-1.79011
-1.84126
-1.89243
-1.94363
-1.99484
-2.04607
-2.09731
-2.14857
-2.19984
-2.25111
-2.30239
-2.35367
-2.40495
-2.45624
-2.50752
-2.5588
-2.61008
-2.66135
-2.71261
-2.76386
-2.8151
-2.86633
-2.91755
-2.96875
-3.01994
-3.07111
-3.12227
-3.1734
-3.22452
-3.27562
-3.32669
-3.37774
-3.42877
-3.47977
-3.53075
-3.58171
-3.63264
-3.68354
-3.73441
-3.78526
-3.83608
-3.88687
-3.93764
-3.98837
-4.03907
-4.08974
-4.14039
-4.191
-4.24158
-4.29213
-4.34265
-4.39314
-4.4436
-4.49403
-4.54442
-4.59479
-4.64512
-4.69543
-4.7457
-4.79595
-4.84617
-4.89637
-4.94653
-4.99667
-5.04678
-5.09687
-5.14693
-5.19697
-5.24699
-5.29699
-5.34697
-5.39693
-5.44688
-5.49682
-5.54674
-5.59665
-5.64654
-5.69644
-5.74632
-5.7962
-5.84608
-5.89596
-5.94583
-5.99571
-6.04559
-6.09547
-6.14536
-6.19525
-6.24515
-6.29505
-6.34496
-6.39486
-6.44477
-6.49467
-6.54457
-6.59445
-6.64432
-6.69415
-6.74396
-6.79371
-6.84341
-6.89303
-6.94255
-6.99195
-7.04121
-7.0903
-7.13917
-7.18778
-7.23608
-7.28401
-7.33149
-7.37845
1.51803
1.46524
1.41261
1.36017
1.3079
1.25581
1.2039
1.15219
1.10068
1.04937
0.998271
0.94738
0.896697
0.846224
0.795959
0.7459
0.696042
0.646377
0.596899
0.547596
0.49846
0.449481
0.400645
0.351939
0.303348
0.254857
0.206447
0.1581
0.109798
0.0615233
0.0132583
-0.0350134
-0.0833078
-0.131639
-0.180018
-0.228455
-0.276958
-0.325536
-0.374194
-0.422934
-0.471761
-0.520677
-0.569683
-0.61878
-0.667965
-0.717238
-0.766598
-0.816042
-0.865568
-0.915173
-0.964856
-1.01461
-1.06444
-1.11433
-1.16429
-1.21431
-1.26438
-1.31451
-1.36469
-1.41492
-1.46519
-1.5155
-1.56584
-1.61623
-1.66664
-1.71708
-1.76755
-1.81804
-1.86856
-1.91909
-1.96964
-2.02021
-2.07078
-2.12137
-2.17197
-2.22256
-2.27317
-2.32377
-2.37438
-2.42498
-2.47558
-2.52618
-2.57676
-2.62735
-2.67792
-2.72848
-2.77903
-2.82957
-2.8801
-2.93061
-2.9811
-3.03158
-3.08203
-3.13247
-3.18289
-3.23329
-3.28366
-3.33401
-3.38434
-3.43464
-3.48492
-3.53518
-3.5854
-3.6356
-3.68577
-3.73592
-3.78604
-3.83613
-3.88619
-3.93622
-3.98622
-4.03619
-4.08613
-4.13604
-4.18592
-4.23577
-4.28559
-4.33537
-4.38513
-4.43485
-4.48455
-4.53422
-4.58385
-4.63346
-4.68304
-4.7326
-4.78212
-4.83162
-4.88109
-4.93054
-4.97996
-5.02935
-5.07873
-5.12808
-5.17742
-5.22674
-5.27603
-5.32532
-5.37459
-5.42384
-5.47309
-5.52233
-5.57155
-5.62078
-5.66999
-5.71921
-5.76842
-5.81763
-5.86685
-5.91606
-5.96528
-6.01451
-6.06374
-6.11297
-6.16221
-6.21145
-6.26069
-6.30994
-6.35918
-6.40841
-6.45763
-6.50683
-6.556
-6.60514
-6.65423
-6.70325
-6.7522
-6.80106
-6.84979
-6.89838
-6.94679
-6.99499
-7.04293
-7.09055
-7.13781
-7.18462
-7.23093
1.49843
1.44651
1.3948
1.34327
1.29192
1.24074
1.18976
1.13898
1.0884
1.03802
0.987858
0.937899
0.888148
0.838605
0.789266
0.740128
0.691181
0.642419
0.593833
0.545412
0.497146
0.449024
0.401032
0.353153
0.305374
0.257677
0.210041
0.16245
0.114887
0.0673333
0.0197729
-0.0278098
-0.0754292
-0.123096
-0.170819
-0.218609
-0.266473
-0.314416
-0.36244
-0.41055
-0.458748
-0.507035
-0.555411
-0.603875
-0.652426
-0.701062
-0.749781
-0.798582
-0.847461
-0.896415
-0.945443
-0.994541
-1.0437
-1.09293
-1.14221
-1.19155
-1.24095
-1.2904
-1.33989
-1.38942
-1.439
-1.48861
-1.53825
-1.58793
-1.63764
-1.68737
-1.73712
-1.7869
-1.8367
-1.88651
-1.93633
-1.98617
-2.03602
-2.08587
-2.13573
-2.1856
-2.23546
-2.28533
-2.33519
-2.38505
-2.43491
-2.48476
-2.5346
-2.58443
-2.63426
-2.68407
-2.73387
-2.78366
-2.83343
-2.88318
-2.93292
-2.98264
-3.03234
-3.08202
-3.13168
-3.18132
-3.23094
-3.28053
-3.3301
-3.37964
-3.42916
-3.47865
-3.52812
-3.57755
-3.62697
-3.67635
-3.72571
-3.77503
-3.82433
-3.8736
-3.92284
-3.97205
-4.02123
-4.07038
-4.1195
-4.16859
-4.21764
-4.26667
-4.31567
-4.36464
-4.41358
-4.46249
-4.51137
-4.56022
-4.60905
-4.65785
-4.70662
-4.75537
-4.80409
-4.85278
-4.90146
-4.95011
-4.99874
-5.04735
-5.09594
-5.14452
-5.19308
-5.24163
-5.29016
-5.33869
-5.3872
-5.43571
-5.48421
-5.5327
-5.5812
-5.62969
-5.67818
-5.72667
-5.77517
-5.82367
-5.87217
-5.92068
-5.96919
-6.01771
-6.06623
-6.11475
-6.16327
-6.21178
-6.26029
-6.30879
-6.35727
-6.40571
-6.45413
-6.50249
-6.55079
-6.59902
-6.64715
-6.69515
-6.74301
-6.79069
-6.83816
-6.88536
-6.93226
-6.97878
-7.02488
-7.07048
1.53422
1.48311
1.43217
1.38143
1.33087
1.28048
1.23029
1.1803
1.1305
1.08091
1.03153
0.982351
0.933379
0.884615
0.836053
0.78769
0.739517
0.691528
0.643714
0.596064
0.548569
0.501217
0.453993
0.406884
0.359874
0.312944
0.266076
0.219252
0.172456
0.12567
0.0788771
0.0320623
-0.0147892
-0.0616872
-0.108642
-0.155663
-0.202756
-0.249927
-0.29718
-0.344517
-0.39194
-0.439452
-0.487051
-0.534737
-0.582509
-0.630364
-0.678302
-0.72632
-0.774415
-0.822585
-0.870827
-0.919137
-0.967512
-1.01595
-1.06444
-1.113
-1.1616
-1.21025
-1.25895
-1.3077
-1.35648
-1.40529
-1.45415
-1.50303
-1.55194
-1.60087
-1.64983
-1.69881
-1.74781
-1.79683
-1.84585
-1.89489
-1.94395
-1.993
-2.04206
-2.09113
-2.1402
-2.18927
-2.23833
-2.2874
-2.33646
-2.38551
-2.43455
-2.48359
-2.53262
-2.58163
-2.63064
-2.67963
-2.7286
-2.77756
-2.82651
-2.87543
-2.92434
-2.97322
-3.02208
-3.07093
-3.11975
-3.16855
-3.21732
-3.26607
-3.3148
-3.3635
-3.41217
-3.46082
-3.50944
-3.55803
-3.6066
-3.65514
-3.70364
-3.75212
-3.80057
-3.84899
-3.89739
-3.94575
-3.99408
-4.04238
-4.09065
-4.13889
-4.18711
-4.23529
-4.28344
-4.33157
-4.37967
-4.42774
-4.47578
-4.5238
-4.57179
-4.61975
-4.66769
-4.7156
-4.7635
-4.81137
-4.85922
-4.90705
-4.95486
-5.00266
-5.05044
-5.09821
-5.14596
-5.19371
-5.24144
-5.28917
-5.33689
-5.38461
-5.43233
-5.48004
-5.52775
-5.57547
-5.62318
-5.6709
-5.71863
-5.76636
-5.81409
-5.86183
-5.90957
-5.95731
-6.00505
-6.05279
-6.10052
-6.14824
-6.19593
-6.2436
-6.29123
-6.33882
-6.38634
-6.43378
-6.48112
-6.52834
-6.57542
-6.62231
-6.66899
-6.71541
-6.76152
-6.80726
-6.85259
-6.89744
1.52232
1.47223
1.42232
1.37259
1.32305
1.27372
1.22456
1.17561
1.12686
1.07832
1.02997
0.981836
0.933905
0.886174
0.838642
0.791299
0.744137
0.697149
0.650326
0.603655
0.557127
0.510728
0.464442
0.418255
0.372147
0.326102
0.2801
0.234125
0.188162
0.142191
0.0961985
0.0501697
0.00409454
-0.0420367
-0.0882332
-0.134502
-0.180847
-0.227273
-0.273782
-0.320376
-0.367057
-0.413824
-0.460677
-0.507615
-0.554635
-0.601735
-0.648915
-0.696171
-0.7435
-0.790901
-0.838369
-0.8859
-0.933492
-0.981142
-1.02885
-1.0766
-1.12441
-1.17226
-1.22015
-1.26809
-1.31605
-1.36405
-1.41208
-1.46014
-1.50822
-1.55633
-1.60446
-1.6526
-1.70077
-1.74894
-1.79713
-1.84532
-1.89353
-1.94174
-1.98995
-2.03816
-2.08638
-2.13459
-2.1828
-2.231
-2.2792
-2.32739
-2.37558
-2.42375
-2.47191
-2.52006
-2.5682
-2.61632
-2.66443
-2.71252
-2.76059
-2.80865
-2.85668
-2.90469
-2.95269
-3.00066
-3.04861
-3.09653
-3.14443
-3.19231
-3.24016
-3.28798
-3.33578
-3.38356
-3.4313
-3.47902
-3.52671
-3.57437
-3.62201
-3.66961
-3.71719
-3.76474
-3.81226
-3.85974
-3.9072
-3.95463
-4.00203
-4.0494
-4.09674
-4.14406
-4.19134
-4.2386
-4.28583
-4.33304
-4.38021
-4.42736
-4.47449
-4.52159
-4.56867
-4.61573
-4.66276
-4.70978
-4.75677
-4.80375
-4.85071
-4.89766
-4.94459
-4.99151
-5.03842
-5.08532
-5.13222
-5.17911
-5.22599
-5.27287
-5.31975
-5.36663
-5.41351
-5.46039
-5.50728
-5.55417
-5.60107
-5.64797
-5.69487
-5.74178
-5.78869
-5.83559
-5.88249
-5.92939
-5.97627
-6.02313
-6.06996
-6.11676
-6.16351
-6.21019
-6.25679
-6.3033
-6.34968
-6.39591
-6.44197
-6.48781
-6.53338
-6.57866
-6.62357
-6.66808
-6.71212
1.51491
1.46589
1.41703
1.3684
1.31996
1.2717
1.22364
1.17579
1.12814
1.08068
1.03344
0.986392
0.939546
0.892898
0.846438
0.800157
0.754049
0.708104
0.662312
0.616661
0.571139
0.525729
0.480418
0.435186
0.390016
0.344889
0.29979
0.254702
0.209606
0.164489
0.119336
0.0741367
0.028882
-0.0164373
-0.0618279
-0.107294
-0.15284
-0.198467
-0.244179
-0.289976
-0.335858
-0.381824
-0.427873
-0.474004
-0.520214
-0.566501
-0.612863
-0.659298
-0.705803
-0.752374
-0.799007
-0.8457
-0.89245
-0.939255
-0.986111
-1.03301
-1.07996
-1.12695
-1.17398
-1.22104
-1.26813
-1.31526
-1.36241
-1.40959
-1.45679
-1.504
-1.55124
-1.59849
-1.64576
-1.69304
-1.74033
-1.78762
-1.83492
-1.88222
-1.92953
-1.97683
-2.02413
-2.07143
-2.11873
-2.16602
-2.2133
-2.26058
-2.30784
-2.3551
-2.40234
-2.44957
-2.49678
-2.54398
-2.59117
-2.63833
-2.68548
-2.7326
-2.77971
-2.8268
-2.87387
-2.92091
-2.96793
-3.01493
-3.0619
-3.10884
-3.15577
-3.20266
-3.24953
-3.29638
-3.3432
-3.38999
-3.43675
-3.48348
-3.53019
-3.57687
-3.62351
-3.67013
-3.71672
-3.76329
-3.80982
-3.85632
-3.9028
-3.94924
-3.99566
-4.04205
-4.08842
-4.13475
-4.18107
-4.22735
-4.27361
-4.31984
-4.36605
-4.41224
-4.45841
-4.50455
-4.55068
-4.59678
-4.64287
-4.68894
-4.735
-4.78104
-4.82708
-4.8731
-4.91911
-4.96512
-5.01112
-5.05711
-5.10311
-5.1491
-5.19509
-5.24109
-5.28708
-5.33308
-5.37908
-5.42509
-5.4711
-5.51712
-5.56314
-5.60916
-5.65518
-5.70119
-5.7472
-5.79319
-5.83916
-5.8851
-5.93101
-5.97686
-6.02266
-6.06837
-6.11398
-6.15947
-6.20481
-6.24997
-6.29492
-6.3396
-6.38399
-6.42802
-6.47166
-6.51485
1.51205
1.46412
1.41643
1.36895
1.32164
1.27453
1.22762
1.18092
1.13441
1.0881
1.04199
0.996083
0.95037
0.904845
0.859498
0.814321
0.769307
0.724445
0.679723
0.635129
0.590647
0.546263
0.501959
0.457715
0.413517
0.369345
0.325183
0.281014
0.236824
0.192598
0.148327
0.104
0.0596094
0.0151484
-0.0293872
-0.0740007
-0.118695
-0.163472
-0.208333
-0.253277
-0.298305
-0.343414
-0.388602
-0.433869
-0.479211
-0.524628
-0.570116
-0.615672
-0.661293
-0.706975
-0.752716
-0.798514
-0.844364
-0.890265
-0.936212
-0.982203
-1.02824
-1.0743
-1.12041
-1.16654
-1.21271
-1.2589
-1.30511
-1.35135
-1.39761
-1.44389
-1.49018
-1.53648
-1.5828
-1.62912
-1.67545
-1.72179
-1.76813
-1.81447
-1.86081
-1.90715
-1.95349
-1.99982
-2.04615
-2.09247
-2.13878
-2.18509
-2.23138
-2.27766
-2.32393
-2.37018
-2.41642
-2.46264
-2.50884
-2.55503
-2.6012
-2.64735
-2.69347
-2.73958
-2.78567
-2.83173
-2.87777
-2.92378
-2.96977
-3.01574
-3.06168
-3.10759
-3.15348
-3.19935
-3.24518
-3.29099
-3.33677
-3.38252
-3.42825
-3.47395
-3.51962
-3.56526
-3.61087
-3.65645
-3.702
-3.74753
-3.79303
-3.8385
-3.88394
-3.92936
-3.97475
-4.02012
-4.06546
-4.11077
-4.15606
-4.20133
-4.24657
-4.29179
-4.33699
-4.38218
-4.42734
-4.47249
-4.51762
-4.56273
-4.60784
-4.65293
-4.69801
-4.74308
-4.78815
-4.83321
-4.87826
-4.92332
-4.96837
-5.01342
-5.05848
-5.10353
-5.14859
-5.19365
-5.23872
-5.28379
-5.32887
-5.37395
-5.41902
-5.4641
-5.50918
-5.55424
-5.59929
-5.64432
-5.68932
-5.73428
-5.7792
-5.82404
-5.86881
-5.91348
-5.95803
-6.00242
-6.04664
-6.09064
-6.13439
-6.17784
-6.22094
-6.26366
-6.30594
1.56071
1.51381
1.4671
1.42061
1.3743
1.32819
1.28229
1.23657
1.19106
1.14574
1.10062
1.0557
1.01097
0.966434
0.92207
0.877876
0.833843
0.789959
0.746217
0.702602
0.659098
0.615692
0.572364
0.529098
0.485877
0.442683
0.399499
0.356307
0.313093
0.269845
0.226551
0.183203
0.139791
0.0963099
0.0527552
0.00912405
-0.0345865
-0.0783785
-0.122253
-0.166209
-0.210247
-0.254365
-0.298561
-0.342833
-0.38718
-0.431599
-0.476089
-0.520645
-0.565264
-0.609945
-0.654683
-0.699476
-0.744321
-0.789215
-0.834155
-0.879138
-0.924161
-0.96922
-1.01431
-1.05944
-1.10459
-1.14977
-1.19497
-1.2402
-1.28544
-1.3307
-1.37598
-1.42127
-1.46657
-1.51188
-1.5572
-1.60252
-1.64784
-1.69317
-1.7385
-1.78382
-1.82915
-1.87446
-1.91978
-1.96508
-2.01038
-2.05567
-2.10095
-2.14621
-2.19147
-2.23671
-2.28193
-2.32714
-2.37233
-2.41751
-2.46266
-2.5078
-2.55292
-2.59801
-2.64309
-2.68814
-2.73317
-2.77817
-2.82315
-2.86811
-2.91305
-2.95795
-3.00284
-3.04769
-3.09252
-3.13733
-3.1821
-3.22685
-3.27157
-3.31627
-3.36093
-3.40557
-3.45018
-3.49476
-3.53931
-3.58384
-3.62834
-3.67281
-3.71726
-3.76168
-3.80607
-3.85044
-3.89478
-3.9391
-3.98339
-4.02766
-4.07191
-4.11614
-4.16035
-4.20454
-4.24871
-4.29286
-4.337
-4.38112
-4.42523
-4.46933
-4.51342
-4.5575
-4.60158
-4.64565
-4.68971
-4.73377
-4.77784
-4.8219
-4.86596
-4.91002
-4.95409
-4.99816
-5.04224
-5.08632
-5.1304
-5.17449
-5.21858
-5.26266
-5.30674
-5.35082
-5.39487
-5.43891
-5.48292
-5.52689
-5.57081
-5.61466
-5.65844
-5.70211
-5.74566
-5.78906
-5.83229
-5.8753
-5.91805
-5.96052
-6.00265
-6.0444
-6.08573
1.566
1.52033
1.47487
1.42961
1.38456
1.3397
1.29503
1.25055
1.20628
1.1622
1.11832
1.07462
1.03112
0.987785
0.944621
0.901618
0.858762
0.816048
0.773459
0.730982
0.688602
0.646301
0.604062
0.561868
0.5197
0.477541
0.435375
0.393186
0.350964
0.308697
0.266375
0.223991
0.181539
0.139014
0.0964139
0.0537359
0.010978
-0.0318608
-0.07478
-0.117779
-0.160856
-0.20401
-0.247239
-0.29054
-0.333913
-0.377354
-0.42086
-0.464429
-0.508057
-0.551742
-0.59548
-0.63927
-0.683107
-0.72699
-0.770914
-0.814878
-0.858877
-0.90291
-0.946972
-0.991063
-1.03518
-1.07932
-1.12348
-1.16766
-1.21186
-1.25607
-1.3003
-1.34453
-1.38878
-1.43303
-1.47728
-1.52154
-1.5658
-1.61006
-1.65432
-1.69858
-1.74283
-1.78708
-1.83132
-1.87555
-1.91978
-1.96399
-2.00819
-2.05238
-2.09656
-2.14072
-2.18487
-2.22899
-2.27311
-2.3172
-2.36127
-2.40533
-2.44936
-2.49338
-2.53737
-2.58134
-2.62528
-2.66921
-2.71311
-2.75698
-2.80083
-2.84466
-2.88846
-2.93223
-2.97598
-3.0197
-3.0634
-3.10706
-3.1507
-3.19432
-3.2379
-3.28146
-3.32499
-3.36849
-3.41197
-3.45542
-3.49884
-3.54224
-3.58561
-3.62896
-3.67228
-3.71557
-3.75885
-3.80209
-3.84532
-3.88853
-3.93171
-3.97487
-4.01802
-4.06114
-4.10426
-4.14735
-4.19043
-4.2335
-4.27656
-4.31961
-4.36265
-4.40568
-4.44871
-4.49174
-4.53476
-4.57778
-4.6208
-4.66382
-4.70684
-4.74987
-4.7929
-4.83594
-4.87898
-4.92202
-4.96507
-5.00811
-5.05115
-5.09419
-5.13722
-5.18024
-5.22323
-5.2662
-5.30913
-5.352
-5.39481
-5.43755
-5.48018
-5.52269
-5.56505
-5.60723
-5.6492
-5.69092
-5.73235
-5.77346
-5.8142
-5.85454
1.57605
1.53166
1.4875
1.44355
1.39978
1.3562
1.31282
1.26963
1.22664
1.18384
1.14123
1.09881
1.05655
1.01447
0.972539
0.930759
0.889119
0.847606
0.806203
0.764896
0.723669
0.682503
0.641382
0.600288
0.559203
0.518109
0.476994
0.435844
0.394651
0.353403
0.312094
0.270717
0.22927
0.187748
0.14615
0.104474
0.0627181
0.0208839
-0.0210286
-0.0630174
-0.105081