/*--------------------------------*- C++ -*----------------------------------*\
| =========                 |                                                 |
| \\      /  F ield         | OpenFOAM: The Open Source CFD Toolbox           |
|  \\    /   O peration     | Version:  2512                                  |
|   \\  /    A nd           | Website:  www.openfoam.com                      |
|    \\/     M anipulation  |                                                 |
\*---------------------------------------------------------------------------*/
FoamFile
{
    version     2.0;
    format      ascii;
    arch        "LSB;label=32;scalar=64";
    class       surfaceScalarField;
    location    "0.1";
    object      phi;
}
// * * * * * * * * * * * * * * * * * * * * * * * * * * * * * * * * * * * * * //

dimensions      [1 0 -1 0 0 0 0];

oriented        oriented;

internalField   nonuniform List<scalar> 
16432
(
0.00111082
-9.45478e-07
0.00111122
-9.90754e-07
0.00111173
-1.10785e-06
0.00111226
-1.13092e-06
0.00111275
-1.08635e-06
0.0011132
-1.04882e-06
0.00111364
-1.03866e-06
0.00111407
-1.02875e-06
0.00111449
-1.02119e-06
0.00111491
-1.0211e-06
0.00111533
-1.019e-06
0.00111574
-1.01437e-06
0.00111615
-1.01183e-06
0.00111656
-1.00996e-06
0.00111696
-1.00733e-06
0.00111737
-1.00469e-06
0.00111776
-1.00227e-06
0.00111816
-1.00001e-06
0.00111856
-9.97887e-07
0.00111895
-9.95772e-07
0.00111934
-9.93619e-07
0.00111972
-9.91472e-07
0.00112011
-9.89354e-07
0.00112049
-9.8726e-07
0.00112087
-9.85171e-07
0.00112124
-9.83075e-07
0.00112162
-9.8097e-07
0.00112199
-9.7886e-07
0.00112236
-9.76745e-07
0.00112272
-9.74622e-07
0.00112309
-9.72488e-07
0.00112345
-9.70345e-07
0.00112381
-9.68194e-07
0.00112416
-9.66038e-07
0.00112452
-9.63879e-07
0.00112487
-9.61719e-07
0.00112522
-9.59562e-07
0.00112556
-9.57415e-07
0.00112591
-9.55283e-07
0.00112625
-9.53171e-07
0.00112659
-9.51082e-07
0.00112692
-9.49024e-07
0.00112726
-9.46996e-07
0.00112759
-9.45001e-07
0.00112792
-9.43042e-07
0.00112824
-9.41118e-07
0.00112857
-9.39227e-07
0.00112889
-9.37367e-07
0.00112921
-9.35538e-07
0.00112953
-9.33734e-07
0.00112984
-9.31954e-07
0.00113016
-9.30196e-07
0.00113047
-9.28458e-07
0.00113078
-9.26737e-07
0.00113108
-9.2503e-07
0.00113139
-9.23338e-07
0.00113169
-9.21657e-07
0.00113199
-9.19986e-07
0.00113229
-9.18325e-07
0.00113259
-9.16672e-07
0.00113288
-9.15027e-07
0.00113317
-9.13385e-07
0.00113346
-9.1175e-07
0.00113375
-9.10122e-07
0.00113404
-9.08498e-07
0.00113432
-9.06876e-07
0.00113461
-9.05258e-07
0.00113489
-9.03644e-07
0.00113516
-9.02033e-07
0.00113544
-9.00425e-07
0.00113572
-8.98819e-07
0.00113599
-8.97216e-07
0.00113626
-8.95615e-07
0.00113653
-8.94016e-07
0.00113679
-8.92419e-07
0.00113706
-8.90824e-07
0.00113732
-8.8923e-07
0.00113758
-8.87638e-07
0.00113784
-8.86047e-07
0.00113809
-8.84458e-07
0.00113835
-8.8287e-07
0.0011386
-8.81283e-07
0.00113885
-8.79698e-07
0.0011391
-8.78113e-07
0.00113935
-8.7653e-07
0.00113959
-8.74948e-07
0.00113983
-8.73366e-07
0.00114007
-8.71785e-07
0.00114031
-8.70206e-07
0.00114055
-8.68627e-07
0.00114078
-8.67049e-07
0.00114102
-8.65473e-07
0.00114125
-8.63896e-07
0.00114148
-8.62321e-07
0.0011417
-8.60747e-07
0.00114193
-8.59173e-07
0.00114215
-8.57601e-07
0.00114237
-8.5603e-07
0.00114259
-8.54459e-07
0.00114281
-8.52888e-07
0.00114302
-8.51319e-07
0.00114324
-8.49751e-07
0.00114345
-8.48183e-07
0.00114366
-8.46616e-07
0.00114386
-8.4505e-07
0.00114407
-8.43485e-07
0.00114427
-8.41921e-07
0.00114447
-8.40358e-07
0.00114467
-8.38795e-07
0.00114487
-8.37234e-07
0.00114507
-8.35673e-07
0.00114526
-8.34114e-07
0.00114545
-8.32556e-07
0.00114564
-8.30998e-07
0.00114583
-8.29441e-07
0.00114601
-8.27885e-07
0.0011462
-8.26331e-07
0.00114638
-8.24777e-07
0.00114656
-8.23224e-07
0.00114674
-8.21672e-07
0.00114691
-8.20122e-07
0.00114709
-8.18572e-07
0.00114726
-8.17023e-07
0.00114743
-8.15476e-07
0.0011476
-8.13929e-07
0.00114776
-8.12384e-07
0.00114793
-8.10841e-07
0.00114809
-8.09298e-07
0.00114825
-8.07755e-07
0.00114841
-8.06215e-07
0.00114857
-8.04676e-07
0.00114872
-8.03137e-07
0.00114887
-8.01601e-07
0.00114902
-8.00065e-07
0.00114917
-7.98531e-07
0.00114932
-7.96998e-07
0.00114947
-7.95467e-07
0.00114961
-7.93937e-07
0.00114975
-7.92408e-07
0.00114989
-7.90881e-07
0.00115003
-7.89355e-07
0.00115016
-7.87831e-07
0.0011503
-7.86308e-07
0.00115043
-7.84787e-07
0.00115056
-7.83267e-07
0.00115069
-7.81748e-07
0.00115081
-7.80231e-07
0.00115094
-7.78716e-07
0.00115106
-7.77202e-07
0.00115118
-7.75689e-07
0.0011513
-7.74179e-07
0.00115141
-7.7267e-07
0.00115153
-7.71162e-07
0.00115164
-7.69657e-07
0.00115175
-7.68153e-07
0.00115186
-7.6665e-07
0.00115197
-7.65149e-07
0.00115207
-7.6365e-07
0.00115218
-7.62153e-07
0.00115228
-7.60659e-07
0.00115238
-7.59165e-07
0.00115248
-7.57673e-07
0.00115257
-7.56184e-07
0.00115267
-7.54695e-07
0.00115276
-7.5321e-07
0.00115285
-7.51728e-07
0.00115294
-7.50247e-07
0.00115302
-7.48768e-07
0.00115311
-7.47293e-07
0.00115319
-7.45819e-07
0.00115327
-7.44352e-07
0.00115335
-7.42877e-07
0.00115343
-7.41436e-07
0.00115351
-7.39927e-07
0.00115358
-7.38586e-07
0.00115365
-7.36926e-07
0.00115372
-7.35827e-07
0.00115379
-7.34029e-07
0.00115386
-7.3247e-07
0.00115392
-7.32808e-07
0.00115398
-7.25809e-07
0.00115405
-7.36414e-07
0.00115411
-7.239e-07
-7.59423e-07
0.00210187
0.00210223
-1.50656e-06
0.00210245
-1.49706e-06
0.00210277
-1.62171e-06
0.00210311
-1.59857e-06
0.00210341
-1.53428e-06
0.00210371
-1.51824e-06
0.002104
-1.50021e-06
0.00210428
-1.48557e-06
0.00210455
-1.48746e-06
0.00210483
-1.48594e-06
0.0021051
-1.47949e-06
0.00210536
-1.4775e-06
0.00210563
-1.47683e-06
0.00210589
-1.47466e-06
0.00210614
-1.47248e-06
0.0021064
-1.47064e-06
0.00210665
-1.46908e-06
0.0021069
-1.46784e-06
0.00210715
-1.46665e-06
0.0021074
-1.46538e-06
0.00210764
-1.46413e-06
0.00210788
-1.46294e-06
0.00210812
-1.4618e-06
0.00210836
-1.46069e-06
0.00210859
-1.45958e-06
0.00210882
-1.45846e-06
0.00210905
-1.45735e-06
0.00210928
-1.45623e-06
0.00210951
-1.45511e-06
0.00210973
-1.45399e-06
0.00210995
-1.45285e-06
0.00211017
-1.4517e-06
0.00211038
-1.45055e-06
0.0021106
-1.44939e-06
0.00211081
-1.44822e-06
0.00211102
-1.44706e-06
0.00211123
-1.44589e-06
0.00211143
-1.44475e-06
0.00211163
-1.44362e-06
0.00211183
-1.44251e-06
0.00211203
-1.44145e-06
0.00211223
-1.44042e-06
0.00211242
-1.43944e-06
0.00211261
-1.43851e-06
0.0021128
-1.43763e-06
0.00211299
-1.4368e-06
0.00211317
-1.43603e-06
0.00211335
-1.4353e-06
0.00211353
-1.43462e-06
0.00211371
-1.43397e-06
0.00211389
-1.43337e-06
0.00211406
-1.4328e-06
0.00211423
-1.43226e-06
0.0021144
-1.43175e-06
0.00211457
-1.43126e-06
0.00211473
-1.43079e-06
0.0021149
-1.43035e-06
0.00211506
-1.42992e-06
0.00211522
-1.4295e-06
0.00211537
-1.4291e-06
0.00211553
-1.42871e-06
0.00211568
-1.42833e-06
0.00211583
-1.42797e-06
0.00211598
-1.42761e-06
0.00211613
-1.42726e-06
0.00211627
-1.42691e-06
0.00211642
-1.42657e-06
0.00211656
-1.42623e-06
0.0021167
-1.42591e-06
0.00211684
-1.42558e-06
0.00211697
-1.42526e-06
0.0021171
-1.42495e-06
0.00211723
-1.42463e-06
0.00211736
-1.42432e-06
0.00211749
-1.42402e-06
0.00211762
-1.42371e-06
0.00211774
-1.42341e-06
0.00211786
-1.42311e-06
0.00211798
-1.42282e-06
0.0021181
-1.42252e-06
0.00211821
-1.42223e-06
0.00211832
-1.42194e-06
0.00211844
-1.42165e-06
0.00211855
-1.42136e-06
0.00211865
-1.42107e-06
0.00211876
-1.42078e-06
0.00211886
-1.4205e-06
0.00211896
-1.42021e-06
0.00211906
-1.41993e-06
0.00211916
-1.41965e-06
0.00211926
-1.41936e-06
0.00211935
-1.41908e-06
0.00211944
-1.4188e-06
0.00211953
-1.41852e-06
0.00211962
-1.41824e-06
0.0021197
-1.41796e-06
0.00211979
-1.41769e-06
0.00211987
-1.41741e-06
0.00211995
-1.41713e-06
0.00212003
-1.41685e-06
0.0021201
-1.41658e-06
0.00212018
-1.4163e-06
0.00212025
-1.41603e-06
0.00212032
-1.41575e-06
0.00212039
-1.41548e-06
0.00212045
-1.4152e-06
0.00212052
-1.41493e-06
0.00212058
-1.41465e-06
0.00212064
-1.41438e-06
0.0021207
-1.4141e-06
0.00212075
-1.41383e-06
0.00212081
-1.41356e-06
0.00212086
-1.41329e-06
0.00212091
-1.41301e-06
0.00212096
-1.41274e-06
0.00212101
-1.41247e-06
0.00212105
-1.4122e-06
0.00212109
-1.41193e-06
0.00212113
-1.41166e-06
0.00212117
-1.41138e-06
0.00212121
-1.41111e-06
0.00212125
-1.41084e-06
0.00212128
-1.41057e-06
0.00212131
-1.4103e-06
0.00212134
-1.41003e-06
0.00212137
-1.40976e-06
0.00212139
-1.40949e-06
0.00212142
-1.40922e-06
0.00212144
-1.40895e-06
0.00212146
-1.40868e-06
0.00212147
-1.40842e-06
0.00212149
-1.40815e-06
0.0021215
-1.40788e-06
0.00212152
-1.40761e-06
0.00212153
-1.40734e-06
0.00212153
-1.40708e-06
0.00212154
-1.40681e-06
0.00212154
-1.40654e-06
0.00212155
-1.40628e-06
0.00212155
-1.40601e-06
0.00212155
-1.40575e-06
0.00212154
-1.40548e-06
0.00212154
-1.40522e-06
0.00212153
-1.40495e-06
0.00212152
-1.40469e-06
0.00212151
-1.40443e-06
0.0021215
-1.40416e-06
0.00212148
-1.4039e-06
0.00212147
-1.40364e-06
0.00212145
-1.40337e-06
0.00212143
-1.40311e-06
0.00212141
-1.40285e-06
0.00212138
-1.40259e-06
0.00212136
-1.40233e-06
0.00212133
-1.40207e-06
0.0021213
-1.40181e-06
0.00212127
-1.40155e-06
0.00212123
-1.40129e-06
0.0021212
-1.40103e-06
0.00212116
-1.40077e-06
0.00212112
-1.40052e-06
0.00212108
-1.40026e-06
0.00212104
-1.4e-06
0.00212099
-1.39975e-06
0.00212095
-1.39949e-06
0.0021209
-1.39924e-06
0.00212085
-1.39899e-06
0.0021208
-1.39874e-06
0.00212074
-1.39849e-06
0.00212069
-1.39825e-06
0.00212063
-1.398e-06
0.00212057
-1.39779e-06
0.00212051
-1.39749e-06
0.00212045
-1.39743e-06
0.00212038
-1.39692e-06
0.00212032
-1.39725e-06
0.00212025
-1.39643e-06
0.00212018
-1.39653e-06
0.00212011
-1.39818e-06
0.00212003
-1.39173e-06
0.00211996
-1.40575e-06
0.00211988
-1.38988e-06
-1.40592e-06
0.00250694
0.0025071
-1.71313e-06
0.00250708
-1.67245e-06
0.00250712
-1.70074e-06
0.00250719
-1.67255e-06
0.00250726
-1.65889e-06
0.00250731
-1.6294e-06
0.00250736
-1.6087e-06
0.00250741
-1.61274e-06
0.00250746
-1.61103e-06
0.0025075
-1.60233e-06
0.00250754
-1.60026e-06
0.00250758
-1.59976e-06
0.00250762
-1.59717e-06
0.00250765
-1.5947e-06
0.00250768
-1.59252e-06
0.00250771
-1.59064e-06
0.00250774
-1.58923e-06
0.00250777
-1.58791e-06
0.00250779
-1.58649e-06
0.00250781
-1.58509e-06
0.00250783
-1.58376e-06
0.00250785
-1.58252e-06
0.00250786
-1.58133e-06
0.00250788
-1.58016e-06
0.00250789
-1.57898e-06
0.0025079
-1.57782e-06
0.00250791
-1.57668e-06
0.00250791
-1.57555e-06
0.00250792
-1.57442e-06
0.00250792
-1.5733e-06
0.00250792
-1.57217e-06
0.00250792
-1.57104e-06
0.00250791
-1.56992e-06
0.00250791
-1.56878e-06
0.0025079
-1.56764e-06
0.00250789
-1.5665e-06
0.00250788
-1.56536e-06
0.00250787
-1.56422e-06
0.00250785
-1.56309e-06
0.00250783
-1.56198e-06
0.00250781
-1.56089e-06
0.00250779
-1.55984e-06
0.00250777
-1.55882e-06
0.00250775
-1.55785e-06
0.00250772
-1.55693e-06
0.00250769
-1.55605e-06
0.00250766
-1.55522e-06
0.00250762
-1.55443e-06
0.00250759
-1.55369e-06
0.00250755
-1.55298e-06
0.00250751
-1.55231e-06
0.00250747
-1.55168e-06
0.00250743
-1.55107e-06
0.00250738
-1.5505e-06
0.00250733
-1.54994e-06
0.00250729
-1.54941e-06
0.00250723
-1.5489e-06
0.00250718
-1.54841e-06
0.00250712
-1.54793e-06
0.00250707
-1.54747e-06
0.00250701
-1.54702e-06
0.00250695
-1.54658e-06
0.00250688
-1.54616e-06
0.00250682
-1.54574e-06
0.00250675
-1.54533e-06
0.00250668
-1.54492e-06
0.00250661
-1.54453e-06
0.00250654
-1.54414e-06
0.00250646
-1.54375e-06
0.00250638
-1.54338e-06
0.0025063
-1.543e-06
0.00250622
-1.54263e-06
0.00250614
-1.54227e-06
0.00250605
-1.54191e-06
0.00250597
-1.54155e-06
0.00250588
-1.54119e-06
0.00250579
-1.54084e-06
0.00250569
-1.54049e-06
0.0025056
-1.54014e-06
0.0025055
-1.5398e-06
0.0025054
-1.53946e-06
0.0025053
-1.53912e-06
0.0025052
-1.53878e-06
0.00250509
-1.53844e-06
0.00250499
-1.5381e-06
0.00250488
-1.53777e-06
0.00250477
-1.53743e-06
0.00250465
-1.5371e-06
0.00250454
-1.53677e-06
0.00250442
-1.53644e-06
0.0025043
-1.53611e-06
0.00250418
-1.53578e-06
0.00250406
-1.53545e-06
0.00250393
-1.53513e-06
0.00250381
-1.5348e-06
0.00250368
-1.53448e-06
0.00250355
-1.53415e-06
0.00250342
-1.53383e-06
0.00250328
-1.5335e-06
0.00250314
-1.53318e-06
0.00250301
-1.53286e-06
0.00250287
-1.53254e-06
0.00250272
-1.53221e-06
0.00250258
-1.53189e-06
0.00250243
-1.53157e-06
0.00250228
-1.53125e-06
0.00250213
-1.53093e-06
0.00250198
-1.53061e-06
0.00250183
-1.53029e-06
0.00250167
-1.52997e-06
0.00250151
-1.52965e-06
0.00250136
-1.52934e-06
0.00250119
-1.52902e-06
0.00250103
-1.5287e-06
0.00250086
-1.52838e-06
0.0025007
-1.52807e-06
0.00250053
-1.52775e-06
0.00250036
-1.52743e-06
0.00250018
-1.52712e-06
0.00250001
-1.5268e-06
0.00249983
-1.52648e-06
0.00249965
-1.52617e-06
0.00249947
-1.52585e-06
0.00249929
-1.52554e-06
0.0024991
-1.52522e-06
0.00249891
-1.52491e-06
0.00249873
-1.52459e-06
0.00249854
-1.52428e-06
0.00249834
-1.52396e-06
0.00249815
-1.52365e-06
0.00249795
-1.52334e-06
0.00249775
-1.52303e-06
0.00249755
-1.52271e-06
0.00249735
-1.5224e-06
0.00249715
-1.52209e-06
0.00249694
-1.52178e-06
0.00249673
-1.52147e-06
0.00249652
-1.52116e-06
0.00249631
-1.52085e-06
0.0024961
-1.52054e-06
0.00249588
-1.52023e-06
0.00249566
-1.51992e-06
0.00249545
-1.51961e-06
0.00249522
-1.51931e-06
0.002495
-1.519e-06
0.00249478
-1.51869e-06
0.00249455
-1.51838e-06
0.00249432
-1.51808e-06
0.00249409
-1.51777e-06
0.00249386
-1.51746e-06
0.00249362
-1.51716e-06
0.00249339
-1.51685e-06
0.00249315
-1.51655e-06
0.00249291
-1.51624e-06
0.00249267
-1.51594e-06
0.00249242
-1.51563e-06
0.00249218
-1.51533e-06
0.00249193
-1.51503e-06
0.00249168
-1.51472e-06
0.00249143
-1.51442e-06
0.00249118
-1.51412e-06
0.00249092
-1.51381e-06
0.00249066
-1.51351e-06
0.0024904
-1.51321e-06
0.00249014
-1.51291e-06
0.00248988
-1.51262e-06
0.00248962
-1.51232e-06
0.00248935
-1.51203e-06
0.00248908
-1.51174e-06
0.00248881
-1.51145e-06
0.00248854
-1.51121e-06
0.00248827
-1.51088e-06
0.00248799
-1.51077e-06
0.00248772
-1.51027e-06
0.00248744
-1.51053e-06
0.00248716
-1.50978e-06
0.00248687
-1.50987e-06
0.00248659
-1.51141e-06
0.0024863
-1.50595e-06
0.00248602
-1.51871e-06
0.00248573
-1.5057e-06
-1.5173e-06
0.0026357
0.0026357
-1.73172e-06
0.00263559
-1.64833e-06
0.00263552
-1.66836e-06
0.00263547
-1.67702e-06
0.00263542
-1.64252e-06
0.00263536
-1.61963e-06
0.00263529
-1.62477e-06
0.00263523
-1.62148e-06
0.00263516
-1.61129e-06
0.00263509
-1.60991e-06
0.00263502
-1.60956e-06
0.00263495
-1.60673e-06
0.00263488
-1.60433e-06
0.0026348
-1.60205e-06
0.00263472
-1.60003e-06
0.00263464
-1.59865e-06
0.00263456
-1.59735e-06
0.00263448
-1.59592e-06
0.00263439
-1.59451e-06
0.0026343
-1.59319e-06
0.00263421
-1.59199e-06
0.00263412
-1.59085e-06
0.00263403
-1.58974e-06
0.00263393
-1.58864e-06
0.00263383
-1.58759e-06
0.00263374
-1.58656e-06
0.00263363
-1.58557e-06
0.00263353
-1.5846e-06
0.00263343
-1.58365e-06
0.00263332
-1.58271e-06
0.00263321
-1.58179e-06
0.0026331
-1.58087e-06
0.00263299
-1.57996e-06
0.00263288
-1.57903e-06
0.00263277
-1.57809e-06
0.00263265
-1.57714e-06
0.00263253
-1.57617e-06
0.00263241
-1.57519e-06
0.00263229
-1.57421e-06
0.00263217
-1.57322e-06
0.00263204
-1.57223e-06
0.00263191
-1.57127e-06
0.00263179
-1.57033e-06
0.00263165
-1.56941e-06
0.00263152
-1.56853e-06
0.00263139
-1.56768e-06
0.00263125
-1.56686e-06
0.00263111
-1.56608e-06
0.00263097
-1.56533e-06
0.00263083
-1.56461e-06
0.00263068
-1.56393e-06
0.00263054
-1.56326e-06
0.00263039
-1.56263e-06
0.00263024
-1.56202e-06
0.00263008
-1.56143e-06
0.00262993
-1.56087e-06
0.00262977
-1.56031e-06
0.00262961
-1.55978e-06
0.00262945
-1.55926e-06
0.00262929
-1.55875e-06
0.00262913
-1.55826e-06
0.00262896
-1.55778e-06
0.00262879
-1.5573e-06
0.00262862
-1.55684e-06
0.00262845
-1.55638e-06
0.00262827
-1.55593e-06
0.0026281
-1.55549e-06
0.00262792
-1.55505e-06
0.00262774
-1.55462e-06
0.00262756
-1.55419e-06
0.00262737
-1.55377e-06
0.00262719
-1.55335e-06
0.002627
-1.55294e-06
0.00262681
-1.55253e-06
0.00262661
-1.55213e-06
0.00262642
-1.55173e-06
0.00262622
-1.55132e-06
0.00262603
-1.55093e-06
0.00262583
-1.55053e-06
0.00262562
-1.55014e-06
0.00262542
-1.54975e-06
0.00262521
-1.54936e-06
0.00262501
-1.54898e-06
0.0026248
-1.54859e-06
0.00262458
-1.54821e-06
0.00262437
-1.54783e-06
0.00262415
-1.54745e-06
0.00262394
-1.54707e-06
0.00262372
-1.54669e-06
0.00262349
-1.54631e-06
0.00262327
-1.54594e-06
0.00262305
-1.54556e-06
0.00262282
-1.54519e-06
0.00262259
-1.54481e-06
0.00262236
-1.54444e-06
0.00262212
-1.54407e-06
0.00262189
-1.5437e-06
0.00262165
-1.54333e-06
0.00262141
-1.54296e-06
0.00262117
-1.54259e-06
0.00262093
-1.54222e-06
0.00262068
-1.54185e-06
0.00262043
-1.54148e-06
0.00262018
-1.54112e-06
0.00261993
-1.54075e-06
0.00261968
-1.54038e-06
0.00261943
-1.54002e-06
0.00261917
-1.53965e-06
0.00261891
-1.53929e-06
0.00261865
-1.53893e-06
0.00261839
-1.53856e-06
0.00261812
-1.5382e-06
0.00261785
-1.53783e-06
0.00261759
-1.53747e-06
0.00261732
-1.53711e-06
0.00261704
-1.53675e-06
0.00261677
-1.53638e-06
0.00261649
-1.53602e-06
0.00261621
-1.53566e-06
0.00261593
-1.5353e-06
0.00261565
-1.53494e-06
0.00261537
-1.53458e-06
0.00261508
-1.53422e-06
0.00261479
-1.53386e-06
0.0026145
-1.5335e-06
0.00261421
-1.53314e-06
0.00261392
-1.53278e-06
0.00261362
-1.53242e-06
0.00261333
-1.53206e-06
0.00261303
-1.5317e-06
0.00261273
-1.53134e-06
0.00261242
-1.53099e-06
0.00261212
-1.53063e-06
0.00261181
-1.53027e-06
0.0026115
-1.52992e-06
0.00261119
-1.52956e-06
0.00261088
-1.52921e-06
0.00261056
-1.52885e-06
0.00261025
-1.5285e-06
0.00260993
-1.52815e-06
0.00260961
-1.52779e-06
0.00260928
-1.52744e-06
0.00260896
-1.52709e-06
0.00260863
-1.52674e-06
0.00260831
-1.52638e-06
0.00260798
-1.52603e-06
0.00260765
-1.52568e-06
0.00260731
-1.52533e-06
0.00260698
-1.52498e-06
0.00260664
-1.52463e-06
0.0026063
-1.52427e-06
0.00260596
-1.52392e-06
0.00260562
-1.52357e-06
0.00260527
-1.52322e-06
0.00260492
-1.52287e-06
0.00260457
-1.52252e-06
0.00260422
-1.52217e-06
0.00260387
-1.52182e-06
0.00260352
-1.52147e-06
0.00260316
-1.52112e-06
0.0026028
-1.52077e-06
0.00260244
-1.52042e-06
0.00260208
-1.52007e-06
0.00260172
-1.51972e-06
0.00260135
-1.51938e-06
0.00260099
-1.51903e-06
0.00260062
-1.51869e-06
0.00260025
-1.51836e-06
0.00259987
-1.51802e-06
0.0025995
-1.51773e-06
0.00259912
-1.51738e-06
0.00259874
-1.51719e-06
0.00259836
-1.51674e-06
0.00259798
-1.51682e-06
0.0025976
-1.51634e-06
0.00259721
-1.51608e-06
0.00259683
-1.51801e-06
0.00259644
-1.51283e-06
0.00259605
-1.52419e-06
0.00259565
-1.51293e-06
-1.52452e-06
0.00266877
-1.79618e-06
0.00266863
-1.56668e-06
0.00266852
-1.62298e-06
0.00266843
-1.65841e-06
0.00266834
-1.61649e-06
0.00266824
-1.5925e-06
0.00266814
-1.60115e-06
0.00266804
-1.59624e-06
0.00266794
-1.58452e-06
0.00266784
-1.58431e-06
0.00266773
-1.584e-06
0.00266762
-1.58094e-06
0.00266751
-1.5788e-06
0.0026674
-1.57645e-06
0.00266729
-1.57436e-06
0.00266717
-1.5731e-06
0.00266706
-1.57185e-06
0.00266694
-1.57046e-06
0.00266682
-1.5691e-06
0.00266669
-1.56784e-06
0.00266657
-1.5667e-06
0.00266644
-1.56567e-06
0.00266631
-1.56467e-06
0.00266618
-1.5637e-06
0.00266605
-1.56278e-06
0.00266592
-1.56191e-06
0.00266578
-1.56111e-06
0.00266565
-1.56034e-06
0.00266551
-1.55961e-06
0.00266537
-1.55892e-06
0.00266523
-1.55825e-06
0.00266508
-1.5576e-06
0.00266494
-1.55696e-06
0.00266479
-1.5563e-06
0.00266464
-1.55563e-06
0.00266449
-1.55493e-06
0.00266434
-1.55419e-06
0.00266419
-1.55342e-06
0.00266403
-1.55262e-06
0.00266388
-1.55177e-06
0.00266372
-1.55092e-06
0.00266356
-1.55005e-06
0.00266339
-1.54918e-06
0.00266323
-1.54831e-06
0.00266306
-1.54746e-06
0.00266289
-1.54662e-06
0.00266272
-1.54581e-06
0.00266255
-1.54501e-06
0.00266238
-1.54424e-06
0.0026622
-1.5435e-06
0.00266202
-1.54278e-06
0.00266184
-1.54208e-06
0.00266166
-1.54141e-06
0.00266148
-1.54075e-06
0.00266129
-1.54012e-06
0.0026611
-1.5395e-06
0.00266091
-1.5389e-06
0.00266072
-1.53832e-06
0.00266053
-1.53774e-06
0.00266033
-1.53719e-06
0.00266014
-1.53665e-06
0.00265994
-1.53611e-06
0.00265973
-1.53559e-06
0.00265953
-1.53507e-06
0.00265933
-1.53456e-06
0.00265912
-1.53406e-06
0.00265891
-1.53357e-06
0.0026587
-1.53308e-06
0.00265848
-1.5326e-06
0.00265827
-1.53212e-06
0.00265805
-1.53165e-06
0.00265783
-1.53119e-06
0.00265761
-1.53072e-06
0.00265739
-1.53027e-06
0.00265716
-1.52981e-06
0.00265693
-1.52936e-06
0.0026567
-1.52891e-06
0.00265647
-1.52847e-06
0.00265624
-1.52802e-06
0.002656
-1.52758e-06
0.00265577
-1.52715e-06
0.00265553
-1.52671e-06
0.00265529
-1.52628e-06
0.00265504
-1.52584e-06
0.0026548
-1.52541e-06
0.00265455
-1.52498e-06
0.0026543
-1.52456e-06
0.00265405
-1.52413e-06
0.0026538
-1.5237e-06
0.00265354
-1.52328e-06
0.00265329
-1.52286e-06
0.00265303
-1.52244e-06
0.00265277
-1.52201e-06
0.00265251
-1.52159e-06
0.00265224
-1.52118e-06
0.00265197
-1.52076e-06
0.00265171
-1.52034e-06
0.00265144
-1.51993e-06
0.00265116
-1.51951e-06
0.00265089
-1.51909e-06
0.00265061
-1.51868e-06
0.00265033
-1.51827e-06
0.00265005
-1.51785e-06
0.00264977
-1.51744e-06
0.00264949
-1.51703e-06
0.0026492
-1.51662e-06
0.00264891
-1.51621e-06
0.00264862
-1.51579e-06
0.00264833
-1.51538e-06
0.00264804
-1.51497e-06
0.00264774
-1.51457e-06
0.00264744
-1.51416e-06
0.00264714
-1.51375e-06
0.00264684
-1.51334e-06
0.00264654
-1.51293e-06
0.00264623
-1.51253e-06
0.00264593
-1.51212e-06
0.00264562
-1.51171e-06
0.00264531
-1.5113e-06
0.00264499
-1.5109e-06
0.00264468
-1.51049e-06
0.00264436
-1.51009e-06
0.00264404
-1.50968e-06
0.00264372
-1.50927e-06
0.0026434
-1.50887e-06
0.00264307
-1.50846e-06
0.00264275
-1.50806e-06
0.00264242
-1.50766e-06
0.00264209
-1.50725e-06
0.00264175
-1.50685e-06
0.00264142
-1.50645e-06
0.00264108
-1.50605e-06
0.00264074
-1.50564e-06
0.0026404
-1.50524e-06
0.00264006
-1.50484e-06
0.00263972
-1.50445e-06
0.00263937
-1.50405e-06
0.00263903
-1.50365e-06
0.00263868
-1.50325e-06
0.00263832
-1.50285e-06
0.00263797
-1.50245e-06
0.00263762
-1.50206e-06
0.00263726
-1.50166e-06
0.0026369
-1.50126e-06
0.00263654
-1.50087e-06
0.00263617
-1.50047e-06
0.00263581
-1.50007e-06
0.00263544
-1.49968e-06
0.00263507
-1.49928e-06
0.0026347
-1.49888e-06
0.00263433
-1.49849e-06
0.00263396
-1.49809e-06
0.00263358
-1.4977e-06
0.0026332
-1.4973e-06
0.00263282
-1.4969e-06
0.00263244
-1.4965e-06
0.00263206
-1.49611e-06
0.00263167
-1.49571e-06
0.00263129
-1.49531e-06
0.0026309
-1.49491e-06
0.00263051
-1.49451e-06
0.00263011
-1.49411e-06
0.00262972
-1.49372e-06
0.00262932
-1.49332e-06
0.00262892
-1.49292e-06
0.00262852
-1.49253e-06
0.00262812
-1.49214e-06
0.00262772
-1.49176e-06
0.00262731
-1.49137e-06
0.0026269
-1.49102e-06
0.00262649
-1.49064e-06
0.00262608
-1.49038e-06
0.00262567
-1.48996e-06
0.00262525
-1.48986e-06
0.00262484
-1.48962e-06
0.00262442
-1.48905e-06
0.002624
-1.49111e-06
0.00262358
-1.48667e-06
0.00262315
-1.49599e-06
0.00262273
-1.48811e-06
-1.49607e-06
0.00267571
0.00267577
-1.68013e-06
0.00267562
-1.53723e-06
0.00267549
-1.59461e-06
0.00267539
-1.5896e-06
0.00267529
-1.56466e-06
0.00267519
-1.56844e-06
0.00267508
-1.56058e-06
0.00267496
-1.5489e-06
0.00267485
-1.55046e-06
0.00267474
-1.54961e-06
0.00267462
-1.54631e-06
0.0026745
-1.54461e-06
0.00267438
-1.54213e-06
0.00267426
-1.54001e-06
0.00267414
-1.53892e-06
0.00267401
-1.53776e-06
0.00267388
-1.5364e-06
0.00267376
-1.53509e-06
0.00267362
-1.5339e-06
0.00267349
-1.53286e-06
0.00267336
-1.53194e-06
0.00267322
-1.53106e-06
0.00267308
-1.53021e-06
0.00267294
-1.52945e-06
0.0026728
-1.52876e-06
0.00267266
-1.52815e-06
0.00267251
-1.5276e-06
0.00267236
-1.52711e-06
0.00267221
-1.52666e-06
0.00267206
-1.52626e-06
0.00267191
-1.52589e-06
0.00267176
-1.52554e-06
0.0026716
-1.52516e-06
0.00267145
-1.52477e-06
0.00267129
-1.52434e-06
0.00267113
-1.52384e-06
0.00267097
-1.52329e-06
0.0026708
-1.52269e-06
0.00267064
-1.52201e-06
0.00267047
-1.52128e-06
0.0026703
-1.52052e-06
0.00267013
-1.51974e-06
0.00266996
-1.51893e-06
0.00266978
-1.51812e-06
0.00266961
-1.51731e-06
0.00266943
-1.5165e-06
0.00266925
-1.5157e-06
0.00266907
-1.51492e-06
0.00266888
-1.51415e-06
0.0026687
-1.5134e-06
0.00266851
-1.51267e-06
0.00266832
-1.51196e-06
0.00266812
-1.51127e-06
0.00266793
-1.51059e-06
0.00266773
-1.50993e-06
0.00266754
-1.50929e-06
0.00266734
-1.50866e-06
0.00266713
-1.50804e-06
0.00266693
-1.50743e-06
0.00266673
-1.50684e-06
0.00266652
-1.50626e-06
0.00266631
-1.50569e-06
0.0026661
-1.50512e-06
0.00266588
-1.50456e-06
0.00266567
-1.50401e-06
0.00266545
-1.50347e-06
0.00266523
-1.50293e-06
0.00266501
-1.50241e-06
0.00266478
-1.50188e-06
0.00266456
-1.50136e-06
0.00266433
-1.50085e-06
0.0026641
-1.50034e-06
0.00266387
-1.49983e-06
0.00266364
-1.49933e-06
0.0026634
-1.49883e-06
0.00266316
-1.49833e-06
0.00266292
-1.49784e-06
0.00266268
-1.49735e-06
0.00266244
-1.49686e-06
0.00266219
-1.49638e-06
0.00266195
-1.49589e-06
0.0026617
-1.49541e-06
0.00266145
-1.49493e-06
0.00266119
-1.49445e-06
0.00266094
-1.49398e-06
0.00266068
-1.4935e-06
0.00266042
-1.49303e-06
0.00266016
-1.49256e-06
0.0026599
-1.49209e-06
0.00265963
-1.49162e-06
0.00265937
-1.49115e-06
0.0026591
-1.49068e-06
0.00265883
-1.49022e-06
0.00265855
-1.48975e-06
0.00265828
-1.48929e-06
0.002658
-1.48883e-06
0.00265772
-1.48836e-06
0.00265744
-1.4879e-06
0.00265716
-1.48744e-06
0.00265687
-1.48698e-06
0.00265659
-1.48652e-06
0.0026563
-1.48606e-06
0.00265601
-1.4856e-06
0.00265572
-1.48515e-06
0.00265542
-1.48469e-06
0.00265513
-1.48423e-06
0.00265483
-1.48378e-06
0.00265453
-1.48332e-06
0.00265423
-1.48287e-06
0.00265392
-1.48241e-06
0.00265362
-1.48196e-06
0.00265331
-1.48151e-06
0.002653
-1.48105e-06
0.00265269
-1.4806e-06
0.00265237
-1.48015e-06
0.00265206
-1.4797e-06
0.00265174
-1.47924e-06
0.00265142
-1.47879e-06
0.0026511
-1.47834e-06
0.00265078
-1.47789e-06
0.00265045
-1.47744e-06
0.00265012
-1.47699e-06
0.00264979
-1.47654e-06
0.00264946
-1.47609e-06
0.00264913
-1.47564e-06
0.0026488
-1.47519e-06
0.00264846
-1.47474e-06
0.00264812
-1.4743e-06
0.00264778
-1.47385e-06
0.00264744
-1.4734e-06
0.00264709
-1.47295e-06
0.00264675
-1.47251e-06
0.0026464
-1.47206e-06
0.00264605
-1.47162e-06
0.0026457
-1.47118e-06
0.00264534
-1.47073e-06
0.00264499
-1.47029e-06
0.00264463
-1.46985e-06
0.00264427
-1.46941e-06
0.00264391
-1.46896e-06
0.00264354
-1.46852e-06
0.00264318
-1.46808e-06
0.00264281
-1.46764e-06
0.00264244
-1.4672e-06
0.00264207
-1.46676e-06
0.0026417
-1.46632e-06
0.00264132
-1.46587e-06
0.00264095
-1.46543e-06
0.00264057
-1.46499e-06
0.00264019
-1.46455e-06
0.00263981
-1.46411e-06
0.00263942
-1.46367e-06
0.00263903
-1.46322e-06
0.00263865
-1.46278e-06
0.00263826
-1.46234e-06
0.00263787
-1.46189e-06
0.00263747
-1.46145e-06
0.00263708
-1.461e-06
0.00263668
-1.46055e-06
0.00263628
-1.46011e-06
0.00263588
-1.45966e-06
0.00263548
-1.45921e-06
0.00263507
-1.45876e-06
0.00263466
-1.45832e-06
0.00263426
-1.45787e-06
0.00263385
-1.45743e-06
0.00263343
-1.457e-06
0.00263302
-1.45656e-06
0.0026326
-1.45616e-06
0.00263219
-1.45574e-06
0.00263177
-1.45541e-06
0.00263135
-1.45501e-06
0.00263092
-1.45477e-06
0.0026305
-1.45466e-06
0.00263007
-1.45392e-06
0.00262964
-1.45592e-06
0.00262921
-1.45218e-06
0.00262878
-1.45962e-06
0.00262835
-1.45419e-06
-1.46018e-06
0.00267696
0.00267695
-1.58179e-06
0.0026768
-1.51223e-06
0.00267668
-1.54135e-06
0.00267658
-1.53512e-06
0.00267648
-1.53923e-06
0.00267637
-1.52374e-06
0.00267625
-1.51135e-06
0.00267614
-1.51522e-06
0.00267602
-1.51341e-06
0.0026759
-1.50995e-06
0.00267579
-1.50882e-06
0.00267566
-1.50603e-06
0.00267554
-1.50387e-06
0.00267541
-1.50306e-06
0.00267529
-1.50193e-06
0.00267516
-1.50061e-06
0.00267503
-1.49937e-06
0.00267489
-1.49823e-06
0.00267476
-1.49729e-06
0.00267462
-1.49649e-06
0.00267448
-1.49573e-06
0.00267434
-1.49503e-06
0.0026742
-1.4944e-06
0.00267406
-1.49389e-06
0.00267391
-1.49347e-06
0.00267377
-1.49314e-06
0.00267362
-1.49288e-06
0.00267347
-1.49269e-06
0.00267332
-1.49255e-06
0.00267316
-1.49247e-06
0.00267301
-1.4924e-06
0.00267285
-1.49231e-06
0.00267269
-1.4922e-06
0.00267253
-1.49203e-06
0.00267237
-1.49179e-06
0.0026722
-1.49146e-06
0.00267204
-1.49104e-06
0.00267187
-1.49053e-06
0.0026717
-1.48995e-06
0.00267153
-1.4893e-06
0.00267136
-1.48859e-06
0.00267119
-1.48785e-06
0.00267101
-1.48708e-06
0.00267083
-1.48629e-06
0.00267065
-1.4855e-06
0.00267047
-1.4847e-06
0.00267029
-1.48391e-06
0.0026701
-1.48312e-06
0.00266991
-1.48235e-06
0.00266972
-1.48159e-06
0.00266953
-1.48085e-06
0.00266934
-1.48011e-06
0.00266914
-1.4794e-06
0.00266894
-1.47869e-06
0.00266874
-1.47801e-06
0.00266854
-1.47733e-06
0.00266834
-1.47667e-06
0.00266813
-1.47602e-06
0.00266793
-1.47538e-06
0.00266772
-1.47475e-06
0.0026675
-1.47413e-06
0.00266729
-1.47351e-06
0.00266708
-1.47291e-06
0.00266686
-1.47231e-06
0.00266664
-1.47172e-06
0.00266642
-1.47114e-06
0.00266619
-1.47056e-06
0.00266597
-1.46999e-06
0.00266574
-1.46942e-06
0.00266551
-1.46886e-06
0.00266528
-1.4683e-06
0.00266505
-1.46774e-06
0.00266481
-1.46719e-06
0.00266458
-1.46665e-06
0.00266434
-1.4661e-06
0.0026641
-1.46556e-06
0.00266385
-1.46502e-06
0.00266361
-1.46449e-06
0.00266336
-1.46396e-06
0.00266311
-1.46343e-06
0.00266286
-1.4629e-06
0.00266261
-1.46237e-06
0.00266235
-1.46185e-06
0.0026621
-1.46132e-06
0.00266184
-1.4608e-06
0.00266158
-1.46028e-06
0.00266131
-1.45977e-06
0.00266105
-1.45925e-06
0.00266078
-1.45873e-06
0.00266051
-1.45822e-06
0.00266024
-1.4577e-06
0.00265997
-1.45719e-06
0.0026597
-1.45668e-06
0.00265942
-1.45617e-06
0.00265914
-1.45566e-06
0.00265886
-1.45516e-06
0.00265858
-1.45465e-06
0.0026583
-1.45414e-06
0.00265801
-1.45364e-06
0.00265772
-1.45313e-06
0.00265743
-1.45263e-06
0.00265714
-1.45212e-06
0.00265684
-1.45162e-06
0.00265655
-1.45112e-06
0.00265625
-1.45062e-06
0.00265595
-1.45012e-06
0.00265565
-1.44962e-06
0.00265535
-1.44912e-06
0.00265504
-1.44862e-06
0.00265473
-1.44812e-06
0.00265442
-1.44762e-06
0.00265411
-1.44712e-06
0.0026538
-1.44663e-06
0.00265348
-1.44613e-06
0.00265317
-1.44563e-06
0.00265285
-1.44513e-06
0.00265253
-1.44464e-06
0.0026522
-1.44414e-06
0.00265188
-1.44365e-06
0.00265155
-1.44315e-06
0.00265122
-1.44266e-06
0.00265089
-1.44216e-06
0.00265056
-1.44167e-06
0.00265022
-1.44117e-06
0.00264989
-1.44068e-06
0.00264955
-1.44019e-06
0.00264921
-1.43969e-06
0.00264887
-1.4392e-06
0.00264852
-1.43871e-06
0.00264818
-1.43822e-06
0.00264783