/*--------------------------------*- C++ -*----------------------------------*\
| =========                 |                                                 |
| \\      /  F ield         | OpenFOAM: The Open Source CFD Toolbox           |
|  \\    /   O peration     | Version:  2512                                  |
|   \\  /    A nd           | Website:  www.openfoam.com                      |
|    \\/     M anipulation  |                                                 |
\*---------------------------------------------------------------------------*/
FoamFile
{
    version     2.0;
    format      ascii;
    arch        "LSB;label=32;scalar=64";
    class       surfaceScalarField;
    location    "0.1";
    object      phiB;
}
// * * * * * * * * * * * * * * * * * * * * * * * * * * * * * * * * * * * * * //

dimensions      [1 2 -2 0 0 -1 0];

oriented        oriented;

internalField   nonuniform List<scalar> 
16432
(
7.93659e-09
0.00192
7.93602e-09
0.00192
7.93526e-09
0.00192
7.93485e-09
0.00192
7.93457e-09
0.00192
7.93422e-09
0.00192
7.93382e-09
0.00192
7.9334e-09
0.00192
7.93292e-09
0.00192
7.93241e-09
0.00192
7.9319e-09
0.00192
7.93136e-09
0.00192
7.9308e-09
0.00192
7.93023e-09
0.00192
7.92965e-09
0.00192
7.92905e-09
0.00192
7.92845e-09
0.00192
7.92784e-09
0.00192
7.92722e-09
0.00192
7.92659e-09
0.00192
7.92596e-09
0.00192
7.92533e-09
0.00192
7.9247e-09
0.00192
7.92407e-09
0.00192
7.92345e-09
0.00192
7.92284e-09
0.00192
7.92224e-09
0.00192
7.92164e-09
0.00192
7.92106e-09
0.00192
7.92049e-09
0.00192
7.91994e-09
0.00192
7.91941e-09
0.00192
7.9189e-09
0.00192
7.9184e-09
0.00192
7.91793e-09
0.00192
7.91748e-09
0.00192
7.91705e-09
0.00192
7.91664e-09
0.00192
7.91624e-09
0.00192
7.91586e-09
0.00192
7.91549e-09
0.00192
7.91514e-09
0.00192
7.91479e-09
0.00192
7.91444e-09
0.00192
7.9141e-09
0.00192
7.91376e-09
0.00192
7.91341e-09
0.00192
7.91306e-09
0.00192
7.91271e-09
0.00192
7.91236e-09
0.00192
7.91199e-09
0.00192
7.91162e-09
0.00192
7.91125e-09
0.00192
7.91086e-09
0.00192
7.91046e-09
0.00192
7.91005e-09
0.00192
7.90964e-09
0.00192
7.90921e-09
0.00192
7.90878e-09
0.00192
7.90833e-09
0.00192
7.90787e-09
0.00192
7.9074e-09
0.00192
7.90692e-09
0.00192
7.90643e-09
0.00192
7.90593e-09
0.00192
7.90542e-09
0.00192
7.90489e-09
0.00192
7.90436e-09
0.00192
7.90382e-09
0.00192
7.90326e-09
0.00192
7.9027e-09
0.00192
7.90212e-09
0.00192
7.90154e-09
0.00192
7.90095e-09
0.00192
7.90035e-09
0.00192
7.89974e-09
0.00192
7.89911e-09
0.00192
7.89848e-09
0.00192
7.89784e-09
0.00192
7.8972e-09
0.00192
7.89654e-09
0.00192
7.89587e-09
0.00192
7.8952e-09
0.00192
7.89451e-09
0.00192
7.89382e-09
0.00192
7.89312e-09
0.00192
7.89241e-09
0.00192
7.8917e-09
0.00192
7.89097e-09
0.00192
7.89024e-09
0.00192
7.8895e-09
0.00192
7.88875e-09
0.00192
7.888e-09
0.00192
7.88723e-09
0.00192
7.88646e-09
0.00192
7.88568e-09
0.00192
7.8849e-09
0.00192
7.88411e-09
0.00192
7.88331e-09
0.00192
7.8825e-09
0.00192
7.88168e-09
0.00192
7.88086e-09
0.00192
7.88003e-09
0.00192
7.8792e-09
0.00192
7.87835e-09
0.00192
7.8775e-09
0.00192
7.87665e-09
0.00192
7.87578e-09
0.00192
7.87491e-09
0.00192
7.87404e-09
0.00192
7.87315e-09
0.00192
7.87227e-09
0.00192
7.87137e-09
0.00192
7.87047e-09
0.00192
7.86956e-09
0.00192
7.86864e-09
0.00192
7.86772e-09
0.00192
7.8668e-09
0.00192
7.86586e-09
0.00192
7.86492e-09
0.00192
7.86398e-09
0.00192
7.86303e-09
0.00192
7.86207e-09
0.00192
7.86111e-09
0.00192
7.86014e-09
0.00192
7.85916e-09
0.00192
7.85819e-09
0.00192
7.8572e-09
0.00192
7.85621e-09
0.00192
7.85522e-09
0.00192
7.85422e-09
0.00192
7.85321e-09
0.00192
7.85221e-09
0.00192
7.85119e-09
0.00192
7.85017e-09
0.00192
7.84915e-09
0.00192
7.84812e-09
0.00192
7.84709e-09
0.00192
7.84605e-09
0.00192
7.84501e-09
0.00192
7.84397e-09
0.00192
7.84292e-09
0.00192
7.84187e-09
0.00192
7.84082e-09
0.00192
7.83976e-09
0.00192
7.8387e-09
0.00192
7.83763e-09
0.00192
7.83656e-09
0.00192
7.83549e-09
0.00192
7.83442e-09
0.00192
7.83334e-09
0.00192
7.83226e-09
0.00192
7.83117e-09
0.00192
7.83009e-09
0.00192
7.82899e-09
0.00192
7.8279e-09
0.00192
7.8268e-09
0.00192
7.8257e-09
0.00192
7.82459e-09
0.00192
7.82347e-09
0.00192
7.82236e-09
0.00192
7.82123e-09
0.00192
7.8201e-09
0.00192
7.81895e-09
0.00192
7.8178e-09
0.00192
7.81664e-09
0.00192
7.81546e-09
0.00192
7.81428e-09
0.00192
7.81307e-09
0.00192
7.81185e-09
0.00192
7.81061e-09
0.00192
7.80935e-09
0.00192
7.80805e-09
0.00192
7.80674e-09
0.00192
7.80538e-09
0.00192
7.80399e-09
0.00192
7.80255e-09
0.00192
7.80106e-09
0.00192
7.79951e-09
0.00192
7.79787e-09
0.00192
7.79617e-09
0.00192
7.79426e-09
0.00192
7.79218e-09
0.00192
0.00192
1.4053e-08
1.40501e-08
0.00192
1.40465e-08
0.00192
1.40429e-08
0.00192
1.40397e-08
0.00192
1.40365e-08
0.00192
1.40333e-08
0.00192
1.40302e-08
0.00192
1.4027e-08
0.00192
1.40237e-08
0.00192
1.40205e-08
0.00192
1.40172e-08
0.00192
1.4014e-08
0.00192
1.40107e-08
0.00192
1.40074e-08
0.00192
1.40041e-08
0.00192
1.40007e-08
0.00192
1.39974e-08
0.00192
1.39941e-08
0.00192
1.39908e-08
0.00192
1.39874e-08
0.00192
1.39841e-08
0.00192
1.39808e-08
0.00192
1.39775e-08
0.00192
1.39742e-08
0.00192
1.39709e-08
0.00192
1.39677e-08
0.00192
1.39644e-08
0.00192
1.39612e-08
0.00192
1.3958e-08
0.00192
1.39549e-08
0.00192
1.39517e-08
0.00192
1.39486e-08
0.00192
1.39456e-08
0.00192
1.39426e-08
0.00192
1.39396e-08
0.00192
1.39366e-08
0.00192
1.39337e-08
0.00192
1.39308e-08
0.00192
1.3928e-08
0.00192
1.39252e-08
0.00192
1.39224e-08
0.00192
1.39196e-08
0.00192
1.39168e-08
0.00192
1.3914e-08
0.00192
1.39113e-08
0.00192
1.39085e-08
0.00192
1.39057e-08
0.00192
1.3903e-08
0.00192
1.39002e-08
0.00192
1.38974e-08
0.00192
1.38947e-08
0.00192
1.38919e-08
0.00192
1.38891e-08
0.00192
1.38863e-08
0.00192
1.38835e-08
0.00192
1.38806e-08
0.00192
1.38778e-08
0.00192
1.38749e-08
0.00192
1.38721e-08
0.00192
1.38692e-08
0.00192
1.38663e-08
0.00192
1.38634e-08
0.00192
1.38605e-08
0.00192
1.38576e-08
0.00192
1.38546e-08
0.00192
1.38517e-08
0.00192
1.38487e-08
0.00192
1.38458e-08
0.00192
1.38428e-08
0.00192
1.38398e-08
0.00192
1.38368e-08
0.00192
1.38338e-08
0.00192
1.38307e-08
0.00192
1.38277e-08
0.00192
1.38246e-08
0.00192
1.38216e-08
0.00192
1.38185e-08
0.00192
1.38154e-08
0.00192
1.38123e-08
0.00192
1.38092e-08
0.00192
1.38061e-08
0.00192
1.3803e-08
0.00192
1.37998e-08
0.00192
1.37967e-08
0.00192
1.37936e-08
0.00192
1.37904e-08
0.00192
1.37872e-08
0.00192
1.3784e-08
0.00192
1.37809e-08
0.00192
1.37777e-08
0.00192
1.37745e-08
0.00192
1.37712e-08
0.00192
1.3768e-08
0.00192
1.37648e-08
0.00192
1.37616e-08
0.00192
1.37583e-08
0.00192
1.37551e-08
0.00192
1.37518e-08
0.00192
1.37485e-08
0.00192
1.37453e-08
0.00192
1.3742e-08
0.00192
1.37387e-08
0.00192
1.37354e-08
0.00192
1.37321e-08
0.00192
1.37288e-08
0.00192
1.37255e-08
0.00192
1.37221e-08
0.00192
1.37188e-08
0.00192
1.37155e-08
0.00192
1.37121e-08
0.00192
1.37088e-08
0.00192
1.37054e-08
0.00192
1.3702e-08
0.00192
1.36987e-08
0.00192
1.36953e-08
0.00192
1.36919e-08
0.00192
1.36885e-08
0.00192
1.36851e-08
0.00192
1.36817e-08
0.00192
1.36783e-08
0.00192
1.36749e-08
0.00192
1.36714e-08
0.00192
1.3668e-08
0.00192
1.36646e-08
0.00192
1.36611e-08
0.00192
1.36577e-08
0.00192
1.36543e-08
0.00192
1.36508e-08
0.00192
1.36474e-08
0.00192
1.36439e-08
0.00192
1.36404e-08
0.00192
1.3637e-08
0.00192
1.36335e-08
0.00192
1.363e-08
0.00192
1.36265e-08
0.00192
1.3623e-08
0.00192
1.36195e-08
0.00192
1.3616e-08
0.00192
1.36126e-08
0.00192
1.36091e-08
0.00192
1.36056e-08
0.00192
1.3602e-08
0.00192
1.35985e-08
0.00192
1.3595e-08
0.00192
1.35915e-08
0.00192
1.3588e-08
0.00192
1.35845e-08
0.00192
1.3581e-08
0.00192
1.35775e-08
0.00192
1.35739e-08
0.00192
1.35704e-08
0.00192
1.35669e-08
0.00192
1.35634e-08
0.00192
1.35598e-08
0.00192
1.35563e-08
0.00192
1.35528e-08
0.00192
1.35492e-08
0.00192
1.35457e-08
0.00192
1.35421e-08
0.00192
1.35386e-08
0.00192
1.3535e-08
0.00192
1.35314e-08
0.00192
1.35278e-08
0.00192
1.35242e-08
0.00192
1.35206e-08
0.00192
1.3517e-08
0.00192
1.35134e-08
0.00192
1.35097e-08
0.00192
1.3506e-08
0.00192
1.35023e-08
0.00192
1.34986e-08
0.00192
1.34948e-08
0.00192
1.3491e-08
0.00192
1.34871e-08
0.00192
1.34832e-08
0.00192
1.34792e-08
0.00192
1.34752e-08
0.00192
1.3471e-08
0.00192
1.34668e-08
0.00192
1.34624e-08
0.00192
1.34578e-08
0.00192
1.34529e-08
0.00192
0.00192
1.59368e-08
1.5932e-08
0.00192
1.59269e-08
0.00192
1.5922e-08
0.00192
1.59171e-08
0.00192
1.59124e-08
0.00192
1.59077e-08
0.00192
1.5903e-08
0.00192
1.58982e-08
0.00192
1.58935e-08
0.00192
1.58888e-08
0.00192
1.5884e-08
0.00192
1.58792e-08
0.00192
1.58744e-08
0.00192
1.58696e-08
0.00192
1.58648e-08
0.00192
1.586e-08
0.00192
1.58552e-08
0.00192
1.58504e-08
0.00192
1.58456e-08
0.00192
1.58408e-08
0.00192
1.5836e-08
0.00192
1.58312e-08
0.00192
1.58265e-08
0.00192
1.58217e-08
0.00192
1.5817e-08
0.00192
1.58123e-08
0.00192
1.58076e-08
0.00192
1.5803e-08
0.00192
1.57984e-08
0.00192
1.57938e-08
0.00192
1.57892e-08
0.00192
1.57847e-08
0.00192
1.57803e-08
0.00192
1.57759e-08
0.00192
1.57715e-08
0.00192
1.57671e-08
0.00192
1.57628e-08
0.00192
1.57585e-08
0.00192
1.57543e-08
0.00192
1.575e-08
0.00192
1.57458e-08
0.00192
1.57416e-08
0.00192
1.57374e-08
0.00192
1.57332e-08
0.00192
1.5729e-08
0.00192
1.57249e-08
0.00192
1.57207e-08
0.00192
1.57165e-08
0.00192
1.57123e-08
0.00192
1.57081e-08
0.00192
1.57039e-08
0.00192
1.56997e-08
0.00192
1.56955e-08
0.00192
1.56913e-08
0.00192
1.5687e-08
0.00192
1.56828e-08
0.00192
1.56785e-08
0.00192
1.56742e-08
0.00192
1.567e-08
0.00192
1.56657e-08
0.00192
1.56614e-08
0.00192
1.5657e-08
0.00192
1.56527e-08
0.00192
1.56484e-08
0.00192
1.5644e-08
0.00192
1.56396e-08
0.00192
1.56353e-08
0.00192
1.56309e-08
0.00192
1.56265e-08
0.00192
1.56221e-08
0.00192
1.56176e-08
0.00192
1.56132e-08
0.00192
1.56088e-08
0.00192
1.56043e-08
0.00192
1.55998e-08
0.00192
1.55954e-08
0.00192
1.55909e-08
0.00192
1.55864e-08
0.00192
1.55819e-08
0.00192
1.55773e-08
0.00192
1.55728e-08
0.00192
1.55683e-08
0.00192
1.55637e-08
0.00192
1.55592e-08
0.00192
1.55546e-08
0.00192
1.555e-08
0.00192
1.55455e-08
0.00192
1.55409e-08
0.00192
1.55363e-08
0.00192
1.55317e-08
0.00192
1.55271e-08
0.00192
1.55224e-08
0.00192
1.55178e-08
0.00192
1.55132e-08
0.00192
1.55085e-08
0.00192
1.55039e-08
0.00192
1.54992e-08
0.00192
1.54946e-08
0.00192
1.54899e-08
0.00192
1.54852e-08
0.00192
1.54805e-08
0.00192
1.54758e-08
0.00192
1.54711e-08
0.00192
1.54664e-08
0.00192
1.54617e-08
0.00192
1.54569e-08
0.00192
1.54522e-08
0.00192
1.54475e-08
0.00192
1.54427e-08
0.00192
1.5438e-08
0.00192
1.54332e-08
0.00192
1.54285e-08
0.00192
1.54237e-08
0.00192
1.54189e-08
0.00192
1.54141e-08
0.00192
1.54093e-08
0.00192
1.54045e-08
0.00192
1.53997e-08
0.00192
1.53949e-08
0.00192
1.53901e-08
0.00192
1.53853e-08
0.00192
1.53805e-08
0.00192
1.53756e-08
0.00192
1.53708e-08
0.00192
1.5366e-08
0.00192
1.53611e-08
0.00192
1.53563e-08
0.00192
1.53514e-08
0.00192
1.53466e-08
0.00192
1.53417e-08
0.00192
1.53368e-08
0.00192
1.5332e-08
0.00192
1.53271e-08
0.00192
1.53222e-08
0.00192
1.53173e-08
0.00192
1.53124e-08
0.00192
1.53076e-08
0.00192
1.53027e-08
0.00192
1.52978e-08
0.00192
1.52929e-08
0.00192
1.5288e-08
0.00192
1.52831e-08
0.00192
1.52782e-08
0.00192
1.52733e-08
0.00192
1.52684e-08
0.00192
1.52634e-08
0.00192
1.52585e-08
0.00192
1.52536e-08
0.00192
1.52487e-08
0.00192
1.52438e-08
0.00192
1.52389e-08
0.00192
1.52339e-08
0.00192
1.5229e-08
0.00192
1.52241e-08
0.00192
1.52192e-08
0.00192
1.52142e-08
0.00192
1.52093e-08
0.00192
1.52043e-08
0.00192
1.51994e-08
0.00192
1.51944e-08
0.00192
1.51895e-08
0.00192
1.51845e-08
0.00192
1.51795e-08
0.00192
1.51745e-08
0.00192
1.51695e-08
0.00192
1.51645e-08
0.00192
1.51594e-08
0.00192
1.51543e-08
0.00192
1.51492e-08
0.00192
1.51441e-08
0.00192
1.51389e-08
0.00192
1.51337e-08
0.00192
1.51285e-08
0.00192
1.51231e-08
0.00192
1.51178e-08
0.00192
1.51123e-08
0.00192
1.51068e-08
0.00192
1.51011e-08
0.00192
1.50953e-08
0.00192
1.50893e-08
0.00192
1.5083e-08
0.00192
0.00192
1.6217e-08
1.62116e-08
0.00192
1.62061e-08
0.00192
1.62008e-08
0.00192
1.61956e-08
0.00192
1.61904e-08
0.00192
1.61851e-08
0.00192
1.61799e-08
0.00192
1.61747e-08
0.00192
1.61694e-08
0.00192
1.61641e-08
0.00192
1.61589e-08
0.00192
1.61536e-08
0.00192
1.61483e-08
0.00192
1.6143e-08
0.00192
1.61377e-08
0.00192
1.61325e-08
0.00192
1.61272e-08
0.00192
1.61219e-08
0.00192
1.61166e-08
0.00192
1.61113e-08
0.00192
1.61061e-08
0.00192
1.61008e-08
0.00192
1.60956e-08
0.00192
1.60904e-08
0.00192
1.60852e-08
0.00192
1.608e-08
0.00192
1.60749e-08
0.00192
1.60698e-08
0.00192
1.60648e-08
0.00192
1.60597e-08
0.00192
1.60547e-08
0.00192
1.60498e-08
0.00192
1.60449e-08
0.00192
1.604e-08
0.00192
1.60352e-08
0.00192
1.60304e-08
0.00192
1.60257e-08
0.00192
1.60209e-08
0.00192
1.60162e-08
0.00192
1.60115e-08
0.00192
1.60069e-08
0.00192
1.60022e-08
0.00192
1.59976e-08
0.00192
1.59929e-08
0.00192
1.59883e-08
0.00192
1.59836e-08
0.00192
1.5979e-08
0.00192
1.59743e-08
0.00192
1.59697e-08
0.00192
1.5965e-08
0.00192
1.59603e-08
0.00192
1.59556e-08
0.00192
1.59509e-08
0.00192
1.59462e-08
0.00192
1.59415e-08
0.00192
1.59368e-08
0.00192
1.59321e-08
0.00192
1.59273e-08
0.00192
1.59226e-08
0.00192
1.59178e-08
0.00192
1.5913e-08
0.00192
1.59082e-08
0.00192
1.59034e-08
0.00192
1.58986e-08
0.00192
1.58938e-08
0.00192
1.5889e-08
0.00192
1.58841e-08
0.00192
1.58792e-08
0.00192
1.58744e-08
0.00192
1.58695e-08
0.00192
1.58646e-08
0.00192
1.58597e-08
0.00192
1.58548e-08
0.00192
1.58499e-08
0.00192
1.58449e-08
0.00192
1.584e-08
0.00192
1.5835e-08
0.00192
1.58301e-08
0.00192
1.58251e-08
0.00192
1.58201e-08
0.00192
1.58151e-08
0.00192
1.58101e-08
0.00192
1.58051e-08
0.00192
1.58001e-08
0.00192
1.5795e-08
0.00192
1.579e-08
0.00192
1.5785e-08
0.00192
1.57799e-08
0.00192
1.57749e-08
0.00192
1.57698e-08
0.00192
1.57647e-08
0.00192
1.57596e-08
0.00192
1.57545e-08
0.00192
1.57494e-08
0.00192
1.57443e-08
0.00192
1.57392e-08
0.00192
1.57341e-08
0.00192
1.5729e-08
0.00192
1.57238e-08
0.00192
1.57187e-08
0.00192
1.57135e-08
0.00192
1.57084e-08
0.00192
1.57032e-08
0.00192
1.5698e-08
0.00192
1.56928e-08
0.00192
1.56877e-08
0.00192
1.56825e-08
0.00192
1.56773e-08
0.00192
1.56721e-08
0.00192
1.56669e-08
0.00192
1.56616e-08
0.00192
1.56564e-08
0.00192
1.56512e-08
0.00192
1.56459e-08
0.00192
1.56407e-08
0.00192
1.56355e-08
0.00192
1.56302e-08
0.00192
1.56249e-08
0.00192
1.56197e-08
0.00192
1.56144e-08
0.00192
1.56091e-08
0.00192
1.56039e-08
0.00192
1.55986e-08
0.00192
1.55933e-08
0.00192
1.5588e-08
0.00192
1.55827e-08
0.00192
1.55774e-08
0.00192
1.55721e-08
0.00192
1.55668e-08
0.00192
1.55614e-08
0.00192
1.55561e-08
0.00192
1.55508e-08
0.00192
1.55455e-08
0.00192
1.55401e-08
0.00192
1.55348e-08
0.00192
1.55295e-08
0.00192
1.55241e-08
0.00192
1.55188e-08
0.00192
1.55134e-08
0.00192
1.55081e-08
0.00192
1.55027e-08
0.00192
1.54974e-08
0.00192
1.5492e-08
0.00192
1.54867e-08
0.00192
1.54813e-08
0.00192
1.5476e-08
0.00192
1.54706e-08
0.00192
1.54652e-08
0.00192
1.54599e-08
0.00192
1.54545e-08
0.00192
1.54491e-08
0.00192
1.54437e-08
0.00192
1.54384e-08
0.00192
1.5433e-08
0.00192
1.54276e-08
0.00192
1.54222e-08
0.00192
1.54168e-08
0.00192
1.54114e-08
0.00192
1.5406e-08
0.00192
1.54006e-08
0.00192
1.53952e-08
0.00192
1.53898e-08
0.00192
1.53843e-08
0.00192
1.53789e-08
0.00192
1.53734e-08
0.00192
1.53679e-08
0.00192
1.53623e-08
0.00192
1.53568e-08
0.00192
1.53512e-08
0.00192
1.53456e-08
0.00192
1.53399e-08
0.00192
1.53342e-08
0.00192
1.53285e-08
0.00192
1.53226e-08
0.00192
1.53167e-08
0.00192
1.53107e-08
0.00192
1.53046e-08
0.00192
1.52983e-08
0.00192
1.52918e-08
0.00192
1.52851e-08
0.00192
0.00192
1.60112e-08
0.00192
1.60057e-08
0.00192
1.60003e-08
0.00192
1.5995e-08
0.00192
1.59898e-08
0.00192
1.59845e-08
0.00192
1.59792e-08
0.00192
1.59739e-08
0.00192
1.59686e-08
0.00192
1.59633e-08
0.00192
1.5958e-08
0.00192
1.59526e-08
0.00192
1.59473e-08
0.00192
1.5942e-08
0.00192
1.59366e-08
0.00192
1.59313e-08
0.00192
1.59259e-08
0.00192
1.59206e-08
0.00192
1.59152e-08
0.00192
1.59099e-08
0.00192
1.59046e-08
0.00192
1.58993e-08
0.00192
1.5894e-08
0.00192
1.58887e-08
0.00192
1.58835e-08
0.00192
1.58783e-08
0.00192
1.58731e-08
0.00192
1.58679e-08
0.00192
1.58628e-08
0.00192
1.58577e-08
0.00192
1.58527e-08
0.00192
1.58477e-08
0.00192
1.58427e-08
0.00192
1.58378e-08
0.00192
1.58329e-08
0.00192
1.58281e-08
0.00192
1.58233e-08
0.00192
1.58185e-08
0.00192
1.58137e-08
0.00192
1.5809e-08
0.00192
1.58042e-08
0.00192
1.57995e-08
0.00192
1.57948e-08
0.00192
1.57901e-08
0.00192
1.57854e-08
0.00192
1.57807e-08
0.00192
1.5776e-08
0.00192
1.57713e-08
0.00192
1.57666e-08
0.00192
1.57619e-08
0.00192
1.57571e-08
0.00192
1.57524e-08
0.00192
1.57477e-08
0.00192
1.57429e-08
0.00192
1.57381e-08
0.00192
1.57334e-08
0.00192
1.57286e-08
0.00192
1.57238e-08
0.00192
1.5719e-08
0.00192
1.57142e-08
0.00192
1.57093e-08
0.00192
1.57045e-08
0.00192
1.56996e-08
0.00192
1.56948e-08
0.00192
1.56899e-08
0.00192
1.5685e-08
0.00192
1.56801e-08
0.00192
1.56752e-08
0.00192
1.56702e-08
0.00192
1.56653e-08
0.00192
1.56604e-08
0.00192
1.56554e-08
0.00192
1.56505e-08
0.00192
1.56455e-08
0.00192
1.56405e-08
0.00192
1.56355e-08
0.00192
1.56305e-08
0.00192
1.56255e-08
0.00192
1.56205e-08
0.00192
1.56154e-08
0.00192
1.56104e-08
0.00192
1.56053e-08
0.00192
1.56003e-08
0.00192
1.55952e-08
0.00192
1.55901e-08
0.00192
1.55851e-08
0.00192
1.558e-08
0.00192
1.55749e-08
0.00192
1.55698e-08
0.00192
1.55646e-08
0.00192
1.55595e-08
0.00192
1.55544e-08
0.00192
1.55492e-08
0.00192
1.55441e-08
0.00192
1.55389e-08
0.00192
1.55338e-08
0.00192
1.55286e-08
0.00192
1.55234e-08
0.00192
1.55183e-08
0.00192
1.55131e-08
0.00192
1.55079e-08
0.00192
1.55027e-08
0.00192
1.54974e-08
0.00192
1.54922e-08
0.00192
1.5487e-08
0.00192
1.54818e-08
0.00192
1.54765e-08
0.00192
1.54713e-08
0.00192
1.5466e-08
0.00192
1.54608e-08
0.00192
1.54555e-08
0.00192
1.54503e-08
0.00192
1.5445e-08
0.00192
1.54397e-08
0.00192
1.54344e-08
0.00192
1.54291e-08
0.00192
1.54238e-08
0.00192
1.54185e-08
0.00192
1.54132e-08
0.00192
1.54079e-08
0.00192
1.54026e-08
0.00192
1.53973e-08
0.00192
1.53919e-08
0.00192
1.53866e-08
0.00192
1.53813e-08
0.00192
1.53759e-08
0.00192
1.53706e-08
0.00192
1.53652e-08
0.00192
1.53599e-08
0.00192
1.53545e-08
0.00192
1.53491e-08
0.00192
1.53438e-08
0.00192
1.53384e-08
0.00192
1.5333e-08
0.00192
1.53277e-08
0.00192
1.53223e-08
0.00192
1.53169e-08
0.00192
1.53115e-08
0.00192
1.53061e-08
0.00192
1.53007e-08
0.00192
1.52953e-08
0.00192
1.52899e-08
0.00192
1.52846e-08
0.00192
1.52792e-08
0.00192
1.52738e-08
0.00192
1.52684e-08
0.00192
1.5263e-08
0.00192
1.52575e-08
0.00192
1.52521e-08
0.00192
1.52467e-08
0.00192
1.52413e-08
0.00192
1.52359e-08
0.00192
1.52305e-08
0.00192
1.52251e-08
0.00192
1.52197e-08
0.00192
1.52142e-08
0.00192
1.52088e-08
0.00192
1.52034e-08
0.00192
1.51979e-08
0.00192
1.51925e-08
0.00192
1.5187e-08
0.00192
1.51815e-08
0.00192
1.5176e-08
0.00192
1.51705e-08
0.00192
1.5165e-08
0.00192
1.51595e-08
0.00192
1.51539e-08
0.00192
1.51483e-08
0.00192
1.51427e-08
0.00192
1.5137e-08
0.00192
1.51313e-08
0.00192
1.51256e-08
0.00192
1.51198e-08
0.00192
1.51139e-08
0.00192
1.5108e-08
0.00192
1.51019e-08
0.00192
1.50957e-08
0.00192
1.50894e-08
0.00192
1.50829e-08
0.00192
1.50761e-08
0.00192
0.00192
1.56902e-08
1.56849e-08
0.00192
1.56796e-08
0.00192
1.56743e-08
0.00192
1.56691e-08
0.00192
1.56639e-08
0.00192
1.56587e-08
0.00192
1.56535e-08
0.00192
1.56483e-08
0.00192
1.5643e-08
0.00192
1.56378e-08
0.00192
1.56325e-08
0.00192
1.56273e-08
0.00192
1.5622e-08
0.00192
1.56168e-08
0.00192
1.56115e-08
0.00192
1.56062e-08
0.00192
1.56009e-08
0.00192
1.55957e-08
0.00192
1.55904e-08
0.00192
1.55852e-08
0.00192
1.55799e-08
0.00192
1.55747e-08
0.00192
1.55695e-08
0.00192
1.55644e-08
0.00192
1.55592e-08
0.00192
1.55541e-08
0.00192
1.5549e-08
0.00192
1.5544e-08
0.00192
1.55389e-08
0.00192
1.5534e-08
0.00192
1.5529e-08
0.00192
1.55242e-08
0.00192
1.55193e-08
0.00192
1.55145e-08
0.00192
1.55097e-08
0.00192
1.5505e-08
0.00192
1.55003e-08
0.00192
1.54956e-08
0.00192
1.54909e-08
0.00192
1.54862e-08
0.00192
1.54816e-08
0.00192
1.54769e-08
0.00192
1.54723e-08
0.00192
1.54677e-08
0.00192
1.5463e-08
0.00192
1.54584e-08
0.00192
1.54538e-08
0.00192
1.54491e-08
0.00192
1.54445e-08
0.00192
1.54398e-08
0.00192
1.54351e-08
0.00192
1.54305e-08
0.00192
1.54258e-08
0.00192
1.54211e-08
0.00192
1.54164e-08
0.00192
1.54117e-08
0.00192
1.54069e-08
0.00192
1.54022e-08
0.00192
1.53975e-08
0.00192
1.53927e-08
0.00192
1.53879e-08
0.00192
1.53831e-08
0.00192
1.53784e-08
0.00192
1.53735e-08
0.00192
1.53687e-08
0.00192
1.53639e-08
0.00192
1.53591e-08
0.00192
1.53542e-08
0.00192
1.53494e-08
0.00192
1.53445e-08
0.00192
1.53396e-08
0.00192
1.53347e-08
0.00192
1.53298e-08
0.00192
1.53249e-08
0.00192
1.532e-08
0.00192
1.53151e-08
0.00192
1.53101e-08
0.00192
1.53052e-08
0.00192
1.53002e-08
0.00192
1.52952e-08
0.00192
1.52903e-08
0.00192
1.52853e-08
0.00192
1.52803e-08
0.00192
1.52753e-08
0.00192
1.52703e-08
0.00192
1.52653e-08
0.00192
1.52602e-08
0.00192
1.52552e-08
0.00192
1.52502e-08
0.00192
1.52451e-08
0.00192
1.52401e-08
0.00192
1.5235e-08
0.00192
1.52299e-08
0.00192
1.52249e-08
0.00192
1.52198e-08
0.00192
1.52147e-08
0.00192
1.52096e-08
0.00192
1.52045e-08
0.00192
1.51994e-08
0.00192
1.51942e-08
0.00192
1.51891e-08
0.00192
1.5184e-08
0.00192
1.51788e-08
0.00192
1.51737e-08
0.00192
1.51685e-08
0.00192
1.51634e-08
0.00192
1.51582e-08
0.00192
1.51531e-08
0.00192
1.51479e-08
0.00192
1.51427e-08
0.00192
1.51375e-08
0.00192
1.51323e-08
0.00192
1.51271e-08
0.00192
1.51219e-08
0.00192
1.51167e-08
0.00192
1.51115e-08
0.00192
1.51063e-08
0.00192
1.5101e-08
0.00192
1.50958e-08
0.00192
1.50906e-08
0.00192
1.50853e-08
0.00192
1.50801e-08
0.00192
1.50748e-08
0.00192
1.50696e-08
0.00192
1.50643e-08
0.00192
1.5059e-08
0.00192
1.50538e-08
0.00192
1.50485e-08
0.00192
1.50432e-08
0.00192
1.50379e-08
0.00192
1.50326e-08
0.00192
1.50274e-08
0.00192
1.50221e-08
0.00192
1.50168e-08
0.00192
1.50115e-08
0.00192
1.50062e-08
0.00192
1.50009e-08
0.00192
1.49956e-08
0.00192
1.49903e-08
0.00192
1.49849e-08
0.00192
1.49796e-08
0.00192
1.49743e-08
0.00192
1.4969e-08
0.00192
1.49637e-08
0.00192
1.49584e-08
0.00192
1.49531e-08
0.00192
1.49477e-08
0.00192
1.49424e-08
0.00192
1.49371e-08
0.00192
1.49318e-08
0.00192
1.49264e-08
0.00192
1.49211e-08
0.00192
1.49158e-08
0.00192
1.49104e-08
0.00192
1.49051e-08
0.00192
1.48997e-08
0.00192
1.48944e-08
0.00192
1.4889e-08
0.00192
1.48837e-08
0.00192
1.48783e-08
0.00192
1.48729e-08
0.00192
1.48675e-08
0.00192
1.48621e-08
0.00192
1.48566e-08
0.00192
1.48512e-08
0.00192
1.48457e-08
0.00192
1.48402e-08
0.00192
1.48346e-08
0.00192
1.48291e-08
0.00192
1.48234e-08
0.00192
1.48178e-08
0.00192
1.48121e-08
0.00192
1.48063e-08
0.00192
1.48004e-08
0.00192
1.47944e-08
0.00192
1.47883e-08
0.00192
1.47821e-08
0.00192
1.47756e-08
0.00192
1.47689e-08
0.00192
0.00192
1.53388e-08
1.53336e-08
0.00192
1.53284e-08
0.00192
1.53233e-08
0.00192
1.53182e-08
0.00192
1.53131e-08
0.00192
1.5308e-08
0.00192
1.53029e-08
0.00192
1.52978e-08
0.00192
1.52926e-08
0.00192
1.52875e-08
0.00192
1.52824e-08
0.00192
1.52772e-08
0.00192
1.5272e-08
0.00192
1.52669e-08
0.00192
1.52617e-08
0.00192
1.52565e-08
0.00192
1.52514e-08
0.00192
1.52462e-08
0.00192
1.52411e-08
0.00192
1.52359e-08
0.00192
1.52308e-08
0.00192
1.52257e-08
0.00192
1.52207e-08
0.00192
1.52156e-08
0.00192
1.52106e-08
0.00192
1.52056e-08
0.00192
1.52007e-08
0.00192
1.51958e-08
0.00192
1.51909e-08
0.00192
1.51861e-08
0.00192
1.51813e-08
0.00192
1.51765e-08
0.00192
1.51718e-08
0.00192
1.51671e-08
0.00192
1.51625e-08
0.00192
1.51579e-08
0.00192
1.51533e-08
0.00192
1.51487e-08
0.00192
1.51441e-08
0.00192
1.51396e-08
0.00192
1.51351e-08
0.00192
1.51305e-08
0.00192
1.5126e-08
0.00192
1.51214e-08
0.00192
1.51169e-08
0.00192
1.51124e-08
0.00192
1.51078e-08
0.00192
1.51033e-08
0.00192
1.50987e-08
0.00192
1.50942e-08
0.00192
1.50896e-08
0.00192
1.5085e-08
0.00192
1.50804e-08
0.00192
1.50758e-08
0.00192
1.50712e-08
0.00192
1.50666e-08
0.00192
1.50619e-08
0.00192
1.50573e-08
0.00192
1.50526e-08
0.00192
1.50479e-08
0.00192
1.50433e-08
0.00192
1.50386e-08
0.00192
1.50339e-08
0.00192
1.50291e-08
0.00192
1.50244e-08
0.00192
1.50197e-08
0.00192
1.50149e-08
0.00192
1.50102e-08
0.00192
1.50054e-08
0.00192
1.50006e-08
0.00192
1.49958e-08
0.00192
1.49911e-08
0.00192
1.49862e-08
0.00192
1.49814e-08
0.00192
1.49766e-08
0.00192
1.49718e-08
0.00192
1.49669e-08
0.00192
1.49621e-08
0.00192
1.49572e-08
0.00192
1.49523e-08
0.00192
1.49475e-08
0.00192
1.49426e-08
0.00192
1.49377e-08
0.00192
1.49328e-08
0.00192
1.49279e-08
0.00192
1.4923e-08
0.00192
1.4918e-08
0.00192
1.49131e-08
0.00192
1.49081e-08
0.00192
1.49032e-08
0.00192
1.48982e-08
0.00192
1.48933e-08
0.00192
1.48883e-08
0.00192
1.48833e-08
0.00192
1.48783e-08
0.00192
1.48734e-08
0.00192
1.48684e-08
0.00192
1.48633e-08
0.00192
1.48583e-08
0.00192
1.48533e-08
0.00192
1.48483e-08
0.00192
1.48433e-08
0.00192
1.48382e-08
0.00192
1.48332e-08
0.00192
1.48281e-08
0.00192
1.48231e-08
0.00192
1.4818e-08
0.00192
1.48129e-08
0.00192
1.48079e-08
0.00192
1.48028e-08
0.00192
1.47977e-08
0.00192
1.47926e-08
0.00192
1.47875e-08
0.00192
1.47824e-08
0.00192
1.47773e-08
0.00192
1.47722e-08
0.00192
1.47671e-08
0.00192
1.47619e-08
0.00192
1.47568e-08
0.00192
1.47517e-08
0.00192
1.47465e-08
0.00192
1.47414e-08
0.00192
1.47363e-08
0.00192
1.47311e-08
0.00192
1.4726e-08
0.00192
1.47208e-08
0.00192
1.47156e-08
0.00192
1.47105e-08
0.00192
1.47053e-08
0.00192
1.47001e-08
0.00192
1.46949e-08
0.00192
1.46898e-08
0.00192
1.46846e-08
0.00192
1.46794e-08
0.00192
1.46742e-08
0.00192
1.4669e-08
0.00192
1.46638e-08
0.00192
1.46586e-08
0.00192
1.46534e-08
0.00192
1.46482e-08
0.00192
1.4643e-08
0.00192
1.46378e-08
0.00192
1.46326e-08
0.00192
1.46274e-08
0.00192
1.46222e-08
0.00192
1.4617e-08
0.00192
1.46118e-08
0.00192
1.46066e-08
0.00192
1.46014e-08
0.00192
1.45962e-08
0.00192
1.45909e-08
0.00192
1.45857e-08
0.00192
1.45805e-08
0.00192
1.45753e-08
0.00192
1.457e-08
0.00192
1.45648e-08
0.00192
1.45595e-08
0.00192
1.45543e-08
0.00192
1.4549e-08
0.00192
1.45437e-08
0.00192
1.45385e-08
0.00192
1.45331e-08
0.00192
1.45278e-08
0.00192
1.45225e-08
0.00192
1.45171e-08
0.00192
1.45117e-08
0.00192
1.45063e-08
0.00192
1.45008e-08
0.00192
1.44953e-08
0.00192
1.44898e-08
0.00192
1.44841e-08
0.00192
1.44785e-08
0.00192
1.44727e-08
0.00192
1.44668e-08
0.00192
1.44608e-08
0.00192
1.44547e-08
0.00192
1.44484e-08
0.00192
1.44418e-08
0.00192
0.00192
1.49831e-08
0.00192
1.49779e-08
0.00192
1.49729e-08
0.00192
1.49679e-08
0.00192
1.49629e-08
0.00192
1.4958e-08
0.00192
1.49529e-08
0.00192
1.49479e-08
0.00192
1.49429e-08
0.00192
1.49379e-08
0.00192
1.49329e-08
0.00192
1.49278e-08
0.00192
1.49228e-08
0.00192
1.49177e-08
0.00192
1.49126e-08
0.00192
1.49076e-08
0.00192
1.49025e-08
0.00192
1.48975e-08
0.00192
1.48925e-08
0.00192
1.48874e-08
0.00192
1.48824e-08
0.00192
1.48775e-08
0.00192
1.48725e-08
0.00192
1.48676e-08
0.00192
1.48626e-08
0.00192
1.48578e-08
0.00192
1.48529e-08
0.00192
1.48481e-08
0.00192
1.48434e-08
0.00192
1.48386e-08
0.00192
1.4834e-08
0.00192
1.48293e-08
0.00192
1.48247e-08
0.00192
1.48201e-08
0.00192
1.48156e-08
0.00192
1.48111e-08
0.00192
1.48066e-08
0.00192
1.48021e-08
0.00192
1.47977e-08
0.00192
1.47932e-08
0.00192
1.47888e-08
0.00192
1.47844e-08
0.00192
1.47799e-08
0.00192
1.47755e-08
0.00192
1.47711e-08
0.00192
1.47666e-08
0.00192
1.47622e-08
0.00192
1.47577e-08
0.00192
1.47533e-08
0.00192
1.47488e-08
0.00192
1.47444e-08
0.00192
1.47399e-08
0.00192
1.47354e-08
0.00192
1.47309e-08
0.00192
1.47264e-08
0.00192
1.47219e-08
0.00192
1.47173e-08
0.00192
1.47128e-08
0.00192
1.47082e-08
0.00192
1.47037e-08
0.00192
1.46991e-08
0.00192
1.46945e-08
0.00192
1.46899e-08
0.00192
1.46853e-08
0.00192
1.46807e-08
0.00192
1.46761e-08
0.00192
1.46714e-08
0.00192
1.46668e-08
0.00192
1.46621e-08
0.00192
1.46575e-08
0.00192
1.46528e-08
0.00192
1.46481e-08
0.00192
1.46434e-08
0.00192
1.46387e-08
0.00192
1.4634e-08
0.00192
1.46292e-08
0.00192
1.46245e-08
0.00192
1.46198e-08
0.00192
1.4615e-08
0.00192
1.46103e-08
0.00192
1.46055e-08
0.00192
1.46007e-08
0.00192
1.45959e-08
0.00192
1.45911e-08
0.00192
1.45863e-08
0.00192
1.45815e-08
0.00192
1.45767e-08
0.00192
1.45719e-08
0.00192
1.45671e-08
0.00192
1.45622e-08
0.00192
1.45574e-08
0.00192
1.45525e-08
0.00192
1.45477e-08
0.00192
1.45428e-08
0.00192
1.45379e-08
0.00192
1.45331e-08
0.00192
1.45282e-08
0.00192
1.45233e-08
0.00192
1.45184e-08
0.00192
1.45135e-08
0.00192
1.45086e-08
0.00192
1.45036e-08
0.00192
1.44987e-08
0.00192
1.44938e-08
0.00192
1.44889e-08
0.00192
1.44839e-08
0.00192
1.4479e-08
0.00192
1.4474e-08
0.00192
1.44691e-08
0.00192
1.44641e-08
0.00192
1.44591e-08
0.00192
1.44541e-08
0.00192
1.44492e-08
0.00192
1.44442e-08
0.00192
1.44392e-08
0.00192
1.44342e-08
0.00192
1.44292e-08
0.00192
1.44242e-08
0.00192
1.44192e-08
0.00192
1.44141e-08
0.00192
1.44091e-08
0.00192
1.44041e-08
0.00192
1.43991e-08
0.00192
1.4394e-08
0.00192
1.4389e-08
0.00192
1.43839e-08
0.00192
1.43789e-08
0.00192
1.43738e-08
0.00192
1.43688e-08
0.00192
1.43637e-08
0.00192
1.43587e-08
0.00192
1.43536e-08
0.00192
1.43485e-08
0.00192
1.43435e-08
0.00192
1.43384e-08
0.00192
1.43333e-08
0.00192
1.43283e-08
0.00192
1.43232e-08
0.00192
1.43181e-08
0.00192
1.4313e-08
0.00192
1.43079e-08
0.00192
1.43029e-08
0.00192
1.42978e-08
0.00192
1.42927e-08
0.00192
1.42876e-08
0.00192
1.42825e-08
0.00192
1.42774e-08
0.00192
1.42723e-08
0.00192
1.42672e-08
0.00192
1.42621e-08
0.00192
1.4257e-08
0.00192
1.42519e-08
0.00192
1.42468e-08
0.00192
1.42417e-08
0.00192
1.42366e-08
0.00192
1.42315e-08
0.00192
1.42263e-08
0.00192
1.42212e-08
0.00192
1.42161e-08
0.00192
1.42109e-08
0.00192
1.42057e-08
0.00192
1.42006e-08
0.00192
1.41954e-08
0.00192
1.41901e-08
0.00192
1.41849e-08
0.00192
1.41796e-08
0.00192
1.41743e-08
0.00192
1.41689e-08
0.00192
1.41636e-08
0.00192
1.41581e-08
0.00192
1.41526e-08
0.00192
1.4147e-08
0.00192
1.41414e-08
0.00192
1.41356e-08
0.00192
1.41297e-08
0.00192
1.41237e-08
0.00192
1.41175e-08
0.00192
1.41111e-08
0.00192
0.00192
1.46316e-08
1.46267e-08
0.00192
1.46217e-08
0.00192
1.46168e-08
0.00192
1.4612e-08
0.00192
1.46071e-08
0.00192
1.46022e-08
0.00192
1.45973e-08
0.00192
1.45924e-08
0.00192
1.45875e-08
0.00192
1.45826e-08
0.00192
1.45776e-08
0.00192
1.45727e-08
0.00192
1.45677e-08
0.00192
1.45628e-08