/*--------------------------------*- C++ -*----------------------------------*\
| =========                 |                                                 |
| \\      /  F ield         | OpenFOAM: The Open Source CFD Toolbox           |
|  \\    /   O peration     | Version:  2512                                  |
|   \\  /    A nd           | Website:  www.openfoam.com                      |
|    \\/     M anipulation  |                                                 |
\*---------------------------------------------------------------------------*/
FoamFile
{
    version     2.0;
    format      ascii;
    arch        "LSB;label=32;scalar=64";
    class       volVectorField;
    location    "0.1";
    object      U;
}
// * * * * * * * * * * * * * * * * * * * * * * * * * * * * * * * * * * * * * //

dimensions      [0 1 -1 0 0 0 0];

internalField   nonuniform List<vector> 
8333
(
(0.0267413 -3.94476e-06 4.0942e-20)
(0.0267495 -4.75366e-06 5.99826e-20)
(0.02676 -5.54164e-06 3.73829e-19)
(0.0267728 -4.87303e-06 -2.37215e-20)
(0.0267853 -4.47247e-06 3.98548e-20)
(0.0267966 -4.48187e-06 6.11461e-20)
(0.0268073 -4.5414e-06 3.69261e-19)
(0.0268178 -4.52882e-06 -2.39552e-20)
(0.026828 -4.50265e-06 3.4112e-20)
(0.0268381 -4.49975e-06 5.31096e-20)
(0.0268482 -4.48811e-06 3.62956e-19)
(0.0268582 -4.46791e-06 -3.3331e-20)
(0.0268682 -4.45558e-06 3.37534e-20)
(0.026878 -4.44498e-06 2.793e-20)
(0.0268878 -4.43167e-06 4.0518e-19)
(0.0268975 -4.41899e-06 -1.55639e-19)
(0.0269072 -4.40759e-06 1.81409e-19)
(0.0269167 -4.39686e-06 -1.38981e-19)
(0.0269263 -4.38654e-06 3.12481e-19)
(0.0269357 -4.37619e-06 -2.72153e-20)
(0.0269451 -4.36576e-06 3.67968e-19)
(0.0269544 -4.35549e-06 -2.99955e-20)
(0.0269637 -4.34542e-06 3.51395e-19)
(0.0269729 -4.33546e-06 -4.17056e-20)
(0.0269821 -4.32557e-06 3.36928e-19)
(0.0269912 -4.31573e-06 -4.5591e-20)
(0.0270002 -4.30595e-06 3.37912e-19)
(0.0270092 -4.29622e-06 -3.90988e-20)
(0.0270181 -4.28654e-06 3.31733e-19)
(0.027027 -4.27692e-06 -5.1984e-20)
(0.0270358 -4.26735e-06 3.28658e-19)
(0.0270445 -4.25786e-06 -6.37703e-20)
(0.0270532 -4.24845e-06 3.2441e-19)
(0.0270618 -4.23914e-06 -5.59655e-20)
(0.0270703 -4.22991e-06 3.22384e-19)
(0.0270788 -4.22079e-06 -5.51886e-20)
(0.0270872 -4.2118e-06 3.34615e-19)
(0.0270956 -4.20297e-06 -5.94209e-20)
(0.0271039 -4.19434e-06 3.2208e-19)
(0.0271121 -4.1859e-06 -5.87226e-20)
(0.0271203 -4.17768e-06 3.24685e-19)
(0.0271284 -4.1697e-06 -6.14848e-20)
(0.0271365 -4.16196e-06 3.32318e-19)
(0.0271445 -4.1545e-06 -6.24624e-20)
(0.0271524 -4.14731e-06 3.17404e-19)
(0.0271603 -4.14038e-06 -5.42351e-20)
(0.0271682 -4.1337e-06 3.32335e-19)
(0.0271759 -4.12727e-06 -5.1994e-20)
(0.0271837 -4.12108e-06 3.30061e-19)
(0.0271913 -4.11512e-06 -5.71995e-20)
(0.027199 -4.10938e-06 3.16647e-19)
(0.0272065 -4.10386e-06 -6.51096e-20)
(0.0272141 -4.09854e-06 3.29775e-19)
(0.0272215 -4.09342e-06 -6.60088e-20)
(0.0272289 -4.08849e-06 3.19241e-19)
(0.0272363 -4.08375e-06 -6.293e-20)
(0.0272436 -4.07919e-06 3.29321e-19)
(0.0272509 -4.07482e-06 -5.2712e-20)
(0.0272581 -4.07065e-06 3.34829e-19)
(0.0272653 -4.06668e-06 -5.80585e-20)
(0.0272724 -4.0629e-06 3.3089e-19)
(0.0272794 -4.05928e-06 -6.20467e-20)
(0.0272865 -4.05582e-06 3.25441e-19)
(0.0272934 -4.05246e-06 -5.83606e-20)
(0.0273004 -4.0492e-06 3.32042e-19)
(0.0273072 -4.04599e-06 -5.16905e-20)
(0.027314 -4.04283e-06 3.22945e-19)
(0.0273208 -4.03969e-06 -5.56166e-20)
(0.0273276 -4.03656e-06 3.27311e-19)
(0.0273342 -4.03341e-06 -6.01295e-20)
(0.0273409 -4.03021e-06 3.23785e-19)
(0.0273474 -4.02695e-06 -6.20989e-20)
(0.027354 -4.0236e-06 3.31655e-19)
(0.0273605 -4.02014e-06 -6.4828e-20)
(0.0273669 -4.01657e-06 3.15177e-19)
(0.0273733 -4.01287e-06 -3.52036e-20)
(0.0273796 -4.00901e-06 2.69509e-19)
(0.0273859 -4.005e-06 1.09083e-19)
(0.0273922 -4.00084e-06 -4.89325e-22)
(0.0273984 -3.99654e-06 4.28686e-19)
(0.0274045 -3.99209e-06 -1.08124e-19)
(0.0274106 -3.9875e-06 1.96869e-19)
(0.0274167 -3.98277e-06 -1.65963e-19)
(0.0274227 -3.9779e-06 2.73154e-19)
(0.0274286 -3.9729e-06 -8.21444e-20)
(0.0274346 -3.96777e-06 3.23764e-19)
(0.0274404 -3.96252e-06 -6.20665e-20)
(0.0274462 -3.95715e-06 3.23616e-19)
(0.027452 -3.95167e-06 -5.00988e-20)
(0.0274577 -3.94608e-06 3.33484e-19)
(0.0274634 -3.94037e-06 -5.545e-20)
(0.027469 -3.93456e-06 3.25212e-19)
(0.0274746 -3.92865e-06 -6.42398e-20)
(0.0274801 -3.92264e-06 3.25382e-19)
(0.0274856 -3.91653e-06 -6.34347e-20)
(0.0274911 -3.91032e-06 3.23342e-19)
(0.0274964 -3.90402e-06 -5.82691e-20)
(0.0275018 -3.89761e-06 3.29507e-19)
(0.0275071 -3.89111e-06 -6.1387e-20)
(0.0275123 -3.88451e-06 3.30014e-19)
(0.0275175 -3.87783e-06 -6.17712e-20)
(0.0275227 -3.87107e-06 3.2159e-19)
(0.0275278 -3.86422e-06 -5.9414e-20)
(0.0275328 -3.85729e-06 3.39387e-19)
(0.0275379 -3.85028e-06 -6.07217e-20)
(0.0275428 -3.8432e-06 3.22314e-19)
(0.0275477 -3.83604e-06 -5.85608e-20)
(0.0275526 -3.82881e-06 3.30213e-19)
(0.0275574 -3.82151e-06 -5.22655e-20)
(0.0275622 -3.81414e-06 3.2709e-19)
(0.0275669 -3.80669e-06 -5.65879e-20)
(0.0275716 -3.79917e-06 3.24326e-19)
(0.0275762 -3.79157e-06 -5.42349e-20)
(0.0275808 -3.78391e-06 3.25412e-19)
(0.0275854 -3.77618e-06 -6.10569e-20)
(0.0275899 -3.76839e-06 3.13428e-19)
(0.0275943 -3.76054e-06 -6.21522e-20)
(0.0275987 -3.75262e-06 3.28188e-19)
(0.0276031 -3.74465e-06 -6.76675e-20)
(0.0276074 -3.73662e-06 3.15511e-19)
(0.0276116 -3.72853e-06 -5.37369e-20)
(0.0276159 -3.72039e-06 3.2449e-19)
(0.02762 -3.71219e-06 -6.23479e-20)
(0.0276241 -3.70393e-06 3.19597e-19)
(0.0276282 -3.69562e-06 -6.22837e-20)
(0.0276322 -3.68726e-06 3.18555e-19)
(0.0276362 -3.67884e-06 -6.02478e-20)
(0.0276402 -3.67036e-06 3.23988e-19)
(0.027644 -3.66184e-06 -6.50013e-20)
(0.0276479 -3.65328e-06 3.20058e-19)
(0.0276517 -3.64467e-06 -6.82493e-20)
(0.0276554 -3.63602e-06 3.22905e-19)
(0.0276591 -3.62733e-06 -6.48677e-20)
(0.0276628 -3.61861e-06 3.26415e-19)
(0.0276664 -3.60985e-06 -5.57006e-20)
(0.02767 -3.60105e-06 3.29882e-19)
(0.0276735 -3.59222e-06 -5.57635e-20)
(0.0276769 -3.58336e-06 3.22828e-19)
(0.0276804 -3.57446e-06 -5.90494e-20)
(0.0276837 -3.56552e-06 3.27333e-19)
(0.0276871 -3.55655e-06 -5.78774e-20)
(0.0276904 -3.54754e-06 3.2451e-19)
(0.0276936 -3.5385e-06 -6.09581e-20)
(0.0276968 -3.52943e-06 3.18186e-19)
(0.0276999 -3.52033e-06 -5.36178e-20)
(0.0277031 -3.5112e-06 3.24271e-19)
(0.0277061 -3.50204e-06 -5.75051e-20)
(0.0277091 -3.49286e-06 3.18338e-19)
(0.0277121 -3.48366e-06 -6.45025e-20)
(0.027715 -3.47443e-06 3.22638e-19)
(0.0277179 -3.46518e-06 -6.41053e-20)
(0.0277207 -3.4559e-06 3.19152e-19)
(0.0277235 -3.44659e-06 -6.03792e-20)
(0.0277262 -3.43727e-06 3.26593e-19)
(0.0277289 -3.42792e-06 -6.01775e-20)
(0.0277316 -3.41853e-06 3.23092e-19)
(0.0277342 -3.40913e-06 -6.16239e-20)
(0.0277367 -3.3997e-06 3.22626e-19)
(0.0277393 -3.39026e-06 -5.70222e-20)
(0.0277417 -3.38079e-06 3.28481e-19)
(0.0277441 -3.3713e-06 -5.5383e-20)
(0.0277465 -3.36179e-06 3.27061e-19)
(0.0277489 -3.35227e-06 -5.78005e-20)
(0.0277511 -3.34272e-06 3.21842e-19)
(0.0277534 -3.33317e-06 -6.03545e-20)
(0.0277556 -3.3236e-06 3.28133e-19)
(0.0277577 -3.314e-06 -5.77375e-20)
(0.0277598 -3.30439e-06 3.23424e-19)
(0.0277619 -3.29477e-06 -5.61907e-20)
(0.0277639 -3.28512e-06 3.25653e-19)
(0.0277659 -3.27548e-06 -6.0068e-20)
(0.0277678 -3.26577e-06 3.2653e-19)
(0.0277697 -3.25621e-06 -5.13845e-20)
(0.0277716 -3.24624e-06 3.37398e-19)
(0.0277734 -3.23717e-06 -6.2019e-20)
(0.0277751 -3.2263e-06 3.24582e-19)
(0.0277768 -3.2184e-06 -4.68385e-20)
(0.0277785 -3.20688e-06 3.37955e-19)
(0.0277801 -3.19558e-06 -3.3119e-20)
(0.0277817 -3.19573e-06 3.01689e-19)
(0.0277832 -3.15447e-06 5.21285e-20)
(0.0277849 -3.21511e-06 1.73452e-19)
(0.027786 -3.15167e-06 1.25643e-19)
(0.0277874 -3.42558e-06 3.6004e-19)
(0.0506784 -1.11131e-05 3.96017e-19)
(0.0506829 -1.15196e-05 1.86091e-19)
(0.0506869 -1.26626e-05 1.86647e-18)
(0.0506946 -1.38335e-05 1.69206e-19)
(0.050703 -1.34552e-05 3.90411e-19)
(0.0507108 -1.27836e-05 2.06014e-19)
(0.0507181 -1.25617e-05 1.85376e-18)
(0.0507253 -1.24135e-05 1.82955e-19)
(0.0507321 -1.23194e-05 3.81102e-19)
(0.0507387 -1.23292e-05 1.75914e-19)
(0.0507453 -1.23121e-05 1.83395e-18)
(0.0507519 -1.22613e-05 1.49512e-19)
(0.0507583 -1.22389e-05 4.07103e-19)
(0.0507647 -1.22257e-05 4.40564e-20)
(0.050771 -1.22024e-05 2.12586e-18)
(0.0507773 -1.21785e-05 -4.41464e-19)
(0.0507835 -1.21572e-05 1.16012e-18)
(0.0507896 -1.2138e-05 -5.11623e-19)
(0.0507956 -1.21209e-05 1.73872e-18)
(0.0508017 -1.21039e-05 1.1422e-19)
(0.0508076 -1.20865e-05 2.15386e-18)
(0.0508135 -1.20692e-05 2.3807e-19)
(0.0508194 -1.20523e-05 2.14855e-18)
(0.0508251 -1.20357e-05 2.30325e-19)
(0.0508309 -1.20193e-05 2.11206e-18)
(0.0508365 -1.20028e-05 2.16929e-19)
(0.0508422 -1.19863e-05 2.11988e-18)
(0.0508477 -1.19697e-05 2.7322e-19)
(0.0508532 -1.19531e-05 2.12338e-18)
(0.0508587 -1.19364e-05 2.2026e-19)
(0.0508641 -1.19197e-05 2.11244e-18)
(0.0508694 -1.19028e-05 1.6765e-19)
(0.0508747 -1.18858e-05 2.0842e-18)
(0.05088 -1.18688e-05 2.09097e-19)
(0.0508852 -1.18518e-05 2.0938e-18)
(0.0508903 -1.18348e-05 2.02063e-19)
(0.0508954 -1.18179e-05 2.14565e-18)
(0.0509004 -1.18011e-05 2.12228e-19)
(0.0509053 -1.17846e-05 2.0882e-18)
(0.0509102 -1.17684e-05 2.01766e-19)
(0.0509151 -1.17526e-05 2.10921e-18)
(0.0509199 -1.17372e-05 1.87844e-19)
(0.0509246 -1.17222e-05 2.13594e-18)
(0.0509293 -1.17078e-05 1.98278e-19)
(0.050934 -1.16938e-05 2.07469e-18)
(0.0509385 -1.16805e-05 2.09793e-19)
(0.0509431 -1.16676e-05 2.13837e-18)
(0.0509475 -1.16553e-05 2.35104e-19)
(0.050952 -1.16434e-05 2.13738e-18)
(0.0509563 -1.1632e-05 2.34055e-19)
(0.0509606 -1.1621e-05 2.08069e-18)
(0.0509649 -1.16104e-05 1.66468e-19)
(0.0509691 -1.16002e-05 2.1255e-18)
(0.0509733 -1.15903e-05 1.82227e-19)
(0.0509774 -1.15808e-05 2.08307e-18)
(0.0509815 -1.15716e-05 1.75635e-19)
(0.0509855 -1.15627e-05 2.11856e-18)
(0.0509894 -1.1554e-05 2.26076e-19)
(0.0509933 -1.15457e-05 2.15489e-18)
(0.0509972 -1.15376e-05 2.09649e-19)
(0.051001 -1.15297e-05 2.14216e-18)
(0.0510048 -1.15221e-05 1.9907e-19)
(0.0510085 -1.15146e-05 2.11418e-18)
(0.0510122 -1.15074e-05 2.04086e-19)
(0.0510158 -1.15002e-05 2.13147e-18)
(0.0510194 -1.14932e-05 2.49527e-19)
(0.0510229 -1.14862e-05 2.10339e-18)
(0.0510263 -1.14793e-05 2.16205e-19)
(0.0510298 -1.14724e-05 2.12017e-18)
(0.0510331 -1.14655e-05 1.96351e-19)
(0.0510365 -1.14586e-05 2.10843e-18)
(0.0510398 -1.14516e-05 1.87325e-19)
(0.051043 -1.14446e-05 2.14441e-18)
(0.0510462 -1.14375e-05 1.95999e-19)
(0.0510493 -1.14303e-05 2.04091e-18)
(0.0510524 -1.1423e-05 3.55429e-19)
(0.0510554 -1.14155e-05 1.7322e-18)
(0.0510584 -1.14079e-05 1.17484e-18)
(0.0510614 -1.14002e-05 3.67324e-19)
(0.0510643 -1.13923e-05 2.55424e-18)
(0.0510671 -1.13843e-05 8.93878e-20)
(0.0510699 -1.13761e-05 1.57195e-18)
(0.0510727 -1.13678e-05 -3.23023e-19)
(0.0510754 -1.13594e-05 1.81216e-18)
(0.051078 -1.13509e-05 5.89253e-20)
(0.0510807 -1.13422e-05 2.08194e-18)
(0.0510832 -1.13334e-05 1.85166e-19)
(0.0510857 -1.13245e-05 2.08981e-18)
(0.0510882 -1.13155e-05 2.35319e-19)
(0.0510906 -1.13063e-05 2.14857e-18)
(0.051093 -1.1297e-05 2.26459e-19)
(0.0510953 -1.12876e-05 2.11818e-18)
(0.0510976 -1.12781e-05 1.84414e-19)
(0.0510998 -1.12685e-05 2.11093e-18)
(0.051102 -1.12588e-05 1.87698e-19)
(0.0511042 -1.12491e-05 2.10272e-18)
(0.0511062 -1.12393e-05 2.07766e-19)
(0.0511083 -1.12294e-05 2.13462e-18)
(0.0511103 -1.12195e-05 1.96629e-19)
(0.0511122 -1.12095e-05 2.13569e-18)
(0.0511141 -1.11994e-05 2.05973e-19)
(0.051116 -1.11893e-05 2.10223e-18)
(0.0511178 -1.11792e-05 1.89329e-19)
(0.0511196 -1.1169e-05 2.17435e-18)
(0.0511213 -1.11588e-05 2.1927e-19)
(0.0511229 -1.11485e-05 2.10085e-18)
(0.0511245 -1.11382e-05 2.0534e-19)
(0.0511261 -1.11279e-05 2.12613e-18)
(0.0511276 -1.11175e-05 2.35964e-19)
(0.0511291 -1.11071e-05 2.12822e-18)
(0.0511305 -1.10967e-05 2.18649e-19)
(0.0511319 -1.10862e-05 2.10453e-18)
(0.0511333 -1.10757e-05 2.30288e-19)
(0.0511346 -1.10652e-05 2.11836e-18)
(0.0511358 -1.10547e-05 2.08904e-19)
(0.051137 -1.10441e-05 2.06739e-18)
(0.0511381 -1.10336e-05 1.80881e-19)
(0.0511392 -1.1023e-05 2.12844e-18)
(0.0511403 -1.10124e-05 1.72839e-19)
(0.0511413 -1.10017e-05 2.06048e-18)
(0.0511423 -1.09911e-05 2.32964e-19)
(0.0511432 -1.09804e-05 2.12164e-18)
(0.051144 -1.09698e-05 1.97198e-19)
(0.0511449 -1.09591e-05 2.08331e-18)
(0.0511456 -1.09484e-05 1.91532e-19)
(0.0511464 -1.09377e-05 2.08441e-18)
(0.0511471 -1.0927e-05 2.01849e-19)
(0.0511477 -1.09162e-05 2.10854e-18)
(0.0511483 -1.09055e-05 1.92777e-19)
(0.0511488 -1.08948e-05 2.08855e-18)
(0.0511493 -1.0884e-05 1.62984e-19)
(0.0511498 -1.08733e-05 2.10016e-18)
(0.0511502 -1.08625e-05 1.76351e-19)
(0.0511505 -1.08517e-05 2.11294e-18)
(0.0511508 -1.08409e-05 2.26807e-19)
(0.0511511 -1.08301e-05 2.12886e-18)
(0.0511513 -1.08193e-05 2.28302e-19)
(0.0511515 -1.08085e-05 2.10564e-18)
(0.0511516 -1.07977e-05 2.01518e-19)
(0.0511517 -1.07869e-05 2.11573e-18)
(0.0511517 -1.07761e-05 2.15102e-19)
(0.0511517 -1.07652e-05 2.11178e-18)
(0.0511517 -1.07544e-05 2.03767e-19)
(0.0511516 -1.07436e-05 2.07374e-18)
(0.0511514 -1.07328e-05 2.26552e-19)
(0.0511512 -1.07219e-05 2.10903e-18)
(0.051151 -1.07111e-05 2.14544e-19)
(0.0511507 -1.07003e-05 2.08876e-18)
(0.0511504 -1.06894e-05 1.77807e-19)
(0.05115 -1.06786e-05 2.09696e-18)
(0.0511496 -1.06677e-05 1.83734e-19)
(0.0511491 -1.06569e-05 2.0851e-18)
(0.0511486 -1.0646e-05 1.95597e-19)
(0.051148 -1.06352e-05 2.11609e-18)
(0.0511474 -1.06244e-05 2.06495e-19)
(0.0511468 -1.06136e-05 2.10123e-18)
(0.0511461 -1.06027e-05 1.91455e-19)
(0.0511454 -1.05919e-05 2.08947e-18)
(0.0511446 -1.05811e-05 2.00666e-19)
(0.0511438 -1.05703e-05 2.11839e-18)
(0.0511429 -1.05595e-05 2.18331e-19)
(0.051142 -1.05487e-05 2.11912e-18)
(0.051141 -1.0538e-05 2.17899e-19)
(0.05114 -1.05272e-05 2.0923e-18)
(0.0511389 -1.05164e-05 1.84406e-19)
(0.0511378 -1.05057e-05 2.11697e-18)
(0.0511367 -1.04949e-05 2.16359e-19)
(0.0511355 -1.04842e-05 2.09443e-18)
(0.0511343 -1.04735e-05 2.1136e-19)
(0.051133 -1.04628e-05 2.10886e-18)
(0.0511317 -1.04522e-05 1.84855e-19)
(0.0511303 -1.04415e-05 2.09885e-18)
(0.0511289 -1.04312e-05 2.23038e-19)
(0.0511275 -1.04201e-05 2.15965e-18)
(0.051126 -1.0411e-05 1.8757e-19)
(0.0511244 -1.03979e-05 2.0699e-18)
(0.0511229 -1.03919e-05 2.208e-19)
(0.0511212 -1.0377e-05 2.12826e-18)
(0.0511196 -1.03663e-05 3.19345e-19)
(0.0511179 -1.03774e-05 1.89556e-18)
(0.0511159 -1.02996e-05 7.66035e-19)
(0.0511146 -1.04331e-05 1.31207e-18)
(0.0511119 -1.02692e-05 9.10824e-19)
(0.0511105 -1.05758e-05 2.34914e-18)
(0.0604524 -1.45877e-05 1.14854e-18)
(0.0604506 -1.39861e-05 5.68766e-18)
(0.0604503 -1.46183e-05 5.64847e-20)
(0.0604522 -1.4996e-05 2.19519e-18)
(0.0604541 -1.45986e-05 1.22344e-18)
(0.0604556 -1.45076e-05 5.65812e-18)
(0.0604571 -1.43286e-05 1.26097e-19)
(0.0604584 -1.41579e-05 2.18291e-18)
(0.0604595 -1.41718e-05 1.13384e-18)
(0.0604607 -1.41559e-05 5.5881e-18)
(0.0604618 -1.40872e-05 3.17466e-20)
(0.0604628 -1.40667e-05 2.31573e-18)
(0.0604637 -1.40602e-05 7.44286e-19)
(0.0604646 -1.40383e-05 6.46457e-18)
(0.0604655 -1.40166e-05 -1.65365e-18)
(0.0604663 -1.3998e-05 4.62808e-18)
(0.060467 -1.39821e-05 -1.27625e-18)
(0.0604677 -1.39699e-05 6.41495e-18)
(0.0604684 -1.39583e-05 5.47093e-19)
(0.060469 -1.39459e-05 7.65119e-18)
(0.0604695 -1.39335e-05 9.99995e-19)
(0.06047 -1.39218e-05 7.72759e-18)
(0.0604705 -1.39106e-05 1.04262e-18)
(0.0604709 -1.38997e-05 7.68163e-18)
(0.0604712 -1.38889e-05 9.83817e-19)
(0.0604715 -1.38779e-05 7.67728e-18)
(0.0604718 -1.38671e-05 1.18253e-18)
(0.060472 -1.38562e-05 7.72544e-18)
(0.0604722 -1.38452e-05 1.04908e-18)
(0.0604723 -1.38343e-05 7.67557e-18)
(0.0604723 -1.38232e-05 8.62344e-19)
(0.0604724 -1.3812e-05 7.61212e-18)
(0.0604723 -1.38008e-05 9.96885e-19)
(0.0604723 -1.37894e-05 7.69315e-18)
(0.0604722 -1.37779e-05 9.89893e-19)
(0.060472 -1.37663e-05 7.77815e-18)
(0.0604718 -1.37546e-05 1.05772e-18)
(0.0604716 -1.3743e-05 7.60046e-18)
(0.0604713 -1.37313e-05 9.76593e-19)
(0.0604709 -1.37198e-05 7.6946e-18)
(0.0604705 -1.37084e-05 9.72473e-19)
(0.0604701 -1.36972e-05 7.74658e-18)
(0.0604696 -1.36864e-05 9.66877e-19)
(0.0604691 -1.3676e-05 7.63351e-18)
(0.0604685 -1.36659e-05 1.01153e-18)
(0.0604679 -1.36563e-05 7.77924e-18)
(0.0604672 -1.36471e-05 1.07087e-18)
(0.0604664 -1.36382e-05 7.79963e-18)
(0.0604657 -1.36298e-05 1.1489e-18)
(0.0604648 -1.36216e-05 7.64593e-18)
(0.060464 -1.36138e-05 8.95112e-19)
(0.060463 -1.36063e-05 7.71331e-18)
(0.0604621 -1.35991e-05 9.53061e-19)
(0.060461 -1.3592e-05 7.63287e-18)
(0.06046 -1.35852e-05 9.0253e-19)
(0.0604589 -1.35785e-05 7.72803e-18)
(0.0604577 -1.35719e-05 1.06252e-18)
(0.0604565 -1.35655e-05 7.83874e-18)
(0.0604552 -1.35593e-05 1.0073e-18)
(0.0604539 -1.35531e-05 7.80532e-18)
(0.0604525 -1.3547e-05 1.00433e-18)
(0.0604511 -1.35409e-05 7.76159e-18)
(0.0604497 -1.3535e-05 1.02331e-18)
(0.0604482 -1.35291e-05 7.73737e-18)
(0.0604466 -1.35232e-05 1.15352e-18)
(0.060445 -1.35174e-05 7.67615e-18)
(0.0604434 -1.35117e-05 1.03214e-18)
(0.0604417 -1.35059e-05 7.70367e-18)
(0.0604399 -1.35002e-05 9.42849e-19)
(0.0604381 -1.34946e-05 7.6961e-18)
(0.0604363 -1.34889e-05 9.58713e-19)
(0.0604344 -1.34833e-05 7.80883e-18)
(0.0604324 -1.34777e-05 1.01785e-18)
(0.0604305 -1.34721e-05 7.48801e-18)
(0.0604284 -1.34665e-05 1.48775e-18)
(0.0604264 -1.34609e-05 6.54766e-18)
(0.0604242 -1.34553e-05 3.87106e-18)
(0.060422 -1.34498e-05 2.49e-18)
(0.0604198 -1.34442e-05 8.40501e-18)
(0.0604176 -1.34387e-05 2.63691e-19)
(0.0604152 -1.34331e-05 6.05493e-18)
(0.0604129 -1.34276e-05 -5.06008e-19)
(0.0604105 -1.3422e-05 6.83427e-18)
(0.060408 -1.34165e-05 5.75573e-19)
(0.0604055 -1.34109e-05 7.59099e-18)
(0.0604029 -1.34054e-05 9.35927e-19)
(0.0604003 -1.33998e-05 7.64199e-18)
(0.0603977 -1.33942e-05 1.08382e-18)
(0.060395 -1.33887e-05 7.81041e-18)
(0.0603922 -1.33831e-05 1.07064e-18)
(0.0603894 -1.33775e-05 7.73174e-18)
(0.0603866 -1.33719e-05 9.60884e-19)
(0.0603837 -1.33663e-05 7.71022e-18)
(0.0603808 -1.33607e-05 9.50185e-19)
(0.0603778 -1.33552e-05 7.69487e-18)
(0.0603748 -1.33496e-05 1.02923e-18)
(0.0603717 -1.33441e-05 7.76709e-18)
(0.0603686 -1.33386e-05 9.78003e-19)
(0.0603654 -1.33331e-05 7.75906e-18)
(0.0603622 -1.33277e-05 1.01774e-18)
(0.0603589 -1.33222e-05 7.73233e-18)
(0.0603556 -1.33169e-05 9.57607e-19)
(0.0603522 -1.33115e-05 7.8567e-18)
(0.0603488 -1.33062e-05 1.08254e-18)
(0.0603454 -1.33009e-05 7.68201e-18)
(0.0603419 -1.32957e-05 1.01417e-18)
(0.0603383 -1.32904e-05 7.73494e-18)
(0.0603347 -1.32853e-05 1.06434e-18)
(0.0603311 -1.32801e-05 7.77968e-18)
(0.0603274 -1.3275e-05 1.05237e-18)
(0.0603236 -1.32699e-05 7.6861e-18)
(0.0603199 -1.32649e-05 1.08468e-18)
(0.060316 -1.32598e-05 7.75177e-18)
(0.0603122 -1.32548e-05 1.01977e-18)
(0.0603082 -1.32499e-05 7.62672e-18)
(0.0603043 -1.3245e-05 9.49943e-19)
(0.0603002 -1.32401e-05 7.7755e-18)
(0.0602962 -1.32352e-05 9.03261e-19)
(0.0602921 -1.32304e-05 7.56904e-18)
(0.0602879 -1.32256e-05 1.11528e-18)
(0.0602837 -1.32209e-05 7.78425e-18)
(0.0602795 -1.32162e-05 1.01598e-18)
(0.0602752 -1.32115e-05 7.60346e-18)
(0.0602708 -1.32068e-05 9.42855e-19)
(0.0602664 -1.32022e-05 7.64138e-18)
(0.060262 -1.31977e-05 1.02395e-18)
(0.0602575 -1.31931e-05 7.66669e-18)
(0.060253 -1.31886e-05 1.01267e-18)
(0.0602484 -1.31841e-05 7.60729e-18)
(0.0602438 -1.31797e-05 8.70993e-19)
(0.0602391 -1.31753e-05 7.65732e-18)
(0.0602344 -1.3171e-05 9.03022e-19)
(0.0602296 -1.31667e-05 7.70183e-18)
(0.0602248 -1.31624e-05 1.10776e-18)
(0.06022 -1.31582e-05 7.7272e-18)
(0.0602151 -1.3154e-05 1.06687e-18)
(0.0602101 -1.31499e-05 7.69343e-18)
(0.0602052 -1.31458e-05 9.90368e-19)
(0.0602001 -1.31417e-05 7.68432e-18)
(0.060195 -1.31377e-05 1.03293e-18)
(0.0601899 -1.31337e-05 7.69859e-18)
(0.0601847 -1.31297e-05 1.00985e-18)
(0.0601795 -1.31258e-05 7.6054e-18)
(0.0601742 -1.31219e-05 1.06311e-18)
(0.0601689 -1.31181e-05 7.72181e-18)
(0.0601636 -1.31142e-05 1.02625e-18)
(0.0601582 -1.31105e-05 7.65398e-18)
(0.0601527 -1.31067e-05 9.39217e-19)
(0.0601472 -1.31031e-05 7.67206e-18)
(0.0601417 -1.30994e-05 9.35828e-19)
(0.0601361 -1.30958e-05 7.65907e-18)
(0.0601305 -1.30922e-05 9.94061e-19)
(0.0601248 -1.30887e-05 7.74606e-18)
(0.0601191 -1.30852e-05 1.04034e-18)
(0.0601133 -1.30817e-05 7.70104e-18)
(0.0601075 -1.30783e-05 9.82237e-19)
(0.0601017 -1.30748e-05 7.64558e-18)
(0.0600957 -1.30715e-05 9.61373e-19)
(0.0600898 -1.30681e-05 7.72921e-18)
(0.0600838 -1.30648e-05 1.03443e-18)
(0.0600778 -1.30616e-05 7.73227e-18)
(0.0600717 -1.30583e-05 1.0863e-18)
(0.0600656 -1.30551e-05 7.65114e-18)
(0.0600594 -1.3052e-05 9.01078e-19)
(0.0600532 -1.30489e-05 7.71165e-18)
(0.0600469 -1.30458e-05 1.07298e-18)
(0.0600406 -1.30428e-05 7.65394e-18)
(0.0600343 -1.30398e-05 1.02531e-18)
(0.0600279 -1.30369e-05 7.68323e-18)
(0.0600214 -1.30341e-05 9.06966e-19)
(0.060015 -1.30312e-05 7.65845e-18)
(0.0600084 -1.30287e-05 1.06171e-18)
(0.0600018 -1.30255e-05 7.83364e-18)
(0.0599952 -1.30244e-05 9.86168e-19)
(0.0599886 -1.30194e-05 7.54626e-18)
(0.0599819 -1.30221e-05 9.88177e-19)
(0.0599751 -1.30138e-05 7.719e-18)
(0.0599684 -1.30168e-05 1.33061e-18)
(0.0599615 -1.30263e-05 7.0215e-18)
(0.0599545 -1.29813e-05 2.6398e-18)
(0.059948 -1.30876e-05 5.22959e-18)
(0.0599403 -1.29717e-05 3.44673e-18)
(0.0599335 -1.30834e-05 7.37365e-18)
(0.0635564 -1.52344e-05 1.13121e-17)
(0.063553 -1.44743e-05 -2.38072e-18)
(0.0635513 -1.45383e-05 1.05673e-17)
(0.0635501 -1.45152e-05 5.0524e-18)
(0.0635487 -1.43636e-05 1.12542e-17)
(0.0635475 -1.40436e-05 -2.19708e-18)
(0.0635462 -1.3882e-05 1.05442e-17)
(0.0635447 -1.39385e-05 4.85695e-18)
(0.0635431 -1.39224e-05 1.11028e-17)
(0.0635416 -1.3841e-05 -2.44956e-18)
(0.06354 -1.3826e-05 1.12134e-17)
(0.0635383 -1.38235e-05 4.26841e-18)
(0.0635365 -1.38007e-05 1.26424e-17)
(0.0635348 -1.37796e-05 -5.46671e-18)
(0.063533 -1.37603e-05 1.5938e-17)
(0.0635311 -1.37433e-05 -1.90742e-18)
(0.0635292 -1.3731e-05 1.96035e-17)
(0.0635272 -1.37194e-05 1.31771e-18)
(0.0635252 -1.37069e-05 2.16824e-17)
(0.0635232 -1.36945e-05 1.98774e-18)
(0.0635211 -1.36828e-05 2.21228e-17)
(0.0635189 -1.36721e-05 2.12509e-18)
(0.0635167 -1.36618e-05 2.21776e-17)
(0.0635145 -1.36518e-05 1.98488e-18)
(0.0635122 -1.36417e-05 2.19329e-17)
(0.0635099 -1.36318e-05 2.40108e-18)
(0.0635075 -1.36223e-05 2.1982e-17)
(0.0635051 -1.36129e-05 2.20801e-18)
(0.0635027 -1.36036e-05 2.19204e-17)
(0.0635002 -1.35943e-05 1.70537e-18)
(0.0634976 -1.35851e-05 2.19136e-17)
(0.0634951 -1.35759e-05 2.0252e-18)
(0.0634924 -1.35668e-05 2.22241e-17)
(0.0634898 -1.35577e-05 2.1072e-18)
(0.0634871 -1.35484e-05 2.21017e-17)
(0.0634843 -1.35392e-05 2.27635e-18)
(0.0634816 -1.35299e-05 2.15755e-17)
(0.0634787 -1.35205e-05 1.92581e-18)
(0.0634759 -1.35112e-05 2.17648e-17)
(0.063473 -1.35021e-05 2.05795e-18)
(0.06347 -1.3493e-05 2.19018e-17)
(0.063467 -1.34841e-05 1.90675e-18)
(0.063464 -1.34755e-05 2.16988e-17)
(0.0634609 -1.34672e-05 2.10354e-18)
(0.0634577 -1.34592e-05 2.21813e-17)
(0.0634546 -1.34516e-05 2.09932e-18)
(0.0634513 -1.34444e-05 2.23185e-17)
(0.0634481 -1.34375e-05 2.4682e-18)
(0.0634447 -1.34309e-05 2.18091e-17)
(0.0634414 -1.34247e-05 1.89592e-18)
(0.0634379 -1.34187e-05 2.18825e-17)
(0.0634345 -1.34131e-05 1.97409e-18)
(0.063431 -1.34077e-05 2.18396e-17)
(0.0634274 -1.34026e-05 1.82624e-18)
(0.0634238 -1.33976e-05 2.19837e-17)
(0.0634201 -1.33929e-05 2.18483e-18)
(0.0634164 -1.33883e-05 2.23022e-17)
(0.0634127 -1.33839e-05 2.06779e-18)
(0.0634089 -1.33796e-05 2.21892e-17)
(0.063405 -1.33754e-05 2.03508e-18)
(0.0634011 -1.33714e-05 2.23426e-17)
(0.0633972 -1.33675e-05 2.20975e-18)
(0.0633932 -1.33636e-05 2.18102e-17)
(0.0633892 -1.33598e-05 2.37031e-18)
(0.0633851 -1.33561e-05 2.19382e-17)
(0.0633809 -1.33524e-05 2.12553e-18)
(0.0633768 -1.33488e-05 2.17171e-17)
(0.0633725 -1.33452e-05 1.84966e-18)
(0.0633682 -1.33417e-05 2.18237e-17)
(0.0633639 -1.33382e-05 1.99856e-18)
(0.0633595 -1.33347e-05 2.19763e-17)
(0.0633551 -1.33312e-05 2.13427e-18)
(0.0633507 -1.33278e-05 2.14851e-17)
(0.0633461 -1.33244e-05 2.90321e-18)
(0.0633416 -1.3321e-05 1.99527e-17)
(0.063337 -1.33176e-05 6.99606e-18)
(0.0633323 -1.33143e-05 1.22768e-17)
(0.0633276 -1.33109e-05 1.81592e-17)
(0.0633228 -1.33076e-05 -1.41253e-18)
(0.063318 -1.33042e-05 1.84617e-17)
(0.0633132 -1.33009e-05 -6.78749e-19)
(0.0633083 -1.32976e-05 2.04927e-17)
(0.0633034 -1.32944e-05 1.39677e-18)
(0.0632984 -1.32911e-05 2.15513e-17)
(0.0632933 -1.32879e-05 1.88057e-18)
(0.0632882 -1.32846e-05 2.19368e-17)
(0.0632831 -1.32814e-05 2.22094e-18)
(0.0632779 -1.32782e-05 2.19937e-17)
(0.0632727 -1.3275e-05 2.18893e-18)
(0.0632674 -1.32718e-05 2.19048e-17)
(0.0632621 -1.32686e-05 2.00424e-18)
(0.0632567 -1.32653e-05 2.19639e-17)
(0.0632513 -1.32621e-05 1.94567e-18)
(0.0632458 -1.32589e-05 2.20251e-17)
(0.0632403 -1.32557e-05 2.1788e-18)
(0.0632348 -1.32526e-05 2.21178e-17)
(0.0632292 -1.32494e-05 2.02081e-18)
(0.0632235 -1.32462e-05 2.19065e-17)
(0.0632178 -1.3243e-05 2.01435e-18)
(0.0632121 -1.32399e-05 2.21158e-17)
(0.0632063 -1.32367e-05 2.05446e-18)
(0.0632004 -1.32335e-05 2.21675e-17)
(0.0631945 -1.32303e-05 2.24392e-18)
(0.0631886 -1.32272e-05 2.18874e-17)
(0.0631826 -1.3224e-05 2.0792e-18)
(0.0631766 -1.32208e-05 2.21234e-17)
(0.0631705 -1.32176e-05 2.09233e-18)
(0.0631644 -1.32144e-05 2.23459e-17)
(0.0631582 -1.32112e-05 2.18033e-18)
(0.063152 -1.3208e-05 2.19899e-17)
(0.0631457 -1.32049e-05 2.19106e-18)
(0.0631394 -1.32017e-05 2.21963e-17)
(0.063133 -1.31985e-05 2.09121e-18)
(0.0631266 -1.31954e-05 2.18509e-17)
(0.0631202 -1.31922e-05 2.01585e-18)
(0.0631137 -1.3189e-05 2.21819e-17)
(0.0631071 -1.31858e-05 1.85998e-18)
(0.0631005 -1.31826e-05 2.16891e-17)
(0.0630939 -1.31794e-05 2.3049e-18)
(0.0630872 -1.31762e-05 2.24392e-17)
(0.0630805 -1.3173e-05 2.20323e-18)
(0.0630737 -1.31698e-05 2.1663e-17)
(0.0630669 -1.31666e-05 1.86383e-18)
(0.06306 -1.31634e-05 2.17576e-17)
(0.0630531 -1.31603e-05 2.20483e-18)
(0.0630461 -1.31571e-05 2.17094e-17)
(0.0630391 -1.31539e-05 2.15719e-18)
(0.0630321 -1.31507e-05 2.14612e-17)
(0.063025 -1.31476e-05 1.75595e-18)
(0.0630178 -1.31444e-05 2.17831e-17)
(0.0630106 -1.31413e-05 1.81631e-18)
(0.0630034 -1.31382e-05 2.19267e-17)
(0.0629961 -1.3135e-05 2.36153e-18)
(0.0629887 -1.31319e-05 2.1743e-17)
(0.0629814 -1.31288e-05 2.11573e-18)
(0.0629739 -1.31258e-05 2.20214e-17)
(0.0629665 -1.31227e-05 2.05901e-18)
(0.0629589 -1.31196e-05 2.18217e-17)
(0.0629514 -1.31166e-05 2.11069e-18)
(0.0629438 -1.31136e-05 2.16946e-17)
(0.0629361 -1.31106e-05 2.0329e-18)
(0.0629284 -1.31076e-05 2.18199e-17)
(0.0629207 -1.31046e-05 2.14505e-18)
(0.0629129 -1.31016e-05 2.21176e-17)
(0.062905 -1.30987e-05 2.14349e-18)
(0.0628971 -1.30957e-05 2.16446e-17)
(0.0628892 -1.30928e-05 1.95736e-18)
(0.0628812 -1.30898e-05 2.18934e-17)
(0.0628732 -1.30869e-05 1.91826e-18)
(0.0628651 -1.3084e-05 2.18885e-17)
(0.062857 -1.30811e-05 2.05005e-18)
(0.0628489 -1.30783e-05 2.21412e-17)
(0.0628407 -1.30754e-05 2.19898e-18)
(0.0628324 -1.30726e-05 2.20695e-17)
(0.0628241 -1.30697e-05 2.0704e-18)
(0.0628158 -1.30669e-05 2.20254e-17)
(0.0628074 -1.30641e-05 1.93534e-18)
(0.062799 -1.30613e-05 2.21042e-17)
(0.0627905 -1.30585e-05 2.13508e-18)
(0.062782 -1.30557e-05 2.20901e-17)
(0.0627734 -1.3053e-05 2.32187e-18)
(0.0627648 -1.30502e-05 2.1796e-17)
(0.0627562 -1.30474e-05 1.77016e-18)
(0.0627475 -1.30447e-05 2.1874e-17)
(0.0627387 -1.3042e-05 2.27246e-18)
(0.0627299 -1.30393e-05 2.18229e-17)
(0.0627211 -1.30367e-05 2.15379e-18)
(0.0627122 -1.30341e-05 2.16751e-17)
(0.0627033 -1.30315e-05 1.75778e-18)
(0.0626943 -1.3029e-05 2.19842e-17)
(0.0626853 -1.30268e-05 2.24242e-18)
(0.0626763 -1.3024e-05 2.20076e-17)
(0.0626672 -1.30229e-05 2.10292e-18)
(0.062658 -1.30189e-05 2.16051e-17)
(0.0626489 -1.30205e-05 1.92668e-18)
(0.0626396 -1.30157e-05 2.20063e-17)
(0.0626304 -1.30143e-05 2.61272e-18)
(0.062621 -1.30313e-05 2.08936e-17)
(0.0626116 -1.29815e-05 5.02842e-18)
(0.0626024 -1.3093e-05 1.68992e-17)
(0.0625924 -1.29862e-05 8.82078e-18)
(0.062583 -1.30773e-05 1.40336e-17)
(0.064351 -1.54751e-05 8.3926e-19)
(0.0643482 -1.38473e-05 1.87291e-18)
(0.0643461 -1.46584e-05 1.43954e-18)
(0.0643439 -1.49009e-05 5.60459e-18)
(0.0643418 -1.44131e-05 9.06227e-19)
(0.0643395 -1.41239e-05 1.86593e-18)
(0.0643371 -1.41623e-05 1.3451e-18)
(0.0643347 -1.4128e-05 5.53396e-18)
(0.0643323 -1.40332e-05 7.61307e-19)
(0.0643298 -1.40235e-05 2.13196e-18)
(0.0643273 -1.40193e-05 6.47932e-19)
(0.0643247 -1.39927e-05 7.03164e-18)
(0.0643221 -1.39721e-05 -1.69305e-18)
(0.0643195 -1.39516e-05 5.00906e-18)
(0.0643167 -1.39335e-05 -1.34684e-18)
(0.064314 -1.39218e-05 6.68942e-18)
(0.0643112 -1.39107e-05 2.0611e-19)
(0.0643083 -1.38985e-05 7.64561e-18)
(0.0643055 -1.38865e-05 4.72626e-19)
(0.0643025 -1.38753e-05 7.60858e-18)
(0.0642995 -1.38652e-05 4.68173e-19)
(0.0642965 -1.38558e-05 7.55082e-18)
(0.0642935 -1.38466e-05 3.94435e-19)
(0.0642903 -1.38377e-05 7.53894e-18)
(0.0642872 -1.38292e-05 5.83503e-19)
(0.064284 -1.38211e-05 7.59816e-18)
(0.0642808 -1.38133e-05 4.74375e-19)
(0.0642775 -1.38059e-05 7.55233e-18)
(0.0642742 -1.37987e-05 2.73688e-19)
(0.0642708 -1.37917e-05 7.46775e-18)
(0.0642674 -1.37849e-05 4.10702e-19)
(0.064264 -1.37782e-05 7.55557e-18)
(0.0642605 -1.37716e-05 3.94643e-19)
(0.064257 -1.37648e-05 7.63862e-18)
(0.0642534 -1.37579e-05 4.74383e-19)
(0.0642498 -1.37508e-05 7.45872e-18)
(0.0642462 -1.37435e-05 3.94844e-19)
(0.0642425 -1.37359e-05 7.55951e-18)
(0.0642388 -1.37282e-05 3.86429e-19)
(0.064235 -1.37202e-05 7.61272e-18)
(0.0642312 -1.37123e-05 3.84916e-19)
(0.0642273 -1.37044e-05 7.50699e-18)
(0.0642234 -1.36965e-05 4.23128e-19)
(0.0642195 -1.36888e-05 7.64663e-18)
(0.0642155 -1.36814e-05 4.9237e-19)
(0.0642115 -1.36741e-05 7.66043e-18)
(0.0642074 -1.36671e-05 5.65553e-19)
(0.0642033 -1.36603e-05 7.51246e-18)
(0.0641991 -1.36538e-05 3.09028e-19)
(0.0641949 -1.36475e-05 7.5744e-18)
(0.0641906 -1.36415e-05 3.78169e-19)
(0.0641863 -1.36357e-05 7.49741e-18)
(0.0641819 -1.36301e-05 3.12458e-19)
(0.0641775 -1.36247e-05 7.59181e-18)
(0.0641731 -1.36195e-05 4.77066e-19)
(0.0641686 -1.36144e-05 7.71154e-18)
(0.064164 -1.36095e-05 4.24364e-19)