/*--------------------------------*- C++ -*----------------------------------*\
| =========                 |                                                 |
| \\      /  F ield         | OpenFOAM: The Open Source CFD Toolbox           |
|  \\    /   O peration     | Version:  2512                                  |
|   \\  /    A nd           | Website:  www.openfoam.com                      |
|    \\/     M anipulation  |                                                 |
\*---------------------------------------------------------------------------*/
FoamFile
{
    version     2.0;
    format      ascii;
    arch        "LSB;label=32;scalar=64";
    class       volScalarField;
    location    "0.1";
    object      Ux;
}
// * * * * * * * * * * * * * * * * * * * * * * * * * * * * * * * * * * * * * //

dimensions      [0 1 -1 0 0 0 0];

internalField   nonuniform List<scalar> 
8333
(
0.0267413
0.0267495
0.02676
0.0267728
0.0267853
0.0267966
0.0268073
0.0268178
0.026828
0.0268381
0.0268482
0.0268582
0.0268682
0.026878
0.0268878
0.0268975
0.0269072
0.0269167
0.0269263
0.0269357
0.0269451
0.0269544
0.0269637
0.0269729
0.0269821
0.0269912
0.0270002
0.0270092
0.0270181
0.027027
0.0270358
0.0270445
0.0270532
0.0270618
0.0270703
0.0270788
0.0270872
0.0270956
0.0271039
0.0271121
0.0271203
0.0271284
0.0271365
0.0271445
0.0271524
0.0271603
0.0271682
0.0271759
0.0271837
0.0271913
0.027199
0.0272065
0.0272141
0.0272215
0.0272289
0.0272363
0.0272436
0.0272509
0.0272581
0.0272653
0.0272724
0.0272794
0.0272865
0.0272934
0.0273004
0.0273072
0.027314
0.0273208
0.0273276
0.0273342
0.0273409
0.0273474
0.027354
0.0273605
0.0273669
0.0273733
0.0273796
0.0273859
0.0273922
0.0273984
0.0274045
0.0274106
0.0274167
0.0274227
0.0274286
0.0274346
0.0274404
0.0274462
0.027452
0.0274577
0.0274634
0.027469
0.0274746
0.0274801
0.0274856
0.0274911
0.0274964
0.0275018
0.0275071
0.0275123
0.0275175
0.0275227
0.0275278
0.0275328
0.0275379
0.0275428
0.0275477
0.0275526
0.0275574
0.0275622
0.0275669
0.0275716
0.0275762
0.0275808
0.0275854
0.0275899
0.0275943
0.0275987
0.0276031
0.0276074
0.0276116
0.0276159
0.02762
0.0276241
0.0276282
0.0276322
0.0276362
0.0276402
0.027644
0.0276479
0.0276517
0.0276554
0.0276591
0.0276628
0.0276664
0.02767
0.0276735
0.0276769
0.0276804
0.0276837
0.0276871
0.0276904
0.0276936
0.0276968
0.0276999
0.0277031
0.0277061
0.0277091
0.0277121
0.027715
0.0277179
0.0277207
0.0277235
0.0277262
0.0277289
0.0277316
0.0277342
0.0277367
0.0277393
0.0277417
0.0277441
0.0277465
0.0277489
0.0277511
0.0277534
0.0277556
0.0277577
0.0277598
0.0277619
0.0277639
0.0277659
0.0277678
0.0277697
0.0277716
0.0277734
0.0277751
0.0277768
0.0277785
0.0277801
0.0277817
0.0277832
0.0277849
0.027786
0.0277874
0.0506784
0.0506829
0.0506869
0.0506946
0.050703
0.0507108
0.0507181
0.0507253
0.0507321
0.0507387
0.0507453
0.0507519
0.0507583
0.0507647
0.050771
0.0507773
0.0507835
0.0507896
0.0507956
0.0508017
0.0508076
0.0508135
0.0508194
0.0508251
0.0508309
0.0508365
0.0508422
0.0508477
0.0508532
0.0508587
0.0508641
0.0508694
0.0508747
0.05088
0.0508852
0.0508903
0.0508954
0.0509004
0.0509053
0.0509102
0.0509151
0.0509199
0.0509246
0.0509293
0.050934
0.0509385
0.0509431
0.0509475
0.050952
0.0509563
0.0509606
0.0509649
0.0509691
0.0509733
0.0509774
0.0509815
0.0509855
0.0509894
0.0509933
0.0509972
0.051001
0.0510048
0.0510085
0.0510122
0.0510158
0.0510194
0.0510229
0.0510263
0.0510298
0.0510331
0.0510365
0.0510398
0.051043
0.0510462
0.0510493
0.0510524
0.0510554
0.0510584
0.0510614
0.0510643
0.0510671
0.0510699
0.0510727
0.0510754
0.051078
0.0510807
0.0510832
0.0510857
0.0510882
0.0510906
0.051093
0.0510953
0.0510976
0.0510998
0.051102
0.0511042
0.0511062
0.0511083
0.0511103
0.0511122
0.0511141
0.051116
0.0511178
0.0511196
0.0511213
0.0511229
0.0511245
0.0511261
0.0511276
0.0511291
0.0511305
0.0511319
0.0511333
0.0511346
0.0511358
0.051137
0.0511381
0.0511392
0.0511403
0.0511413
0.0511423
0.0511432
0.051144
0.0511449
0.0511456
0.0511464
0.0511471
0.0511477
0.0511483
0.0511488
0.0511493
0.0511498
0.0511502
0.0511505
0.0511508
0.0511511
0.0511513
0.0511515
0.0511516
0.0511517
0.0511517
0.0511517
0.0511517
0.0511516
0.0511514
0.0511512
0.051151
0.0511507
0.0511504
0.05115
0.0511496
0.0511491
0.0511486
0.051148
0.0511474
0.0511468
0.0511461
0.0511454
0.0511446
0.0511438
0.0511429
0.051142
0.051141
0.05114
0.0511389
0.0511378
0.0511367
0.0511355
0.0511343
0.051133
0.0511317
0.0511303
0.0511289
0.0511275
0.051126
0.0511244
0.0511229
0.0511212
0.0511196
0.0511179
0.0511159
0.0511146
0.0511119
0.0511105
0.0604524
0.0604506
0.0604503
0.0604522
0.0604541
0.0604556
0.0604571
0.0604584
0.0604595
0.0604607
0.0604618
0.0604628
0.0604637
0.0604646
0.0604655
0.0604663
0.060467
0.0604677
0.0604684
0.060469
0.0604695
0.06047
0.0604705
0.0604709
0.0604712
0.0604715
0.0604718
0.060472
0.0604722
0.0604723
0.0604723
0.0604724
0.0604723
0.0604723
0.0604722
0.060472
0.0604718
0.0604716
0.0604713
0.0604709
0.0604705
0.0604701
0.0604696
0.0604691
0.0604685
0.0604679
0.0604672
0.0604664
0.0604657
0.0604648
0.060464
0.060463
0.0604621
0.060461
0.06046
0.0604589
0.0604577
0.0604565
0.0604552
0.0604539
0.0604525
0.0604511
0.0604497
0.0604482
0.0604466
0.060445
0.0604434
0.0604417
0.0604399
0.0604381
0.0604363
0.0604344
0.0604324
0.0604305
0.0604284
0.0604264
0.0604242
0.060422
0.0604198
0.0604176
0.0604152
0.0604129
0.0604105
0.060408
0.0604055
0.0604029
0.0604003
0.0603977
0.060395
0.0603922
0.0603894
0.0603866
0.0603837
0.0603808
0.0603778
0.0603748
0.0603717
0.0603686
0.0603654
0.0603622
0.0603589
0.0603556
0.0603522
0.0603488
0.0603454
0.0603419
0.0603383
0.0603347
0.0603311
0.0603274
0.0603236
0.0603199
0.060316
0.0603122
0.0603082
0.0603043
0.0603002
0.0602962
0.0602921
0.0602879
0.0602837
0.0602795
0.0602752
0.0602708
0.0602664
0.060262
0.0602575
0.060253
0.0602484
0.0602438
0.0602391
0.0602344
0.0602296
0.0602248
0.06022
0.0602151
0.0602101
0.0602052
0.0602001
0.060195
0.0601899
0.0601847
0.0601795
0.0601742
0.0601689
0.0601636
0.0601582
0.0601527
0.0601472
0.0601417
0.0601361
0.0601305
0.0601248
0.0601191
0.0601133
0.0601075
0.0601017
0.0600957
0.0600898
0.0600838
0.0600778
0.0600717
0.0600656
0.0600594
0.0600532
0.0600469
0.0600406
0.0600343
0.0600279
0.0600214
0.060015
0.0600084
0.0600018
0.0599952
0.0599886
0.0599819
0.0599751
0.0599684
0.0599615
0.0599545
0.059948
0.0599403
0.0599335
0.0635564
0.063553
0.0635513
0.0635501
0.0635487
0.0635475
0.0635462
0.0635447
0.0635431
0.0635416
0.06354
0.0635383
0.0635365
0.0635348
0.063533
0.0635311
0.0635292
0.0635272
0.0635252
0.0635232
0.0635211
0.0635189
0.0635167
0.0635145
0.0635122
0.0635099
0.0635075
0.0635051
0.0635027
0.0635002
0.0634976
0.0634951
0.0634924
0.0634898
0.0634871
0.0634843
0.0634816
0.0634787
0.0634759
0.063473
0.06347
0.063467
0.063464
0.0634609
0.0634577
0.0634546
0.0634513
0.0634481
0.0634447
0.0634414
0.0634379
0.0634345
0.063431
0.0634274
0.0634238
0.0634201
0.0634164
0.0634127
0.0634089
0.063405
0.0634011
0.0633972
0.0633932
0.0633892
0.0633851
0.0633809
0.0633768
0.0633725
0.0633682
0.0633639
0.0633595
0.0633551
0.0633507
0.0633461
0.0633416
0.063337
0.0633323
0.0633276
0.0633228
0.063318
0.0633132
0.0633083
0.0633034
0.0632984
0.0632933
0.0632882
0.0632831
0.0632779
0.0632727
0.0632674
0.0632621
0.0632567
0.0632513
0.0632458
0.0632403
0.0632348
0.0632292
0.0632235
0.0632178
0.0632121
0.0632063
0.0632004
0.0631945
0.0631886
0.0631826
0.0631766
0.0631705
0.0631644
0.0631582
0.063152
0.0631457
0.0631394
0.063133
0.0631266
0.0631202
0.0631137
0.0631071
0.0631005
0.0630939
0.0630872
0.0630805
0.0630737
0.0630669
0.06306
0.0630531
0.0630461
0.0630391
0.0630321
0.063025
0.0630178
0.0630106
0.0630034
0.0629961
0.0629887
0.0629814
0.0629739
0.0629665
0.0629589
0.0629514
0.0629438
0.0629361
0.0629284
0.0629207
0.0629129
0.062905
0.0628971
0.0628892
0.0628812
0.0628732
0.0628651
0.062857
0.0628489
0.0628407
0.0628324
0.0628241
0.0628158
0.0628074
0.062799
0.0627905
0.062782
0.0627734
0.0627648
0.0627562
0.0627475
0.0627387
0.0627299
0.0627211
0.0627122
0.0627033
0.0626943
0.0626853
0.0626763
0.0626672
0.062658
0.0626489
0.0626396
0.0626304
0.062621
0.0626116
0.0626024
0.0625924
0.062583
0.064351
0.0643482
0.0643461
0.0643439
0.0643418
0.0643395
0.0643371
0.0643347
0.0643323
0.0643298
0.0643273
0.0643247
0.0643221
0.0643195
0.0643167
0.064314
0.0643112
0.0643083
0.0643055
0.0643025
0.0642995
0.0642965
0.0642935
0.0642903
0.0642872
0.064284
0.0642808
0.0642775
0.0642742
0.0642708
0.0642674
0.064264
0.0642605
0.064257
0.0642534
0.0642498
0.0642462
0.0642425
0.0642388
0.064235
0.0642312
0.0642273
0.0642234
0.0642195
0.0642155
0.0642115
0.0642074
0.0642033
0.0641991
0.0641949
0.0641906
0.0641863
0.0641819
0.0641775
0.0641731
0.0641686
0.064164
0.0641594
0.0641548
0.0641501
0.0641453
0.0641405
0.0641357
0.0641308
0.0641259
0.0641209
0.0641159
0.0641108
0.0641057
0.0641005
0.0640953
0.06409
0.0640847
0.0640793
0.0640739
0.0640685
0.064063
0.0640574
0.0640518
0.0640462
0.0640405
0.0640347
0.0640289
0.0640231
0.0640172
0.0640113
0.0640053
0.0639993
0.0639932
0.0639871
0.0639809
0.0639747
0.0639684
0.0639621
0.0639558
0.0639494
0.0639429
0.0639364
0.0639299
0.0639233
0.0639166
0.0639099
0.0639032
0.0638964
0.0638896
0.0638827
0.0638758
0.0638688
0.0638618
0.0638548
0.0638476
0.0638405
0.0638333
0.063826
0.0638187
0.0638114
0.063804
0.0637966
0.0637891
0.0637816
0.063774
0.0637664
0.0637587
0.063751
0.0637432
0.0637354
0.0637275
0.0637196
0.0637117
0.0637037
0.0636957
0.0636876
0.0636794
0.0636713
0.063663
0.0636548
0.0636465
0.0636381
0.0636297
0.0636212
0.0636127
0.0636042
0.0635956
0.063587
0.0635783
0.0635696
0.0635608
0.063552
0.0635431
0.0635342
0.0635252
0.0635162
0.0635072
0.0634981
0.063489
0.0634798
0.0634706
0.0634613
0.063452
0.0634426
0.0634332
0.0634237
0.0634143
0.0634047
0.0633951
0.0633855
0.0633758
0.0633661
0.0633563
0.0633465
0.0633367
0.0633268
0.0633168
0.0633069
0.0632968
0.0632868
0.0632766
0.0632664
0.0632564
0.0632457
0.0632354
0.0645228
0.0645194
0.0645163
0.0645143
0.0645122
0.0645097
0.064507
0.0645045
0.0645019
0.0644991
0.0644964
0.0644936
0.0644908
0.0644879
0.064485
0.064482
0.064479
0.064476
0.0644729
0.0644698
0.0644666
0.0644633
0.0644601
0.0644568
0.0644534
0.06445
0.0644466
0.0644431
0.0644395
0.064436
0.0644324
0.0644287
0.064425
0.0644213
0.0644176
0.0644138
0.0644099
0.064406
0.0644021
0.0643981
0.0643941
0.0643901
0.064386
0.0643818
0.0643777
0.0643734
0.0643691
0.0643648
0.0643604
0.064356
0.0643516
0.0643471
0.0643425
0.0643379
0.0643332
0.0643285
0.0643238
0.064319
0.0643141
0.0643092
0.0643043
0.0642993
0.0642943
0.0642892
0.0642841
0.0642789
0.0642737
0.0642684
0.0642631
0.0642577
0.0642523
0.0642468
0.0642413
0.0642357
0.0642301
0.0642245
0.0642188
0.064213
0.0642072
0.0642014
0.0641955
0.0641896
0.0641836
0.0641775
0.0641715
0.0641653
0.0641592
0.0641529
0.0641467
0.0641404
0.064134
0.0641276
0.0641211
0.0641146
0.0641081
0.0641015
0.0640948
0.0640881
0.0640814
0.0640746
0.0640677
0.0640609
0.0640539
0.0640469
0.0640399
0.0640328
0.0640257
0.0640186
0.0640114
0.0640041
0.0639968
0.0639894
0.063982
0.0639746
0.0639671
0.0639596
0.063952
0.0639443
0.0639367
0.0639289
0.0639212
0.0639133
0.0639055
0.0638976
0.0638896
0.0638816
0.0638735
0.0638654
0.0638573
0.0638491
0.0638409
0.0638326
0.0638243
0.0638159
0.0638075
0.063799
0.0637905
0.0637819
0.0637733
0.0637647
0.063756
0.0637472
0.0637385
0.0637296
0.0637207
0.0637118
0.0637028
0.0636938
0.0636848
0.0636757
0.0636665
0.0636573
0.0636481
0.0636388
0.0636295
0.0636201
0.0636107
0.0636012
0.0635917
0.0635821
0.0635725
0.0635629
0.0635532
0.0635434
0.0635337
0.0635238
0.063514
0.063504
0.0634941
0.0634841
0.063474
0.0634639
0.0634538
0.0634436
0.0634334
0.0634232
0.0634128
0.0634024
0.0633922
0.0633813
0.0633707
0.0645512
0.0645478
0.0645453
0.0645433
0.0645408
0.0645381
0.0645356
0.064533
0.0645302
0.0645274
0.0645246
0.0645217
0.0645188
0.0645158
0.0645128
0.0645098
0.0645067
0.0645036
0.0645004
0.0644972
0.0644939
0.0644906
0.0644872
0.0644838
0.0644804
0.0644769
0.0644734
0.0644698
0.0644662
0.0644625
0.0644589
0.0644551
0.0644514
0.0644476
0.0644437
0.0644398
0.0644359
0.064432
0.0644279
0.0644239
0.0644198
0.0644157
0.0644115
0.0644073
0.064403
0.0643987
0.0643943
0.0643899
0.0643854
0.0643809
0.0643764
0.0643718
0.0643671
0.0643624
0.0643577
0.0643529
0.0643481
0.0643432
0.0643382
0.0643333
0.0643282
0.0643232
0.064318
0.0643129
0.0643076
0.0643024
0.0642971
0.0642917
0.0642863
0.0642808
0.0642753
0.0642698
0.0642642
0.0642585
0.0642528
0.0642471
0.0642413
0.0642355
0.0642296
0.0642237
0.0642177
0.0642117
0.0642056
0.0641995
0.0641933
0.0641871
0.0641808
0.0641745
0.0641681
0.0641617
0.0641553
0.0641488
0.0641422
0.0641357
0.064129
0.0641223
0.0641156
0.0641088
0.064102
0.0640951
0.0640882
0.0640812
0.0640742
0.0640671
0.06406
0.0640529
0.0640456
0.0640384
0.0640311
0.0640237
0.0640164
0.0640089
0.0640014
0.0639939
0.0639863
0.0639787
0.063971
0.0639633
0.0639555
0.0639477
0.0639399
0.063932
0.063924
0.063916
0.063908
0.0638999
0.0638917
0.0638836
0.0638753
0.063867
0.0638587
0.0638504
0.0638419
0.0638335
0.063825
0.0638164
0.0638078
0.0637992
0.0637905
0.0637818
0.063773
0.0637641
0.0637553
0.0637464
0.0637374
0.0637284
0.0637193
0.0637102
0.0637011
0.0636919
0.0636827
0.0636734
0.0636641
0.0636547
0.0636453
0.0636358
0.0636263
0.0636167
0.0636071
0.0635975
0.0635878
0.0635781
0.0635683
0.0635585
0.0635486
0.0635387
0.0635288
0.0635188
0.0635087
0.0634986
0.0634885
0.0634783
0.0634681
0.0634578
0.0634476
0.0634371
0.0634267
0.0634165
0.0634055
0.0633949
0.0645531
0.0645503
0.0645483
0.0645458
0.0645431
0.0645406
0.064538
0.0645352
0.0645324
0.0645296
0.0645267
0.0645238
0.0645208
0.0645178
0.0645147
0.0645116
0.0645085
0.0645053
0.0645021
0.0644988
0.0644955
0.0644921
0.0644887
0.0644852
0.0644817
0.0644782
0.0644746
0.064471
0.0644674
0.0644637
0.06446
0.0644562
0.0644524
0.0644485
0.0644446
0.0644407
0.0644367
0.0644327
0.0644287
0.0644246
0.0644204
0.0644162
0.064412
0.0644077
0.0644034
0.064399
0.0643946
0.0643901
0.0643856
0.064381
0.0643764
0.0643718
0.0643671
0.0643623
0.0643575
0.0643527
0.0643478
0.0643429
0.0643379
0.0643328
0.0643277
0.0643226
0.0643174
0.0643122
0.0643069
0.0643016
0.0642963
0.0642908
0.0642854
0.0642799
0.0642743
0.0642687
0.064263
0.0642573
0.0642516
0.0642458
0.06424
0.0642341
0.0642281
0.0642221
0.0642161
0.06421
0.0642039
0.0641977
0.0641915
0.0641852
0.0641789
0.0641726
0.0641661
0.0641597
0.0641532
0.0641466
0.06414
0.0641334
0.0641267
0.0641199
0.0641132
0.0641063
0.0640994
0.0640925
0.0640855
0.0640785
0.0640714
0.0640643
0.0640571
0.0640499
0.0640427
0.0640354
0.064028
0.0640206
0.0640132
0.0640057
0.0639981
0.0639905
0.0639829
0.0639752
0.0639675
0.0639597
0.0639519
0.0639441
0.0639361
0.0639282
0.0639202
0.0639121
0.063904
0.0638959
0.0638877
0.0638795
0.0638712
0.0638628
0.0638545
0.063846
0.0638376
0.0638291
0.0638205
0.0638119
0.0638033
0.0637946
0.0637858
0.063777
0.0637682
0.0637593
0.0637504
0.0637414
0.0637324
0.0637233
0.0637142
0.0637051
0.0636959
0.0636866
0.0636774
0.063668
0.0636586
0.0636492
0.0636398
0.0636302
0.0636207
0.0636111
0.0636014
0.0635917
0.063582
0.0635722
0.0635624
0.0635525
0.0635426
0.0635326
0.0635226
0.0635126
0.0635025
0.0634923
0.0634821
0.0634719
0.0634616
0.0634514
0.0634409
0.0634305
0.0634202
0.0634093
0.0633987
0.0645546
0.0645511
0.0645485
0.0645464
0.0645438
0.0645413
0.0645386
0.0645358
0.0645331
0.0645303
0.0645274
0.0645245
0.0645215
0.0645185
0.0645154
0.0645123
0.0645092
0.064506
0.0645028
0.0644995
0.0644962
0.0644928
0.0644894
0.0644859
0.0644824
0.0644789
0.0644753
0.0644717
0.0644681
0.0644644
0.0644606
0.0644569
0.0644531
0.0644492
0.0644453
0.0644414
0.0644374
0.0644334
0.0644293
0.0644252
0.0644211
0.0644169
0.0644127
0.0644084
0.064404
0.0643997
0.0643953
0.0643908
0.0643863
0.0643817
0.0643771
0.0643724
0.0643677
0.064363
0.0643582
0.0643533
0.0643484
0.0643435
0.0643385
0.0643335
0.0643284
0.0643233
0.0643181
0.0643129
0.0643076
0.0643023
0.0642969
0.0642915
0.064286
0.0642805
0.0642749
0.0642693
0.0642637
0.064258
0.0642522
0.0642464
0.0642406
0.0642347
0.0642288
0.0642228
0.0642167
0.0642107
0.0642045
0.0641984
0.0641921
0.0641859
0.0641795
0.0641732
0.0641668
0.0641603
0.0641538
0.0641472
0.0641406
0.064134
0.0641273
0.0641206
0.0641138
0.0641069
0.0641
0.0640931
0.0640861
0.0640791
0.064072
0.0640649
0.0640577
0.0640505
0.0640433
0.064036
0.0640286
0.0640212
0.0640138
0.0640063
0.0639987
0.0639911
0.0639835
0.0639758
0.0639681
0.0639603
0.0639525
0.0639446
0.0639367
0.0639288
0.0639208
0.0639127
0.0639046
0.0638965
0.0638883
0.06388
0.0638718
0.0638634
0.063855
0.0638466
0.0638382
0.0638296
0.0638211
0.0638125
0.0638038
0.0637951
0.0637864
0.0637776
0.0637688
0.0637599
0.063751
0.063742
0.063733
0.0637239
0.0637148
0.0637056
0.0636964
0.0636872
0.0636779
0.0636686
0.0636592
0.0636498
0.0636403
0.0636308
0.0636212
0.0636116
0.063602
0.0635923
0.0635825
0.0635728
0.0635629
0.0635531
0.0635431
0.0635332
0.0635232
0.0635131
0.063503
0.0634929
0.0634827
0.0634725
0.0634621
0.0634519
0.0634415
0.063431
0.0634208
0.0634098
0.0633992
0.0645518
0.0645486
0.0645459
0.0645438
0.0645415
0.0645388
0.0645359
0.0645332
0.0645304
0.0645275
0.0645246
0.0645216
0.0645186
0.0645155
0.0645124
0.0645093
0.0645061
0.0645029
0.0644996
0.0644963
0.0644929
0.0644895
0.064486
0.0644826
0.064479
0.0644754
0.0644718
0.0644682
0.0644645
0.0644607
0.064457
0.0644532
0.0644493
0.0644454
0.0644415
0.0644375
0.0644335
0.0644294
0.0644253
0.0644212
0.064417
0.0644128
0.0644085
0.0644041
0.0643998
0.0643953
0.0643909
0.0643864
0.0643818
0.0643772
0.0643725
0.0643678
0.0643631
0.0643583
0.0643534
0.0643485
0.0643436
0.0643386
0.0643336
0.0643285
0.0643234
0.0643182
0.064313
0.0643077
0.0643024
0.064297
0.0642916
0.0642861
0.0642806
0.064275
0.0642694
0.0642638
0.0642581
0.0642523
0.0642465
0.0642407
0.0642348
0.0642288
0.0642229
0.0642168
0.0642107
0.0642046
0.0641984
0.0641922
0.0641859
0.0641796
0.0641733
0.0641668
0.0641604
0.0641539
0.0641473
0.0641407
0.0641341
0.0641274
0.0641206
0.0641138
0.064107
0.0641001
0.0640932
0.0640862
0.0640792
0.0640721
0.064065
0.0640578
0.0640506
0.0640434
0.064036
0.0640287
0.0640213
0.0640138
0.0640064
0.0639988
0.0639912
0.0639836
0.0639759
0.0639682
0.0639604
0.0639526
0.0639447
0.0639368
0.0639288
0.0639208
0.0639128
0.0639047
0.0638965
0.0638884
0.0638801
0.0638718
0.0638635
0.0638551
0.0638467
0.0638382
0.0638297
0.0638212
0.0638126
0.0638039
0.0637952
0.0637865
0.0637777
0.0637688
0.06376
0.063751
0.0637421
0.063733
0.063724
0.0637149
0.0637057
0.0636965
0.0636873
0.063678
0.0636687
0.0636593
0.0636498
0.0636404
0.0636309
0.0636213
0.0636117
0.063602
0.0635924
0.0635826
0.0635728
0.063563
0.0635531
0.0635432
0.0635332
0.0635232
0.0635132
0.0635031
0.0634929
0.0634827
0.0634725
0.0634622
0.063452
0.0634415
0.0634311
0.0634208
0.0634099
0.0633992
0.0645492
0.0645461
0.0645435
0.0645413
0.0645386
0.0645359
0.0645332
0.0645304
0.0645275
0.0645246
0.0645216
0.0645186
0.0645156
0.0645125
0.0645093
0.0645061
0.0645029
0.0644996
0.0644963
0.0644929
0.0644895
0.0644861
0.0644826
0.064479
0.0644755
0.0644719
0.0644682
0.0644645
0.0644608
0.064457
0.0644532
0.0644493
0.0644454
0.0644415
0.0644375
0.0644335
0.0644295
0.0644254
0.0644212
0.064417
0.0644128
0.0644085
0.0644042
0.0643998
0.0643954
0.0643909
0.0643864
0.0643818
0.0643772
0.0643726
0.0643678
0.0643631
0.0643583
0.0643535
0.0643486
0.0643436
0.0643386
0.0643336
0.0643285
0.0643234
0.0643182
0.064313
0.0643077
0.0643024
0.064297
0.0642916
0.0642861
0.0642806
0.064275
0.0642694
0.0642638
0.0642581
0.0642523
0.0642465
0.0642407
0.0642348
0.0642289
0.0642229
0.0642168
0.0642108
0.0642046
0.0641985
0.0641922
0.064186
0.0641796
0.0641733
0.0641669
0.0641604
0.0641539
0.0641473
0.0641407
0.0641341
0.0641274
0.0641206
0.0641139
0.064107
0.0641001
0.0640932
0.0640862
0.0640792
0.0640721
0.064065
0.0640578
0.0640506
0.0640434
0.0640361
0.0640287
0.0640213
0.0640139
0.0640064
0.0639988
0.0639912
0.0639836
0.0639759
0.0639682
0.0639604
0.0639526
0.0639447
0.0639368
0.0639289
0.0639209
0.0639128
0.0639047
0.0638966
0.0638884
0.0638801
0.0638718
0.0638635
0.0638551
0.0638467
0.0638382
0.0638297
0.0638212
0.0638126
0.0638039
0.0637952
0.0637865
0.0637777
0.0637689
0.06376
0.063751
0.0637421
0.0637331
0.063724
0.0637149
0.0637057
0.0636965
0.0636873
0.063678
0.0636687
0.0636593
0.0636499
0.0636404
0.0636309
0.0636213
0.0636117
0.0636021
0.0635924
0.0635826
0.0635728
0.063563
0.0635531
0.0635432
0.0635332
0.0635232
0.0635132
0.0635031
0.063493
0.0634827
0.0634726
0.0634622
0.063452
0.0634415
0.0634311
0.0634208
0.0634099
0.0633992
0.0645463
0.0645435
0.0645413
0.0645386
0.0645359
0.0645332
0.0645304
0.0645276
0.0645247
0.0645217
0.0645186
0.0645156
0.0645125
0.0645093
0.0645062
0.0645029
0.0644996
0.0644963
0.0644929
0.0644895
0.0644861
0.0644826
0.0644791
0.0644755
0.0644719
0.0644682
0.0644645
0.0644608
0.064457
0.0644532
0.0644494
0.0644455
0.0644415
0.0644376
0.0644335
0.0644295
0.0644254
0.0644212
0.064417
0.0644128
0.0644085
0.0644042
0.0643998
0.0643954
0.0643909
0.0643864
0.0643818
0.0643772
0.0643726
0.0643679
0.0643631
0.0643583
0.0643535
0.0643486
0.0643436
0.0643386
0.0643336
0.0643285
0.0643234
0.0643182
0.064313
0.0643077
0.0643024
0.064297
0.0642916
0.0642861
0.0642806
0.0642751
0.0642694
0.0642638
0.0642581
0.0642523
0.0642465
0.0642407
0.0642348
0.0642289
0.0642229
0.0642168
0.0642108
0.0642046
0.0641985
0.0641922
0.064186
0.0641796
0.0641733
0.0641669
0.0641604
0.0641539
0.0641473
0.0641407
0.0641341
0.0641274
0.0641207
0.0641139
0.064107
0.0641001
0.0640932
0.0640862
0.0640792
0.0640721
0.064065
0.0640578
0.0640506
0.0640434
0.0640361
0.0640287
0.0640213
0.0640139
0.0640064
0.0639988
0.0639912
0.0639836
0.0639759
0.0639682
0.0639604
0.0639526
0.0639447
0.0639368
0.0639289
0.0639209
0.0639128
0.0639047
0.0638966
0.0638884
0.0638801
0.0638718
0.0638635
0.0638551
0.0638467
0.0638383
0.0638297
0.0638212
0.0638126
0.0638039
0.0637952
0.0637865
0.0637777
0.0637689
0.06376
0.063751
0.0637421
0.0637331
0.063724
0.0637149
0.0637057
0.0636965
0.0636873
0.063678
0.0636687
0.0636593
0.0636499
0.0636404
0.0636309
0.0636213
0.0636117
0.0636021
0.0635924
0.0635826
0.0635728
0.063563
0.0635531
0.0635432
0.0635333
0.0635232
0.0635132
0.0635031
0.063493
0.0634827
0.0634726
0.0634622
0.063452
0.0634415
0.0634311
0.0634208
0.0634099
0.0633992
0.0645471
0.0645435
0.0645408
0.0645385
0.0645359
0.0645332
0.0645303
0.0645275
0.0645247
0.0645217
0.0645186
0.0645156
0.0645125
0.0645094
0.0645062
0.0645029
0.0644997
0.0644963
0.064493
0.0644896
0.0644861
0.0644826
0.0644791
0.0644755
0.0644719
0.0644682
0.0644645
0.0644608
0.064457
0.0644532
0.0644494
0.0644455
0.0644415
0.0644376
0.0644336
0.0644295
0.0644254
0.0644212
0.064417
0.0644128
0.0644085
0.0644042
0.0643998
0.0643954
0.0643909
0.0643864
0.0643818
0.0643772
0.0643726
0.0643679
0.0643631
0.0643583
0.0643535
0.0643486
0.0643436
0.0643386
0.0643336
0.0643285
0.0643234
0.0643182
0.064313
0.0643077
0.0643024
0.064297
0.0642916
0.0642861
0.0642806
0.0642751
0.0642695
0.0642638
0.0642581
0.0642523
0.0642465
0.0642407
0.0642348
0.0642289
0.0642229
0.0642169
0.0642108
0.0642046
0.0641985
0.0641922
0.064186
0.0641797
0.0641733
0.0641669
0.0641604
0.0641539
0.0641474
0.0641407
0.0641341
0.0641274
0.0641207
0.0641139
0.064107
0.0641001
0.0640932
0.0640862
0.0640792
0.0640721
0.064065
0.0640579
0.0640506
0.0640434
0.0640361
0.0640287
0.0640213
0.0640139
0.0640064
0.0639988
0.0639912
0.0639836
0.0639759
0.0639682
0.0639604
0.0639526
0.0639447
0.0639368
0.0639289
0.0639209
0.0639128
0.0639047
0.0638966
0.0638884
0.0638801
0.0638719
0.0638635
0.0638551
0.0638467
0.0638383
0.0638297
0.0638212
0.0638126
0.0638039
0.0637952
0.0637865
0.0637777
0.0637689
0.06376
0.0637511
0.0637421
0.0637331
0.063724
0.0637149
0.0637057
0.0636965
0.0636873
0.063678
0.0636687
0.0636593
0.0636499
0.0636404
0.0636309
0.0636213
0.0636117
0.0636021
0.0635924
0.0635826
0.0635728
0.063563
0.0635531
0.0635432
0.0635333
0.0635232
0.0635132
0.0635031
0.063493
0.0634827
0.0634726
0.0634622
0.063452
0.0634415
0.0634311
0.0634208
0.0634099
0.0633992
0.0645442
0.0645408
0.0645379
0.0645358
0.0645333
0.0645304
0.0645276
0.0645247
0.0645217
0.0645187
0.0645156
0.0645125
0.0645094
0.0645062
0.0645029
0.0644997
0.0644963
0.064493
0.0644896
0.0644861
0.0644826
0.0644791
0.0644755
0.0644719
0.0644683
0.0644646
0.0644608
0.064457
0.0644532
0.0644494
0.0644455
0.0644416
0.0644376
0.0644336
0.0644295
0.0644254
0.0644213
0.0644171
0.0644128
0.0644085
0.0644042
0.0643998
0.0643954
0.0643909
0.0643864
0.0643819
0.0643772
0.0643726
0.0643679
0.0643631
0.0643583
0.0643535
0.0643486
0.0643436
0.0643386
0.0643336
0.0643285
0.0643234
0.0643182
0.064313
0.0643077
0.0643024
0.064297
0.0642916
0.0642861
0.0642806
0.0642751
0.0642695
0.0642638
0.0642581
0.0642524
0.0642466
0.0642407
0.0642348
0.0642289
0.0642229
0.0642169
0.0642108
0.0642046
0.0641985
0.0641922
0.064186
0.0641797
0.0641733
0.0641669
0.0641604
0.0641539
0.0641474
0.0641408
0.0641341
0.0641274
0.0641207
0.0641139
0.064107
0.0641002
0.0640932
0.0640862
0.0640792
0.0640721
0.064065
0.0640579
0.0640506
0.0640434
0.0640361
0.0640287
0.0640213
0.0640139
0.0640064
0.0639988
0.0639913
0.0639836
0.0639759
0.0639682
0.0639604
0.0639526
0.0639447
0.0639368
0.0639289
0.0639209
0.0639128
0.0639047
0.0638966
0.0638884
0.0638801
0.0638719
0.0638635
0.0638552
0.0638467
0.0638383
0.0638297
0.0638212
0.0638126
0.0638039
0.0637952
0.0637865
0.0637777
0.0637689
0.06376
0.0637511
0.0637421
0.0637331
0.063724
0.0637149
0.0637057
0.0636965
0.0636873
0.063678
0.0636687
0.0636593
0.0636499
0.0636404
0.0636309
0.0636213
0.0636117
0.0636021
0.0635924
0.0635826
0.0635728
0.063563
0.0635531
0.0635432
0.0635333
0.0635232
0.0635132
0.0635031
0.063493
0.0634827
0.0634726
0.0634622
0.063452
0.0634415
0.0634311
0.0634208
0.0634099
0.0633992
0.0645414
0.0645381
0.0645356
0.064533
0.0645302
0.0645276
0.0645247
0.0645217
0.0645187
0.0645156
0.0645125
0.0645094
0.0645062
0.064503
0.0644997
0.0644964
0.064493
0.0644896
0.0644861
0.0644826
0.0644791
0.0644755
0.0644719
0.0644683
0.0644646
0.0644608
0.0644571
0.0644532
0.0644494
0.0644455
0.0644416
0.0644376
0.0644336
0.0644295
0.0644254
0.0644213
0.0644171
0.0644128
0.0644086
0.0644042
0.0643998
0.0643954
0.0643909
0.0643864
0.0643819
0.0643773
0.0643726
0.0643679
0.0643631
0.0643583
0.0643535
0.0643486
0.0643436
0.0643387
0.0643336
0.0643285
0.0643234
0.0643182
0.064313
0.0643077
0.0643024
0.064297
0.0642916
0.0642861
0.0642806
0.0642751
0.0642695
0.0642638
0.0642581
0.0642524
0.0642466
0.0642407
0.0642348
0.0642289
0.0642229
0.0642169
0.0642108
0.0642047
0.0641985
0.0641923
0.064186
0.0641797
0.0641733
0.0641669
0.0641604
0.0641539
0.0641474
0.0641408
0.0641341
0.0641274
0.0641207
0.0641139
0.064107
0.0641002
0.0640932
0.0640862
0.0640792
0.0640721
0.064065
0.0640579
0.0640506
0.0640434
0.0640361
0.0640287
0.0640213
0.0640139
0.0640064
0.0639988
0.0639913
0.0639836
0.0639759
0.0639682
0.0639604
0.0639526
0.0639448
0.0639368
0.0639289
0.0639209
0.0639128
0.0639047
0.0638966
0.0638884
0.0638801
0.0638719
0.0638635
0.0638552
0.0638467
0.0638383
0.0638298
0.0638212
0.0638126
0.0638039
0.0637952
0.0637865
0.0637777
0.0637689
0.06376
0.0637511
0.0637421
0.0637331
0.063724
0.0637149
0.0637057
0.0636965
0.0636873
0.063678
0.0636687
0.0636593
0.0636499
0.0636404
0.0636309
0.0636213
0.0636117
0.0636021
0.0635924
0.0635826
0.0635729
0.063563
0.0635531
0.0635432
0.0635333
0.0635233
0.0635132
0.0635031
0.063493
0.0634828
0.0634726
0.0634622
0.063452
0.0634415
0.0634311
0.0634208
0.0634099
0.0633992
0.0645383
0.0645356
0.064533
0.0645303
0.0645276
0.0645247
0.0645216
0.0645187
0.0645156
0.0645126
0.0645094
0.0645062
0.064503
0.0644997
0.0644964
0.064493
0.0644896
0.0644862
0.0644827
0.0644791
0.0644755
0.0644719
0.0644683
0.0644646
0.0644608
0.0644571
0.0644533
0.0644494
0.0644455
0.0644416
0.0644376
0.0644336
0.0644295
0.0644254
0.0644213
0.0644171
0.0644129
0.0644086
0.0644042
0.0643999
0.0643954
0.064391
0.0643864
0.0643819
0.0643773
0.0643726
0.0643679
0.0643631
0.0643583
0.0643535
0.0643486
0.0643437
0.0643387
0.0643336
0.0643285
0.0643234
0.0643182
0.064313
0.0643077
0.0643024
0.064297
0.0642916
0.0642862
0.0642806
0.0642751
0.0642695
0.0642638
0.0642581
0.0642524
0.0642466
0.0642407
0.0642348
0.0642289
0.0642229
0.0642169
0.0642108
0.0642047
0.0641985
0.0641923
0.064186
0.0641797
0.0641733
0.0641669
0.0641604
0.0641539
0.0641474
0.0641408
0.0641341
0.0641274
0.0641207
0.0641139
0.064107
0.0641002
0.0640932
0.0640863
0.0640792
0.0640722
0.064065
0.0640579
0.0640507
0.0640434
0.0640361
0.0640287
0.0640213
0.0640139
0.0640064
0.0639988
0.0639913
0.0639836
0.0639759
0.0639682
0.0639604
0.0639526
0.0639448
0.0639368
0.0639289
0.0639209
0.0639128
0.0639047
0.0638966
0.0638884
0.0638802
0.0638719
0.0638635
0.0638552
0.0638467
0.0638383
0.0638298
0.0638212
0.0638126
0.0638039
0.0637952
0.0637865
0.0637777
0.0637689
0.06376
0.0637511
0.0637421
0.0637331
0.063724
0.0637149
0.0637058
0.0636966
0.0636873
0.063678
0.0636687
0.0636593
0.0636499
0.0636404
0.0636309
0.0636213
0.0636117
0.0636021
0.0635924
0.0635826
0.0635729
0.063563
0.0635531
0.0635432
0.0635333
0.0635233
0.0635132
0.0635031
0.063493
0.0634828
0.0634726
0.0634622
0.063452
0.0634415
0.0634311
0.0634208
0.0634099
0.0633992
0.0645391
0.0645356
0.0645323
0.06453
0.0645277
0.0645247
0.0645217
0.0645187
0.0645157
0.0645126
0.0645094
0.0645062
0.064503
0.0644997
0.0644964
0.064493
0.0644896
0.0644862
0.0644827
0.0644791
0.0644756
0.0644719
0.0644683
0.0644646
0.0644609
0.0644571
0.0644533
0.0644494
0.0644455
0.0644416
0.0644376
0.0644336
0.0644296
0.0644254
0.0644213
0.0644171
0.0644129
0.0644086
0.0644042
0.0643999
0.0643954
0.064391
0.0643865
0.0643819
0.0643773
0.0643726
0.0643679
0.0643632
0.0643584
0.0643535
0.0643486
0.0643437
0.0643387
0.0643336
0.0643285
0.0643234
0.0643182
0.064313
0.0643077
0.0643024
0.064297
0.0642916
0.0642862
0.0642806
0.0642751
0.0642695
0.0642638
0.0642581
0.0642524
0.0642466
0.0642407
0.0642348
0.0642289
0.0642229
0.0642169
0.0642108
0.0642047
0.0641985