/*--------------------------------*- C++ -*----------------------------------*\
| =========                 |                                                 |
| \\      /  F ield         | OpenFOAM: The Open Source CFD Toolbox           |
|  \\    /   O peration     | Version:  2512                                  |
|   \\  /    A nd           | Website:  www.openfoam.com                      |
|    \\/     M anipulation  |                                                 |
\*---------------------------------------------------------------------------*/
FoamFile
{
    version     2.0;
    format      ascii;
    arch        "LSB;label=32;scalar=64";
    class       volScalarField;
    location    "0.1";
    object      Uy;
}
// * * * * * * * * * * * * * * * * * * * * * * * * * * * * * * * * * * * * * //

dimensions      [0 1 -1 0 0 0 0];

internalField   nonuniform List<scalar> 
8333
(
-3.94476e-06
-4.75366e-06
-5.54164e-06
-4.87303e-06
-4.47247e-06
-4.48187e-06
-4.5414e-06
-4.52882e-06
-4.50265e-06
-4.49975e-06
-4.48811e-06
-4.46791e-06
-4.45558e-06
-4.44498e-06
-4.43167e-06
-4.41899e-06
-4.40759e-06
-4.39686e-06
-4.38654e-06
-4.37619e-06
-4.36576e-06
-4.35549e-06
-4.34542e-06
-4.33546e-06
-4.32557e-06
-4.31573e-06
-4.30595e-06
-4.29622e-06
-4.28654e-06
-4.27692e-06
-4.26735e-06
-4.25786e-06
-4.24845e-06
-4.23914e-06
-4.22991e-06
-4.22079e-06
-4.2118e-06
-4.20297e-06
-4.19434e-06
-4.1859e-06
-4.17768e-06
-4.1697e-06
-4.16196e-06
-4.1545e-06
-4.14731e-06
-4.14038e-06
-4.1337e-06
-4.12727e-06
-4.12108e-06
-4.11512e-06
-4.10938e-06
-4.10386e-06
-4.09854e-06
-4.09342e-06
-4.08849e-06
-4.08375e-06
-4.07919e-06
-4.07482e-06
-4.07065e-06
-4.06668e-06
-4.0629e-06
-4.05928e-06
-4.05582e-06
-4.05246e-06
-4.0492e-06
-4.04599e-06
-4.04283e-06
-4.03969e-06
-4.03656e-06
-4.03341e-06
-4.03021e-06
-4.02695e-06
-4.0236e-06
-4.02014e-06
-4.01657e-06
-4.01287e-06
-4.00901e-06
-4.005e-06
-4.00084e-06
-3.99654e-06
-3.99209e-06
-3.9875e-06
-3.98277e-06
-3.9779e-06
-3.9729e-06
-3.96777e-06
-3.96252e-06
-3.95715e-06
-3.95167e-06
-3.94608e-06
-3.94037e-06
-3.93456e-06
-3.92865e-06
-3.92264e-06
-3.91653e-06
-3.91032e-06
-3.90402e-06
-3.89761e-06
-3.89111e-06
-3.88451e-06
-3.87783e-06
-3.87107e-06
-3.86422e-06
-3.85729e-06
-3.85028e-06
-3.8432e-06
-3.83604e-06
-3.82881e-06
-3.82151e-06
-3.81414e-06
-3.80669e-06
-3.79917e-06
-3.79157e-06
-3.78391e-06
-3.77618e-06
-3.76839e-06
-3.76054e-06
-3.75262e-06
-3.74465e-06
-3.73662e-06
-3.72853e-06
-3.72039e-06
-3.71219e-06
-3.70393e-06
-3.69562e-06
-3.68726e-06
-3.67884e-06
-3.67036e-06
-3.66184e-06
-3.65328e-06
-3.64467e-06
-3.63602e-06
-3.62733e-06
-3.61861e-06
-3.60985e-06
-3.60105e-06
-3.59222e-06
-3.58336e-06
-3.57446e-06
-3.56552e-06
-3.55655e-06
-3.54754e-06
-3.5385e-06
-3.52943e-06
-3.52033e-06
-3.5112e-06
-3.50204e-06
-3.49286e-06
-3.48366e-06
-3.47443e-06
-3.46518e-06
-3.4559e-06
-3.44659e-06
-3.43727e-06
-3.42792e-06
-3.41853e-06
-3.40913e-06
-3.3997e-06
-3.39026e-06
-3.38079e-06
-3.3713e-06
-3.36179e-06
-3.35227e-06
-3.34272e-06
-3.33317e-06
-3.3236e-06
-3.314e-06
-3.30439e-06
-3.29477e-06
-3.28512e-06
-3.27548e-06
-3.26577e-06
-3.25621e-06
-3.24624e-06
-3.23717e-06
-3.2263e-06
-3.2184e-06
-3.20688e-06
-3.19558e-06
-3.19573e-06
-3.15447e-06
-3.21511e-06
-3.15167e-06
-3.42558e-06
-1.11131e-05
-1.15196e-05
-1.26626e-05
-1.38335e-05
-1.34552e-05
-1.27836e-05
-1.25617e-05
-1.24135e-05
-1.23194e-05
-1.23292e-05
-1.23121e-05
-1.22613e-05
-1.22389e-05
-1.22257e-05
-1.22024e-05
-1.21785e-05
-1.21572e-05
-1.2138e-05
-1.21209e-05
-1.21039e-05
-1.20865e-05
-1.20692e-05
-1.20523e-05
-1.20357e-05
-1.20193e-05
-1.20028e-05
-1.19863e-05
-1.19697e-05
-1.19531e-05
-1.19364e-05
-1.19197e-05
-1.19028e-05
-1.18858e-05
-1.18688e-05
-1.18518e-05
-1.18348e-05
-1.18179e-05
-1.18011e-05
-1.17846e-05
-1.17684e-05
-1.17526e-05
-1.17372e-05
-1.17222e-05
-1.17078e-05
-1.16938e-05
-1.16805e-05
-1.16676e-05
-1.16553e-05
-1.16434e-05
-1.1632e-05
-1.1621e-05
-1.16104e-05
-1.16002e-05
-1.15903e-05
-1.15808e-05
-1.15716e-05
-1.15627e-05
-1.1554e-05
-1.15457e-05
-1.15376e-05
-1.15297e-05
-1.15221e-05
-1.15146e-05
-1.15074e-05
-1.15002e-05
-1.14932e-05
-1.14862e-05
-1.14793e-05
-1.14724e-05
-1.14655e-05
-1.14586e-05
-1.14516e-05
-1.14446e-05
-1.14375e-05
-1.14303e-05
-1.1423e-05
-1.14155e-05
-1.14079e-05
-1.14002e-05
-1.13923e-05
-1.13843e-05
-1.13761e-05
-1.13678e-05
-1.13594e-05
-1.13509e-05
-1.13422e-05
-1.13334e-05
-1.13245e-05
-1.13155e-05
-1.13063e-05
-1.1297e-05
-1.12876e-05
-1.12781e-05
-1.12685e-05
-1.12588e-05
-1.12491e-05
-1.12393e-05
-1.12294e-05
-1.12195e-05
-1.12095e-05
-1.11994e-05
-1.11893e-05
-1.11792e-05
-1.1169e-05
-1.11588e-05
-1.11485e-05
-1.11382e-05
-1.11279e-05
-1.11175e-05
-1.11071e-05
-1.10967e-05
-1.10862e-05
-1.10757e-05
-1.10652e-05
-1.10547e-05
-1.10441e-05
-1.10336e-05
-1.1023e-05
-1.10124e-05
-1.10017e-05
-1.09911e-05
-1.09804e-05
-1.09698e-05
-1.09591e-05
-1.09484e-05
-1.09377e-05
-1.0927e-05
-1.09162e-05
-1.09055e-05
-1.08948e-05
-1.0884e-05
-1.08733e-05
-1.08625e-05
-1.08517e-05
-1.08409e-05
-1.08301e-05
-1.08193e-05
-1.08085e-05
-1.07977e-05
-1.07869e-05
-1.07761e-05
-1.07652e-05
-1.07544e-05
-1.07436e-05
-1.07328e-05
-1.07219e-05
-1.07111e-05
-1.07003e-05
-1.06894e-05
-1.06786e-05
-1.06677e-05
-1.06569e-05
-1.0646e-05
-1.06352e-05
-1.06244e-05
-1.06136e-05
-1.06027e-05
-1.05919e-05
-1.05811e-05
-1.05703e-05
-1.05595e-05
-1.05487e-05
-1.0538e-05
-1.05272e-05
-1.05164e-05
-1.05057e-05
-1.04949e-05
-1.04842e-05
-1.04735e-05
-1.04628e-05
-1.04522e-05
-1.04415e-05
-1.04312e-05
-1.04201e-05
-1.0411e-05
-1.03979e-05
-1.03919e-05
-1.0377e-05
-1.03663e-05
-1.03774e-05
-1.02996e-05
-1.04331e-05
-1.02692e-05
-1.05758e-05
-1.45877e-05
-1.39861e-05
-1.46183e-05
-1.4996e-05
-1.45986e-05
-1.45076e-05
-1.43286e-05
-1.41579e-05
-1.41718e-05
-1.41559e-05
-1.40872e-05
-1.40667e-05
-1.40602e-05
-1.40383e-05
-1.40166e-05
-1.3998e-05
-1.39821e-05
-1.39699e-05
-1.39583e-05
-1.39459e-05
-1.39335e-05
-1.39218e-05
-1.39106e-05
-1.38997e-05
-1.38889e-05
-1.38779e-05
-1.38671e-05
-1.38562e-05
-1.38452e-05
-1.38343e-05
-1.38232e-05
-1.3812e-05
-1.38008e-05
-1.37894e-05
-1.37779e-05
-1.37663e-05
-1.37546e-05
-1.3743e-05
-1.37313e-05
-1.37198e-05
-1.37084e-05
-1.36972e-05
-1.36864e-05
-1.3676e-05
-1.36659e-05
-1.36563e-05
-1.36471e-05
-1.36382e-05
-1.36298e-05
-1.36216e-05
-1.36138e-05
-1.36063e-05
-1.35991e-05
-1.3592e-05
-1.35852e-05
-1.35785e-05
-1.35719e-05
-1.35655e-05
-1.35593e-05
-1.35531e-05
-1.3547e-05
-1.35409e-05
-1.3535e-05
-1.35291e-05
-1.35232e-05
-1.35174e-05
-1.35117e-05
-1.35059e-05
-1.35002e-05
-1.34946e-05
-1.34889e-05
-1.34833e-05
-1.34777e-05
-1.34721e-05
-1.34665e-05
-1.34609e-05
-1.34553e-05
-1.34498e-05
-1.34442e-05
-1.34387e-05
-1.34331e-05
-1.34276e-05
-1.3422e-05
-1.34165e-05
-1.34109e-05
-1.34054e-05
-1.33998e-05
-1.33942e-05
-1.33887e-05
-1.33831e-05
-1.33775e-05
-1.33719e-05
-1.33663e-05
-1.33607e-05
-1.33552e-05
-1.33496e-05
-1.33441e-05
-1.33386e-05
-1.33331e-05
-1.33277e-05
-1.33222e-05
-1.33169e-05
-1.33115e-05
-1.33062e-05
-1.33009e-05
-1.32957e-05
-1.32904e-05
-1.32853e-05
-1.32801e-05
-1.3275e-05
-1.32699e-05
-1.32649e-05
-1.32598e-05
-1.32548e-05
-1.32499e-05
-1.3245e-05
-1.32401e-05
-1.32352e-05
-1.32304e-05
-1.32256e-05
-1.32209e-05
-1.32162e-05
-1.32115e-05
-1.32068e-05
-1.32022e-05
-1.31977e-05
-1.31931e-05
-1.31886e-05
-1.31841e-05
-1.31797e-05
-1.31753e-05
-1.3171e-05
-1.31667e-05
-1.31624e-05
-1.31582e-05
-1.3154e-05
-1.31499e-05
-1.31458e-05
-1.31417e-05
-1.31377e-05
-1.31337e-05
-1.31297e-05
-1.31258e-05
-1.31219e-05
-1.31181e-05
-1.31142e-05
-1.31105e-05
-1.31067e-05
-1.31031e-05
-1.30994e-05
-1.30958e-05
-1.30922e-05
-1.30887e-05
-1.30852e-05
-1.30817e-05
-1.30783e-05
-1.30748e-05
-1.30715e-05
-1.30681e-05
-1.30648e-05
-1.30616e-05
-1.30583e-05
-1.30551e-05
-1.3052e-05
-1.30489e-05
-1.30458e-05
-1.30428e-05
-1.30398e-05
-1.30369e-05
-1.30341e-05
-1.30312e-05
-1.30287e-05
-1.30255e-05
-1.30244e-05
-1.30194e-05
-1.30221e-05
-1.30138e-05
-1.30168e-05
-1.30263e-05
-1.29813e-05
-1.30876e-05
-1.29717e-05
-1.30834e-05
-1.52344e-05
-1.44743e-05
-1.45383e-05
-1.45152e-05
-1.43636e-05
-1.40436e-05
-1.3882e-05
-1.39385e-05
-1.39224e-05
-1.3841e-05
-1.3826e-05
-1.38235e-05
-1.38007e-05
-1.37796e-05
-1.37603e-05
-1.37433e-05
-1.3731e-05
-1.37194e-05
-1.37069e-05
-1.36945e-05
-1.36828e-05
-1.36721e-05
-1.36618e-05
-1.36518e-05
-1.36417e-05
-1.36318e-05
-1.36223e-05
-1.36129e-05
-1.36036e-05
-1.35943e-05
-1.35851e-05
-1.35759e-05
-1.35668e-05
-1.35577e-05
-1.35484e-05
-1.35392e-05
-1.35299e-05
-1.35205e-05
-1.35112e-05
-1.35021e-05
-1.3493e-05
-1.34841e-05
-1.34755e-05
-1.34672e-05
-1.34592e-05
-1.34516e-05
-1.34444e-05
-1.34375e-05
-1.34309e-05
-1.34247e-05
-1.34187e-05
-1.34131e-05
-1.34077e-05
-1.34026e-05
-1.33976e-05
-1.33929e-05
-1.33883e-05
-1.33839e-05
-1.33796e-05
-1.33754e-05
-1.33714e-05
-1.33675e-05
-1.33636e-05
-1.33598e-05
-1.33561e-05
-1.33524e-05
-1.33488e-05
-1.33452e-05
-1.33417e-05
-1.33382e-05
-1.33347e-05
-1.33312e-05
-1.33278e-05
-1.33244e-05
-1.3321e-05
-1.33176e-05
-1.33143e-05
-1.33109e-05
-1.33076e-05
-1.33042e-05
-1.33009e-05
-1.32976e-05
-1.32944e-05
-1.32911e-05
-1.32879e-05
-1.32846e-05
-1.32814e-05
-1.32782e-05
-1.3275e-05
-1.32718e-05
-1.32686e-05
-1.32653e-05
-1.32621e-05
-1.32589e-05
-1.32557e-05
-1.32526e-05
-1.32494e-05
-1.32462e-05
-1.3243e-05
-1.32399e-05
-1.32367e-05
-1.32335e-05
-1.32303e-05
-1.32272e-05
-1.3224e-05
-1.32208e-05
-1.32176e-05
-1.32144e-05
-1.32112e-05
-1.3208e-05
-1.32049e-05
-1.32017e-05
-1.31985e-05
-1.31954e-05
-1.31922e-05
-1.3189e-05
-1.31858e-05
-1.31826e-05
-1.31794e-05
-1.31762e-05
-1.3173e-05
-1.31698e-05
-1.31666e-05
-1.31634e-05
-1.31603e-05
-1.31571e-05
-1.31539e-05
-1.31507e-05
-1.31476e-05
-1.31444e-05
-1.31413e-05
-1.31382e-05
-1.3135e-05
-1.31319e-05
-1.31288e-05
-1.31258e-05
-1.31227e-05
-1.31196e-05
-1.31166e-05
-1.31136e-05
-1.31106e-05
-1.31076e-05
-1.31046e-05
-1.31016e-05
-1.30987e-05
-1.30957e-05
-1.30928e-05
-1.30898e-05
-1.30869e-05
-1.3084e-05
-1.30811e-05
-1.30783e-05
-1.30754e-05
-1.30726e-05
-1.30697e-05
-1.30669e-05
-1.30641e-05
-1.30613e-05
-1.30585e-05
-1.30557e-05
-1.3053e-05
-1.30502e-05
-1.30474e-05
-1.30447e-05
-1.3042e-05
-1.30393e-05
-1.30367e-05
-1.30341e-05
-1.30315e-05
-1.3029e-05
-1.30268e-05
-1.3024e-05
-1.30229e-05
-1.30189e-05
-1.30205e-05
-1.30157e-05
-1.30143e-05
-1.30313e-05
-1.29815e-05
-1.3093e-05
-1.29862e-05
-1.30773e-05
-1.54751e-05
-1.38473e-05
-1.46584e-05
-1.49009e-05
-1.44131e-05
-1.41239e-05
-1.41623e-05
-1.4128e-05
-1.40332e-05
-1.40235e-05
-1.40193e-05
-1.39927e-05
-1.39721e-05
-1.39516e-05
-1.39335e-05
-1.39218e-05
-1.39107e-05
-1.38985e-05
-1.38865e-05
-1.38753e-05
-1.38652e-05
-1.38558e-05
-1.38466e-05
-1.38377e-05
-1.38292e-05
-1.38211e-05
-1.38133e-05
-1.38059e-05
-1.37987e-05
-1.37917e-05
-1.37849e-05
-1.37782e-05
-1.37716e-05
-1.37648e-05
-1.37579e-05
-1.37508e-05
-1.37435e-05
-1.37359e-05
-1.37282e-05
-1.37202e-05
-1.37123e-05
-1.37044e-05
-1.36965e-05
-1.36888e-05
-1.36814e-05
-1.36741e-05
-1.36671e-05
-1.36603e-05
-1.36538e-05
-1.36475e-05
-1.36415e-05
-1.36357e-05
-1.36301e-05
-1.36247e-05
-1.36195e-05
-1.36144e-05
-1.36095e-05
-1.36048e-05
-1.36001e-05
-1.35956e-05
-1.35912e-05
-1.35869e-05
-1.35826e-05
-1.35785e-05
-1.35744e-05
-1.35704e-05
-1.35664e-05
-1.35625e-05
-1.35587e-05
-1.35549e-05
-1.35512e-05
-1.35475e-05
-1.35438e-05
-1.35402e-05
-1.35366e-05
-1.3533e-05
-1.35295e-05
-1.3526e-05
-1.35225e-05
-1.35191e-05
-1.35157e-05
-1.35123e-05
-1.35089e-05
-1.35055e-05
-1.35021e-05
-1.34988e-05
-1.34955e-05
-1.34922e-05
-1.3489e-05
-1.34857e-05
-1.34825e-05
-1.34793e-05
-1.34761e-05
-1.34729e-05
-1.34697e-05
-1.34665e-05
-1.34634e-05
-1.34603e-05
-1.34571e-05
-1.3454e-05
-1.34509e-05
-1.34479e-05
-1.34448e-05
-1.34417e-05
-1.34387e-05
-1.34357e-05
-1.34327e-05
-1.34297e-05
-1.34267e-05
-1.34237e-05
-1.34207e-05
-1.34178e-05
-1.34148e-05
-1.34119e-05
-1.3409e-05
-1.3406e-05
-1.34031e-05
-1.34003e-05
-1.33974e-05
-1.33945e-05
-1.33917e-05
-1.33888e-05
-1.3386e-05
-1.33832e-05
-1.33804e-05
-1.33775e-05
-1.33747e-05
-1.33719e-05
-1.33691e-05
-1.33663e-05
-1.33636e-05
-1.33608e-05
-1.3358e-05
-1.33553e-05
-1.33525e-05
-1.33498e-05
-1.33471e-05
-1.33443e-05
-1.33416e-05
-1.33388e-05
-1.33361e-05
-1.33334e-05
-1.33306e-05
-1.33279e-05
-1.33252e-05
-1.33224e-05
-1.33197e-05
-1.3317e-05
-1.33143e-05
-1.33116e-05
-1.33088e-05
-1.33061e-05
-1.33034e-05
-1.33007e-05
-1.32979e-05
-1.32952e-05
-1.32924e-05
-1.32897e-05
-1.3287e-05
-1.32842e-05
-1.32815e-05
-1.32788e-05
-1.3276e-05
-1.32733e-05
-1.32706e-05
-1.32679e-05
-1.32653e-05
-1.32627e-05
-1.326e-05
-1.32577e-05
-1.3255e-05
-1.32536e-05
-1.32504e-05
-1.32507e-05
-1.32482e-05
-1.32452e-05
-1.32625e-05
-1.32231e-05
-1.33108e-05
-1.32306e-05
-1.33135e-05
-1.53267e-05
-1.32851e-05
-1.31129e-05
-1.38393e-05
-1.37878e-05
-1.36215e-05
-1.36951e-05
-1.36354e-05
-1.35278e-05
-1.35335e-05
-1.35325e-05
-1.35074e-05
-1.34916e-05
-1.34715e-05
-1.34537e-05
-1.34435e-05
-1.34332e-05
-1.34212e-05
-1.34097e-05
-1.33991e-05
-1.33897e-05
-1.33813e-05
-1.33732e-05
-1.33653e-05
-1.3358e-05
-1.33513e-05
-1.33452e-05
-1.33395e-05
-1.33342e-05
-1.33292e-05
-1.33246e-05
-1.33202e-05
-1.33159e-05
-1.33114e-05
-1.33068e-05
-1.33019e-05
-1.32966e-05
-1.32909e-05
-1.32848e-05
-1.32783e-05
-1.32715e-05
-1.32644e-05
-1.32573e-05
-1.325e-05
-1.32428e-05
-1.32357e-05
-1.32286e-05
-1.32217e-05
-1.32149e-05
-1.32083e-05
-1.32019e-05
-1.31956e-05
-1.31896e-05
-1.31837e-05
-1.3178e-05
-1.31724e-05
-1.3167e-05
-1.31616e-05
-1.31564e-05
-1.31513e-05
-1.31464e-05
-1.31415e-05
-1.31367e-05
-1.31319e-05
-1.31273e-05
-1.31226e-05
-1.31181e-05
-1.31136e-05
-1.31091e-05
-1.31047e-05
-1.31004e-05
-1.30961e-05
-1.30918e-05
-1.30875e-05
-1.30833e-05
-1.30791e-05
-1.30749e-05
-1.30708e-05
-1.30667e-05
-1.30626e-05
-1.30585e-05
-1.30544e-05
-1.30504e-05
-1.30463e-05
-1.30423e-05
-1.30383e-05
-1.30343e-05
-1.30303e-05
-1.30263e-05
-1.30224e-05
-1.30184e-05
-1.30144e-05
-1.30104e-05
-1.30065e-05
-1.30025e-05
-1.29986e-05
-1.29947e-05
-1.29908e-05
-1.29868e-05
-1.29829e-05
-1.2979e-05
-1.29751e-05
-1.29712e-05
-1.29672e-05
-1.29633e-05
-1.29594e-05
-1.29555e-05
-1.29516e-05
-1.29477e-05
-1.29438e-05
-1.29399e-05
-1.2936e-05
-1.29321e-05
-1.29282e-05
-1.29243e-05
-1.29204e-05
-1.29165e-05
-1.29126e-05
-1.29087e-05
-1.29048e-05
-1.29009e-05
-1.2897e-05
-1.28931e-05
-1.28892e-05
-1.28853e-05
-1.28814e-05
-1.28775e-05
-1.28736e-05
-1.28698e-05
-1.28659e-05
-1.2862e-05
-1.28581e-05
-1.28542e-05
-1.28503e-05
-1.28464e-05
-1.28425e-05
-1.28387e-05
-1.28348e-05
-1.28309e-05
-1.28271e-05
-1.28232e-05
-1.28194e-05
-1.28155e-05
-1.28116e-05
-1.28077e-05
-1.28039e-05
-1.28e-05
-1.27961e-05
-1.27922e-05
-1.27884e-05
-1.27845e-05
-1.27806e-05
-1.27767e-05
-1.27728e-05
-1.27689e-05
-1.2765e-05
-1.27611e-05
-1.27572e-05
-1.27533e-05
-1.27493e-05
-1.27454e-05
-1.27414e-05
-1.27375e-05
-1.27335e-05
-1.27296e-05
-1.27257e-05
-1.27218e-05
-1.2718e-05
-1.27141e-05
-1.27106e-05
-1.27068e-05
-1.27039e-05
-1.27002e-05
-1.26983e-05
-1.26968e-05
-1.26903e-05
-1.27085e-05
-1.26718e-05
-1.27447e-05
-1.26884e-05
-1.27455e-05
-1.52172e-05
-1.34881e-05
-1.36545e-05
-1.36564e-05
-1.34407e-05
-1.35203e-05
-1.34601e-05
-1.3355e-05
-1.33633e-05
-1.33448e-05
-1.33124e-05
-1.32982e-05
-1.32748e-05
-1.32557e-05
-1.3247e-05
-1.32369e-05
-1.32252e-05
-1.3214e-05
-1.32038e-05
-1.31951e-05
-1.31874e-05
-1.31802e-05
-1.31734e-05
-1.31674e-05
-1.3162e-05
-1.31574e-05
-1.31534e-05
-1.31501e-05
-1.31472e-05
-1.31448e-05
-1.31426e-05
-1.31407e-05
-1.31385e-05
-1.31362e-05
-1.31335e-05
-1.31302e-05
-1.31263e-05
-1.31217e-05
-1.31164e-05
-1.31107e-05
-1.31045e-05
-1.30979e-05
-1.30911e-05
-1.30842e-05
-1.30771e-05
-1.30701e-05
-1.30632e-05
-1.30563e-05
-1.30496e-05
-1.30429e-05
-1.30364e-05
-1.30301e-05
-1.30239e-05
-1.30178e-05
-1.30119e-05
-1.30061e-05
-1.30004e-05
-1.29949e-05
-1.29894e-05
-1.2984e-05
-1.29788e-05
-1.29736e-05
-1.29685e-05
-1.29635e-05
-1.29585e-05
-1.29536e-05
-1.29488e-05
-1.2944e-05
-1.29392e-05
-1.29345e-05
-1.29299e-05
-1.29253e-05
-1.29207e-05
-1.29161e-05
-1.29116e-05
-1.29071e-05
-1.29027e-05
-1.28982e-05
-1.28938e-05
-1.28894e-05
-1.2885e-05
-1.28807e-05
-1.28763e-05
-1.2872e-05
-1.28677e-05
-1.28634e-05
-1.28591e-05
-1.28548e-05
-1.28506e-05
-1.28463e-05
-1.28421e-05
-1.28379e-05
-1.28337e-05
-1.28295e-05
-1.28253e-05
-1.28211e-05
-1.28169e-05
-1.28127e-05
-1.28085e-05
-1.28044e-05
-1.28002e-05
-1.27961e-05
-1.27919e-05
-1.27878e-05
-1.27837e-05
-1.27795e-05
-1.27754e-05
-1.27713e-05
-1.27672e-05
-1.27631e-05
-1.2759e-05
-1.27549e-05
-1.27508e-05
-1.27467e-05
-1.27426e-05
-1.27385e-05
-1.27344e-05
-1.27303e-05
-1.27263e-05
-1.27222e-05
-1.27181e-05
-1.27141e-05
-1.271e-05
-1.27059e-05
-1.27018e-05
-1.26978e-05
-1.26937e-05
-1.26897e-05
-1.26857e-05
-1.26816e-05
-1.26776e-05
-1.26736e-05
-1.26696e-05
-1.26656e-05
-1.26616e-05
-1.26576e-05
-1.26536e-05
-1.26496e-05
-1.26456e-05
-1.26416e-05
-1.26376e-05
-1.26337e-05
-1.26297e-05
-1.26257e-05
-1.26218e-05
-1.26178e-05
-1.26138e-05
-1.26099e-05
-1.26059e-05
-1.26019e-05
-1.2598e-05
-1.2594e-05
-1.259e-05
-1.2586e-05
-1.2582e-05
-1.2578e-05
-1.2574e-05
-1.257e-05
-1.2566e-05
-1.2562e-05
-1.2558e-05
-1.2554e-05
-1.255e-05
-1.2546e-05
-1.2542e-05
-1.2538e-05
-1.25342e-05
-1.25303e-05
-1.25266e-05
-1.25229e-05
-1.25199e-05
-1.25165e-05
-1.2514e-05
-1.25135e-05
-1.25069e-05
-1.25232e-05
-1.24951e-05
-1.2551e-05
-1.25143e-05
-1.25581e-05
-1.39953e-05
-1.24914e-05
-1.3392e-05
-1.33018e-05
-1.30928e-05
-1.29284e-05
-1.28813e-05
-1.29531e-05
-1.2941e-05
-1.29143e-05
-1.29082e-05
-1.28837e-05
-1.28662e-05
-1.28606e-05
-1.28515e-05
-1.28402e-05
-1.28299e-05
-1.28204e-05
-1.28128e-05
-1.28066e-05
-1.28007e-05
-1.27953e-05
-1.27908e-05
-1.27872e-05
-1.27847e-05
-1.27828e-05
-1.27817e-05
-1.27812e-05
-1.27814e-05
-1.27821e-05
-1.27829e-05
-1.27834e-05
-1.27839e-05
-1.27838e-05
-1.27828e-05
-1.2781e-05
-1.27782e-05
-1.27745e-05
-1.27701e-05
-1.27649e-05
-1.27593e-05
-1.27532e-05
-1.27468e-05
-1.27401e-05
-1.27334e-05
-1.27265e-05
-1.27197e-05
-1.27129e-05
-1.27061e-05
-1.26994e-05
-1.26929e-05
-1.26864e-05
-1.26801e-05
-1.26738e-05
-1.26677e-05
-1.26617e-05
-1.26557e-05
-1.265e-05
-1.26442e-05
-1.26386e-05
-1.2633e-05
-1.26275e-05
-1.2622e-05
-1.26166e-05
-1.26113e-05
-1.2606e-05
-1.26008e-05
-1.25956e-05
-1.25905e-05
-1.25854e-05
-1.25803e-05
-1.25753e-05
-1.25703e-05
-1.25653e-05
-1.25604e-05
-1.25555e-05
-1.25506e-05
-1.25458e-05
-1.25409e-05
-1.25361e-05
-1.25313e-05
-1.25266e-05
-1.25218e-05
-1.2517e-05
-1.25123e-05
-1.25076e-05
-1.25029e-05
-1.24982e-05
-1.24935e-05
-1.24889e-05
-1.24842e-05
-1.24796e-05
-1.24749e-05
-1.24703e-05
-1.24657e-05
-1.24611e-05
-1.24564e-05
-1.24518e-05
-1.24473e-05
-1.24427e-05
-1.24381e-05
-1.24335e-05
-1.24289e-05
-1.24244e-05
-1.24198e-05
-1.24153e-05
-1.24108e-05
-1.24062e-05
-1.24017e-05
-1.23972e-05
-1.23926e-05
-1.23881e-05
-1.23836e-05
-1.23791e-05
-1.23746e-05
-1.237e-05
-1.23655e-05
-1.2361e-05
-1.23565e-05
-1.2352e-05
-1.23476e-05
-1.23431e-05
-1.23386e-05
-1.23341e-05
-1.23296e-05
-1.23251e-05
-1.23206e-05
-1.23162e-05
-1.23117e-05
-1.23073e-05
-1.23028e-05
-1.22984e-05
-1.22939e-05
-1.22895e-05
-1.22851e-05
-1.22807e-05
-1.22763e-05
-1.22719e-05
-1.22674e-05
-1.2263e-05
-1.22586e-05
-1.22542e-05
-1.22498e-05
-1.22454e-05
-1.2241e-05
-1.22365e-05
-1.22321e-05
-1.22277e-05
-1.22233e-05
-1.22188e-05
-1.22144e-05
-1.22099e-05
-1.22055e-05
-1.2201e-05
-1.21965e-05
-1.2192e-05
-1.21875e-05
-1.2183e-05
-1.21785e-05
-1.21739e-05
-1.21694e-05
-1.21648e-05
-1.21603e-05
-1.21557e-05
-1.21512e-05
-1.21467e-05
-1.21423e-05
-1.2138e-05
-1.21338e-05
-1.213e-05
-1.21264e-05
-1.2123e-05
-1.21224e-05
-1.21156e-05
-1.21293e-05
-1.21073e-05
-1.21494e-05
-1.21278e-05
-1.21567e-05
-1.44036e-05
-1.22757e-05
-1.21099e-05
-1.30739e-05
-1.324e-05
-1.28726e-05
-1.26972e-05
-1.27262e-05
-1.26816e-05
-1.26568e-05
-1.26541e-05
-1.26202e-05
-1.26016e-05
-1.25978e-05
-1.2588e-05
-1.25772e-05
-1.25673e-05
-1.25581e-05
-1.25515e-05
-1.2546e-05
-1.25405e-05
-1.25358e-05
-1.25321e-05
-1.25296e-05
-1.25284e-05
-1.25281e-05
-1.25287e-05
-1.25301e-05
-1.25321e-05
-1.25347e-05
-1.25378e-05
-1.25405e-05
-1.25429e-05
-1.25447e-05
-1.25457e-05
-1.25457e-05
-1.25445e-05
-1.25422e-05
-1.25391e-05
-1.25348e-05
-1.25298e-05
-1.25242e-05
-1.25181e-05
-1.25116e-05
-1.25049e-05
-1.24979e-05
-1.24908e-05
-1.24838e-05
-1.24766e-05
-1.24696e-05
-1.24626e-05
-1.24557e-05
-1.2449e-05
-1.24423e-05
-1.24358e-05
-1.24293e-05
-1.24229e-05
-1.24167e-05
-1.24105e-05
-1.24044e-05
-1.23984e-05
-1.23925e-05
-1.23866e-05
-1.23808e-05
-1.2375e-05
-1.23693e-05
-1.23637e-05
-1.23581e-05
-1.23525e-05
-1.2347e-05
-1.23415e-05
-1.23361e-05
-1.23307e-05
-1.23254e-05
-1.232e-05
-1.23148e-05
-1.23094e-05
-1.23042e-05
-1.22989e-05
-1.22937e-05
-1.22885e-05
-1.22833e-05
-1.22782e-05
-1.2273e-05
-1.22679e-05
-1.22628e-05
-1.22577e-05
-1.22526e-05
-1.22475e-05
-1.22425e-05
-1.22374e-05
-1.22324e-05
-1.22274e-05
-1.22224e-05
-1.22173e-05
-1.22123e-05
-1.22074e-05
-1.22024e-05
-1.21974e-05
-1.21924e-05
-1.21875e-05
-1.21825e-05
-1.21776e-05
-1.21726e-05
-1.21676e-05
-1.21627e-05
-1.21578e-05
-1.21529e-05
-1.2148e-05
-1.21431e-05
-1.21382e-05
-1.21333e-05
-1.21284e-05
-1.21235e-05
-1.21186e-05
-1.21137e-05
-1.21088e-05
-1.21039e-05
-1.2099e-05
-1.20941e-05
-1.20892e-05
-1.20844e-05
-1.20795e-05
-1.20747e-05
-1.20698e-05
-1.2065e-05
-1.20602e-05
-1.20553e-05
-1.20505e-05
-1.20456e-05
-1.20408e-05
-1.2036e-05
-1.20312e-05
-1.20264e-05
-1.20215e-05
-1.20167e-05
-1.20119e-05
-1.20071e-05
-1.20024e-05
-1.19976e-05
-1.19928e-05
-1.1988e-05
-1.19832e-05
-1.19784e-05
-1.19736e-05
-1.19688e-05
-1.1964e-05
-1.19592e-05
-1.19544e-05
-1.19496e-05
-1.19447e-05
-1.19399e-05
-1.1935e-05
-1.19301e-05
-1.19253e-05
-1.19204e-05
-1.19155e-05
-1.19105e-05
-1.19056e-05
-1.19006e-05
-1.18956e-05
-1.18906e-05
-1.18857e-05
-1.18807e-05
-1.18757e-05
-1.18708e-05
-1.18659e-05
-1.18612e-05
-1.18566e-05
-1.18523e-05
-1.18484e-05
-1.18445e-05
-1.18435e-05
-1.18371e-05
-1.18477e-05
-1.18312e-05
-1.18623e-05
-1.18502e-05
-1.18709e-05
-1.39906e-05
-1.19983e-05
-1.18286e-05
-1.24772e-05
-1.23931e-05
-1.23347e-05
-1.23854e-05
-1.23012e-05
-1.22839e-05
-1.22949e-05
-1.22604e-05
-1.22482e-05
-1.22494e-05
-1.22391e-05
-1.22284e-05
-1.22189e-05
-1.22097e-05
-1.22043e-05
-1.22003e-05
-1.21959e-05
-1.21928e-05
-1.21907e-05
-1.219e-05
-1.2191e-05
-1.21932e-05
-1.21961e-05
-1.22005e-05
-1.22057e-05
-1.2211e-05
-1.22167e-05
-1.22225e-05
-1.22278e-05
-1.22321e-05
-1.22354e-05
-1.22375e-05
-1.2238e-05
-1.22369e-05
-1.22348e-05
-1.22315e-05
-1.22271e-05
-1.22219e-05
-1.22161e-05
-1.22097e-05
-1.2203e-05
-1.21961e-05
-1.21891e-05
-1.21821e-05
-1.21749e-05
-1.21678e-05
-1.21607e-05
-1.21536e-05
-1.21466e-05
-1.21396e-05
-1.21328e-05
-1.2126e-05
-1.21193e-05
-1.21127e-05
-1.21062e-05
-1.20998e-05
-1.20934e-05
-1.20871e-05
-1.20808e-05
-1.20746e-05
-1.20685e-05
-1.20624e-05
-1.20564e-05
-1.20504e-05
-1.20445e-05
-1.20386e-05
-1.20327e-05
-1.20269e-05
-1.20211e-05
-1.20153e-05
-1.20095e-05
-1.20038e-05
-1.19982e-05
-1.19926e-05
-1.19869e-05
-1.19813e-05
-1.19757e-05
-1.19702e-05
-1.19646e-05
-1.19591e-05
-1.19535e-05
-1.1948e-05
-1.19425e-05
-1.1937e-05
-1.19315e-05
-1.19261e-05
-1.19206e-05
-1.19151e-05
-1.19097e-05
-1.19043e-05
-1.18989e-05
-1.18935e-05
-1.18881e-05
-1.18827e-05
-1.18773e-05
-1.1872e-05
-1.18666e-05
-1.18612e-05
-1.18559e-05
-1.18506e-05
-1.18453e-05
-1.18399e-05
-1.18346e-05
-1.18292e-05
-1.18239e-05
-1.18186e-05
-1.18133e-05
-1.1808e-05
-1.18027e-05
-1.17974e-05
-1.17921e-05
-1.17868e-05
-1.17816e-05
-1.17763e-05
-1.1771e-05
-1.17658e-05
-1.17605e-05
-1.17552e-05
-1.17499e-05
-1.17446e-05
-1.17394e-05
-1.17341e-05
-1.17289e-05
-1.17236e-05
-1.17184e-05
-1.17132e-05
-1.17079e-05
-1.17027e-05
-1.16975e-05
-1.16923e-05
-1.16872e-05
-1.1682e-05
-1.16768e-05
-1.16715e-05
-1.16663e-05
-1.16612e-05
-1.1656e-05
-1.16508e-05
-1.16456e-05
-1.16404e-05
-1.16352e-05
-1.163e-05
-1.16247e-05
-1.16195e-05
-1.16143e-05
-1.16091e-05
-1.16039e-05
-1.15986e-05
-1.15933e-05
-1.1588e-05
-1.15827e-05
-1.15774e-05
-1.1572e-05
-1.15666e-05
-1.15612e-05
-1.15557e-05
-1.15503e-05
-1.15448e-05
-1.15393e-05
-1.15339e-05
-1.15284e-05
-1.1523e-05
-1.15176e-05
-1.15124e-05
-1.15073e-05
-1.15025e-05
-1.14982e-05
-1.14937e-05
-1.14921e-05
-1.14859e-05
-1.14937e-05
-1.14813e-05
-1.15036e-05
-1.14977e-05
-1.15122e-05
-1.34491e-05
-1.18923e-05
-1.21685e-05
-1.2118e-05
-1.20521e-05
-1.21437e-05
-1.20602e-05
-1.20475e-05
-1.20297e-05
-1.19662e-05
-1.19539e-05
-1.19575e-05
-1.19465e-05
-1.19373e-05
-1.19281e-05
-1.19194e-05
-1.19147e-05
-1.19119e-05
-1.19091e-05
-1.1907e-05
-1.1906e-05
-1.19068e-05
-1.19092e-05
-1.19131e-05
-1.19175e-05
-1.19233e-05
-1.19297e-05
-1.19373e-05
-1.19446e-05
-1.19522e-05
-1.19599e-05
-1.19662e-05
-1.19715e-05
-1.19752e-05
-1.1977e-05
-1.19773e-05
-1.19761e-05
-1.19735e-05
-1.19699e-05
-1.19653e-05
-1.19601e-05
-1.19541e-05
-1.19476e-05
-1.19407e-05
-1.19335e-05
-1.19263e-05
-1.19189e-05
-1.19116e-05
-1.19041e-05
-1.18968e-05
-1.18895e-05
-1.18822e-05
-1.1875e-05
-1.18678e-05
-1.18607e-05
-1.18538e-05
-1.18469e-05
-1.18401e-05
-1.18333e-05
-1.18266e-05
-1.18199e-05
-1.18132e-05
-1.18067e-05
-1.18002e-05
-1.17937e-05
-1.17873e-05
-1.1781e-05
-1.17746e-05
-1.17683e-05
-1.17621e-05
-1.17559e-05
-1.17497e-05
-1.17436e-05
-1.17374e-05
-1.17313e-05
-1.17252e-05
-1.17191e-05
-1.17131e-05
-1.17071e-05
-1.17012e-05
-1.16952e-05
-1.16893e-05
-1.16834e-05
-1.16775e-05
-1.16716e-05
-1.16657e-05
-1.16598e-05
-1.16539e-05
-1.16481e-05
-1.16422e-05
-1.16363e-05
-1.16305e-05
-1.16247e-05
-1.1619e-05
-1.16132e-05
-1.16074e-05
-1.16017e-05
-1.15959e-05
-1.15902e-05
-1.15844e-05
-1.15787e-05
-1.1573e-05
-1.15672e-05
-1.15615e-05
-1.15558e-05
-1.15501e-05
-1.15444e-05
-1.15387e-05
-1.1533e-05
-1.15274e-05
-1.15217e-05
-1.1516e-05
-1.15104e-05
-1.15047e-05
-1.1499e-05
-1.14933e-05
-1.14876e-05
-1.1482e-05
-1.14763e-05
-1.14707e-05
-1.1465e-05
-1.14594e-05
-1.14537e-05
-1.14481e-05
-1.14425e-05
-1.14369e-05
-1.14313e-05
-1.14257e-05
-1.14201e-05
-1.14145e-05
-1.14089e-05
-1.14033e-05
-1.13977e-05
-1.13921e-05
-1.13866e-05
-1.1381e-05
-1.13755e-05
-1.137e-05
-1.13644e-05
-1.13589e-05
-1.13533e-05
-1.13478e-05
-1.13422e-05
-1.13366e-05
-1.1331e-05
-1.13253e-05
-1.13197e-05
-1.13141e-05
-1.13084e-05
-1.13028e-05
-1.12972e-05
-1.12915e-05
-1.12858e-05
-1.128e-05
-1.12743e-05
-1.12685e-05
-1.12627e-05
-1.12568e-05
-1.12509e-05
-1.12449e-05
-1.12391e-05
-1.12332e-05
-1.12273e-05
-1.12214e-05
-1.12155e-05
-1.12098e-05
-1.12043e-05
-1.11989e-05
-1.11941e-05
-1.11892e-05
-1.11869e-05
-1.1181e-05
-1.11862e-05
-1.11768e-05
-1.11924e-05
-1.11902e-05
-1.12001e-05
-1.26185e-05
-1.12151e-05
-1.19763e-05
-1.19824e-05
-1.17226e-05
-1.15527e-05
-1.16542e-05
-1.16907e-05
-1.16315e-05
-1.1631e-05
-1.16345e-05
-1.16202e-05
-1.16124e-05
-1.16025e-05
-1.1594e-05
-1.15908e-05
-1.15887e-05
-1.15872e-05
-1.15862e-05
-1.15865e-05
-1.1589e-05
-1.15926e-05
-1.15978e-05
-1.16048e-05
-1.16127e-05
-1.16217e-05
-1.16317e-05
-1.16426e-05
-1.16537e-05
-1.16641e-05
-1.16733e-05
-1.16808e-05
-1.16864e-05
-1.169e-05
-1.16919e-05
-1.1692e-05
-1.16904e-05
-1.16878e-05
-1.16838e-05
-1.1679e-05
-1.16731e-05
-1.16668e-05
-1.166e-05
-1.16528e-05
-1.16453e-05
-1.16376e-05
-1.163e-05
-1.16223e-05
-1.16146e-05
-1.1607e-05
-1.15994e-05
-1.15919e-05
-1.15844e-05
-1.1577e-05
-1.15695e-05
-1.15622e-05
-1.1555e-05
-1.15478e-05
-1.15407e-05
-1.15336e-05
-1.15266e-05
-1.15196e-05
-1.15127e-05
-1.15059e-05
-1.1499e-05
-1.14923e-05
-1.14856e-05
-1.14789e-05
-1.14723e-05
-1.14657e-05
-1.14592e-05
-1.14527e-05
-1.14462e-05
-1.14398e-05
-1.14333e-05
-1.14268e-05
-1.14203e-05
-1.14138e-05
-1.14074e-05
-1.1401e-05
-1.13947e-05
-1.13883e-05
-1.1382e-05
-1.13757e-05
-1.13694e-05
-1.13632e-05
-1.1357e-05
-1.13508e-05
-1.13446e-05
-1.13384e-05
-1.13322e-05
-1.13259e-05
-1.13197e-05
-1.13134e-05
-1.13072e-05
-1.1301e-05
-1.12949e-05
-1.12887e-05
-1.12826e-05
-1.12765e-05
-1.12704e-05
-1.12643e-05
-1.12583e-05
-1.12522e-05
-1.12461e-05
-1.12401e-05
-1.12339e-05
-1.12278e-05
-1.12217e-05
-1.12155e-05
-1.12094e-05
-1.12034e-05
-1.11973e-05
-1.11913e-05
-1.11853e-05
-1.11792e-05
-1.11732e-05
-1.11672e-05
-1.11611e-05
-1.11551e-05
-1.11491e-05
-1.1143e-05
-1.11369e-05
-1.11309e-05
-1.11248e-05
-1.11188e-05
-1.11128e-05
-1.11068e-05
-1.11009e-05
-1.10949e-05
-1.1089e-05
-1.10831e-05
-1.10771e-05
-1.10712e-05
-1.10652e-05
-1.10592e-05
-1.10532e-05
-1.10472e-05
-1.10412e-05
-1.10352e-05
-1.10293e-05
-1.10233e-05
-1.10174e-05
-1.10114e-05
-1.10054e-05
-1.09995e-05
-1.09935e-05
-1.09874e-05
-1.09813e-05
-1.09752e-05
-1.0969e-05
-1.09628e-05
-1.09566e-05
-1.09504e-05
-1.09442e-05
-1.0938e-05
-1.09318e-05
-1.09254e-05
-1.0919e-05
-1.09126e-05
-1.09061e-05
-1.08997e-05
-1.08933e-05
-1.08869e-05
-1.08806e-05
-1.08746e-05
-1.08687e-05
-1.08634e-05
-1.08579e-05
-1.08548e-05
-1.08489e-05
-1.08518e-05
-1.08443e-05
-1.08548e-05
-1.08542e-05
-1.08609e-05
-1.2932e-05
-1.09056e-05
-1.06399e-05
-1.17728e-05
-1.18341e-05
-1.14502e-05
-1.14224e-05
-1.13802e-05
-1.12941e-05
-1.13124e-05
-1.1323e-05
-1.13098e-05
-1.13053e-05
-1.12951e-05
-1.12865e-05
-1.12853e-05
-1.12844e-05
-1.12832e-05
-1.12832e-05
-1.12845e-05
-1.12881e-05
-1.12937e-05
-1.13007e-05
-1.13097e-05
-1.13198e-05
-1.13318e-05
-1.13442e-05
-1.13574e-05
-1.13709e-05
-1.1383e-05
-1.1394e-05
-1.14032e-05
-1.14102e-05
-1.14152e-05
-1.14185e-05
-1.14195e-05
-1.14192e-05
-1.14167e-05
-1.1413e-05
-1.14078e-05
-1.14022e-05
-1.13957e-05
-1.1389e-05
-1.13815e-05
-1.13738e-05
-1.13661e-05
-1.13581e-05
-1.13503e-05
-1.13422e-05
-1.13342e-05
-1.13265e-05
-1.13184e-05
-1.13106e-05
-1.13029e-05
-1.12951e-05
-1.12875e-05
-1.12797e-05
-1.12722e-05
-1.12647e-05
-1.12573e-05
-1.125e-05
-1.12427e-05
-1.12355e-05
-1.12282e-05
-1.12211e-05
-1.12139e-05
-1.12068e-05
-1.11997e-05
-1.11926e-05
-1.11856e-05
-1.11786e-05
-1.11717e-05
-1.11648e-05
-1.11579e-05
-1.11511e-05
-1.11443e-05
-1.11374e-05
-1.11306e-05
-1.11239e-05
-1.11171e-05
-1.11103e-05
-1.11036e-05
-1.10968e-05
-1.10902e-05
-1.10835e-05
-1.10768e-05
-1.10701e-05
-1.10635e-05
-1.10569e-05
-1.10503e-05
-1.10437e-05
-1.10371e-05
-1.10305e-05