/*--------------------------------*- C++ -*----------------------------------*\
| =========                 |                                                 |
| \\      /  F ield         | OpenFOAM: The Open Source CFD Toolbox           |
|  \\    /   O peration     | Version:  2512                                  |
|   \\  /    A nd           | Website:  www.openfoam.com                      |
|    \\/     M anipulation  |                                                 |
\*---------------------------------------------------------------------------*/
FoamFile
{
    version     2.0;
    format      ascii;
    arch        "LSB;label=32;scalar=64";
    class       volScalarField;
    location    "0.1";
    object      Uz;
}
// * * * * * * * * * * * * * * * * * * * * * * * * * * * * * * * * * * * * * //

dimensions      [0 1 -1 0 0 0 0];

internalField   nonuniform List<scalar> 
8333
(
4.0942e-20
5.99826e-20
3.73829e-19
-2.37215e-20
3.98548e-20
6.11461e-20
3.69261e-19
-2.39552e-20
3.4112e-20
5.31096e-20
3.62956e-19
-3.3331e-20
3.37534e-20
2.793e-20
4.0518e-19
-1.55639e-19
1.81409e-19
-1.38981e-19
3.12481e-19
-2.72153e-20
3.67968e-19
-2.99955e-20
3.51395e-19
-4.17056e-20
3.36928e-19
-4.5591e-20
3.37912e-19
-3.90988e-20
3.31733e-19
-5.1984e-20
3.28658e-19
-6.37703e-20
3.2441e-19
-5.59655e-20
3.22384e-19
-5.51886e-20
3.34615e-19
-5.94209e-20
3.2208e-19
-5.87226e-20
3.24685e-19
-6.14848e-20
3.32318e-19
-6.24624e-20
3.17404e-19
-5.42351e-20
3.32335e-19
-5.1994e-20
3.30061e-19
-5.71995e-20
3.16647e-19
-6.51096e-20
3.29775e-19
-6.60088e-20
3.19241e-19
-6.293e-20
3.29321e-19
-5.2712e-20
3.34829e-19
-5.80585e-20
3.3089e-19
-6.20467e-20
3.25441e-19
-5.83606e-20
3.32042e-19
-5.16905e-20
3.22945e-19
-5.56166e-20
3.27311e-19
-6.01295e-20
3.23785e-19
-6.20989e-20
3.31655e-19
-6.4828e-20
3.15177e-19
-3.52036e-20
2.69509e-19
1.09083e-19
-4.89325e-22
4.28686e-19
-1.08124e-19
1.96869e-19
-1.65963e-19
2.73154e-19
-8.21444e-20
3.23764e-19
-6.20665e-20
3.23616e-19
-5.00988e-20
3.33484e-19
-5.545e-20
3.25212e-19
-6.42398e-20
3.25382e-19
-6.34347e-20
3.23342e-19
-5.82691e-20
3.29507e-19
-6.1387e-20
3.30014e-19
-6.17712e-20
3.2159e-19
-5.9414e-20
3.39387e-19
-6.07217e-20
3.22314e-19
-5.85608e-20
3.30213e-19
-5.22655e-20
3.2709e-19
-5.65879e-20
3.24326e-19
-5.42349e-20
3.25412e-19
-6.10569e-20
3.13428e-19
-6.21522e-20
3.28188e-19
-6.76675e-20
3.15511e-19
-5.37369e-20
3.2449e-19
-6.23479e-20
3.19597e-19
-6.22837e-20
3.18555e-19
-6.02478e-20
3.23988e-19
-6.50013e-20
3.20058e-19
-6.82493e-20
3.22905e-19
-6.48677e-20
3.26415e-19
-5.57006e-20
3.29882e-19
-5.57635e-20
3.22828e-19
-5.90494e-20
3.27333e-19
-5.78774e-20
3.2451e-19
-6.09581e-20
3.18186e-19
-5.36178e-20
3.24271e-19
-5.75051e-20
3.18338e-19
-6.45025e-20
3.22638e-19
-6.41053e-20
3.19152e-19
-6.03792e-20
3.26593e-19
-6.01775e-20
3.23092e-19
-6.16239e-20
3.22626e-19
-5.70222e-20
3.28481e-19
-5.5383e-20
3.27061e-19
-5.78005e-20
3.21842e-19
-6.03545e-20
3.28133e-19
-5.77375e-20
3.23424e-19
-5.61907e-20
3.25653e-19
-6.0068e-20
3.2653e-19
-5.13845e-20
3.37398e-19
-6.2019e-20
3.24582e-19
-4.68385e-20
3.37955e-19
-3.3119e-20
3.01689e-19
5.21285e-20
1.73452e-19
1.25643e-19
3.6004e-19
3.96017e-19
1.86091e-19
1.86647e-18
1.69206e-19
3.90411e-19
2.06014e-19
1.85376e-18
1.82955e-19
3.81102e-19
1.75914e-19
1.83395e-18
1.49512e-19
4.07103e-19
4.40564e-20
2.12586e-18
-4.41464e-19
1.16012e-18
-5.11623e-19
1.73872e-18
1.1422e-19
2.15386e-18
2.3807e-19
2.14855e-18
2.30325e-19
2.11206e-18
2.16929e-19
2.11988e-18
2.7322e-19
2.12338e-18
2.2026e-19
2.11244e-18
1.6765e-19
2.0842e-18
2.09097e-19
2.0938e-18
2.02063e-19
2.14565e-18
2.12228e-19
2.0882e-18
2.01766e-19
2.10921e-18
1.87844e-19
2.13594e-18
1.98278e-19
2.07469e-18
2.09793e-19
2.13837e-18
2.35104e-19
2.13738e-18
2.34055e-19
2.08069e-18
1.66468e-19
2.1255e-18
1.82227e-19
2.08307e-18
1.75635e-19
2.11856e-18
2.26076e-19
2.15489e-18
2.09649e-19
2.14216e-18
1.9907e-19
2.11418e-18
2.04086e-19
2.13147e-18
2.49527e-19
2.10339e-18
2.16205e-19
2.12017e-18
1.96351e-19
2.10843e-18
1.87325e-19
2.14441e-18
1.95999e-19
2.04091e-18
3.55429e-19
1.7322e-18
1.17484e-18
3.67324e-19
2.55424e-18
8.93878e-20
1.57195e-18
-3.23023e-19
1.81216e-18
5.89253e-20
2.08194e-18
1.85166e-19
2.08981e-18
2.35319e-19
2.14857e-18
2.26459e-19
2.11818e-18
1.84414e-19
2.11093e-18
1.87698e-19
2.10272e-18
2.07766e-19
2.13462e-18
1.96629e-19
2.13569e-18
2.05973e-19
2.10223e-18
1.89329e-19
2.17435e-18
2.1927e-19
2.10085e-18
2.0534e-19
2.12613e-18
2.35964e-19
2.12822e-18
2.18649e-19
2.10453e-18
2.30288e-19
2.11836e-18
2.08904e-19
2.06739e-18
1.80881e-19
2.12844e-18
1.72839e-19
2.06048e-18
2.32964e-19
2.12164e-18
1.97198e-19
2.08331e-18
1.91532e-19
2.08441e-18
2.01849e-19
2.10854e-18
1.92777e-19
2.08855e-18
1.62984e-19
2.10016e-18
1.76351e-19
2.11294e-18
2.26807e-19
2.12886e-18
2.28302e-19
2.10564e-18
2.01518e-19
2.11573e-18
2.15102e-19
2.11178e-18
2.03767e-19
2.07374e-18
2.26552e-19
2.10903e-18
2.14544e-19
2.08876e-18
1.77807e-19
2.09696e-18
1.83734e-19
2.0851e-18
1.95597e-19
2.11609e-18
2.06495e-19
2.10123e-18
1.91455e-19
2.08947e-18
2.00666e-19
2.11839e-18
2.18331e-19
2.11912e-18
2.17899e-19
2.0923e-18
1.84406e-19
2.11697e-18
2.16359e-19
2.09443e-18
2.1136e-19
2.10886e-18
1.84855e-19
2.09885e-18
2.23038e-19
2.15965e-18
1.8757e-19
2.0699e-18
2.208e-19
2.12826e-18
3.19345e-19
1.89556e-18
7.66035e-19
1.31207e-18
9.10824e-19
2.34914e-18
1.14854e-18
5.68766e-18
5.64847e-20
2.19519e-18
1.22344e-18
5.65812e-18
1.26097e-19
2.18291e-18
1.13384e-18
5.5881e-18
3.17466e-20
2.31573e-18
7.44286e-19
6.46457e-18
-1.65365e-18
4.62808e-18
-1.27625e-18
6.41495e-18
5.47093e-19
7.65119e-18
9.99995e-19
7.72759e-18
1.04262e-18
7.68163e-18
9.83817e-19
7.67728e-18
1.18253e-18
7.72544e-18
1.04908e-18
7.67557e-18
8.62344e-19
7.61212e-18
9.96885e-19
7.69315e-18
9.89893e-19
7.77815e-18
1.05772e-18
7.60046e-18
9.76593e-19
7.6946e-18
9.72473e-19
7.74658e-18
9.66877e-19
7.63351e-18
1.01153e-18
7.77924e-18
1.07087e-18
7.79963e-18
1.1489e-18
7.64593e-18
8.95112e-19
7.71331e-18
9.53061e-19
7.63287e-18
9.0253e-19
7.72803e-18
1.06252e-18
7.83874e-18
1.0073e-18
7.80532e-18
1.00433e-18
7.76159e-18
1.02331e-18
7.73737e-18
1.15352e-18
7.67615e-18
1.03214e-18
7.70367e-18
9.42849e-19
7.6961e-18
9.58713e-19
7.80883e-18
1.01785e-18
7.48801e-18
1.48775e-18
6.54766e-18
3.87106e-18
2.49e-18
8.40501e-18
2.63691e-19
6.05493e-18
-5.06008e-19
6.83427e-18
5.75573e-19
7.59099e-18
9.35927e-19
7.64199e-18
1.08382e-18
7.81041e-18
1.07064e-18
7.73174e-18
9.60884e-19
7.71022e-18
9.50185e-19
7.69487e-18
1.02923e-18
7.76709e-18
9.78003e-19
7.75906e-18
1.01774e-18
7.73233e-18
9.57607e-19
7.8567e-18
1.08254e-18
7.68201e-18
1.01417e-18
7.73494e-18
1.06434e-18
7.77968e-18
1.05237e-18
7.6861e-18
1.08468e-18
7.75177e-18
1.01977e-18
7.62672e-18
9.49943e-19
7.7755e-18
9.03261e-19
7.56904e-18
1.11528e-18
7.78425e-18
1.01598e-18
7.60346e-18
9.42855e-19
7.64138e-18
1.02395e-18
7.66669e-18
1.01267e-18
7.60729e-18
8.70993e-19
7.65732e-18
9.03022e-19
7.70183e-18
1.10776e-18
7.7272e-18
1.06687e-18
7.69343e-18
9.90368e-19
7.68432e-18
1.03293e-18
7.69859e-18
1.00985e-18
7.6054e-18
1.06311e-18
7.72181e-18
1.02625e-18
7.65398e-18
9.39217e-19
7.67206e-18
9.35828e-19
7.65907e-18
9.94061e-19
7.74606e-18
1.04034e-18
7.70104e-18
9.82237e-19
7.64558e-18
9.61373e-19
7.72921e-18
1.03443e-18
7.73227e-18
1.0863e-18
7.65114e-18
9.01078e-19
7.71165e-18
1.07298e-18
7.65394e-18
1.02531e-18
7.68323e-18
9.06966e-19
7.65845e-18
1.06171e-18
7.83364e-18
9.86168e-19
7.54626e-18
9.88177e-19
7.719e-18
1.33061e-18
7.0215e-18
2.6398e-18
5.22959e-18
3.44673e-18
7.37365e-18
1.13121e-17
-2.38072e-18
1.05673e-17
5.0524e-18
1.12542e-17
-2.19708e-18
1.05442e-17
4.85695e-18
1.11028e-17
-2.44956e-18
1.12134e-17
4.26841e-18
1.26424e-17
-5.46671e-18
1.5938e-17
-1.90742e-18
1.96035e-17
1.31771e-18
2.16824e-17
1.98774e-18
2.21228e-17
2.12509e-18
2.21776e-17
1.98488e-18
2.19329e-17
2.40108e-18
2.1982e-17
2.20801e-18
2.19204e-17
1.70537e-18
2.19136e-17
2.0252e-18
2.22241e-17
2.1072e-18
2.21017e-17
2.27635e-18
2.15755e-17
1.92581e-18
2.17648e-17
2.05795e-18
2.19018e-17
1.90675e-18
2.16988e-17
2.10354e-18
2.21813e-17
2.09932e-18
2.23185e-17
2.4682e-18
2.18091e-17
1.89592e-18
2.18825e-17
1.97409e-18
2.18396e-17
1.82624e-18
2.19837e-17
2.18483e-18
2.23022e-17
2.06779e-18
2.21892e-17
2.03508e-18
2.23426e-17
2.20975e-18
2.18102e-17
2.37031e-18
2.19382e-17
2.12553e-18
2.17171e-17
1.84966e-18
2.18237e-17
1.99856e-18
2.19763e-17
2.13427e-18
2.14851e-17
2.90321e-18
1.99527e-17
6.99606e-18
1.22768e-17
1.81592e-17
-1.41253e-18
1.84617e-17
-6.78749e-19
2.04927e-17
1.39677e-18
2.15513e-17
1.88057e-18
2.19368e-17
2.22094e-18
2.19937e-17
2.18893e-18
2.19048e-17
2.00424e-18
2.19639e-17
1.94567e-18
2.20251e-17
2.1788e-18
2.21178e-17
2.02081e-18
2.19065e-17
2.01435e-18
2.21158e-17
2.05446e-18
2.21675e-17
2.24392e-18
2.18874e-17
2.0792e-18
2.21234e-17
2.09233e-18
2.23459e-17
2.18033e-18
2.19899e-17
2.19106e-18
2.21963e-17
2.09121e-18
2.18509e-17
2.01585e-18
2.21819e-17
1.85998e-18
2.16891e-17
2.3049e-18
2.24392e-17
2.20323e-18
2.1663e-17
1.86383e-18
2.17576e-17
2.20483e-18
2.17094e-17
2.15719e-18
2.14612e-17
1.75595e-18
2.17831e-17
1.81631e-18
2.19267e-17
2.36153e-18
2.1743e-17
2.11573e-18
2.20214e-17
2.05901e-18
2.18217e-17
2.11069e-18
2.16946e-17
2.0329e-18
2.18199e-17
2.14505e-18
2.21176e-17
2.14349e-18
2.16446e-17
1.95736e-18
2.18934e-17
1.91826e-18
2.18885e-17
2.05005e-18
2.21412e-17
2.19898e-18
2.20695e-17
2.0704e-18
2.20254e-17
1.93534e-18
2.21042e-17
2.13508e-18
2.20901e-17
2.32187e-18
2.1796e-17
1.77016e-18
2.1874e-17
2.27246e-18
2.18229e-17
2.15379e-18
2.16751e-17
1.75778e-18
2.19842e-17
2.24242e-18
2.20076e-17
2.10292e-18
2.16051e-17
1.92668e-18
2.20063e-17
2.61272e-18
2.08936e-17
5.02842e-18
1.68992e-17
8.82078e-18
1.40336e-17
8.3926e-19
1.87291e-18
1.43954e-18
5.60459e-18
9.06227e-19
1.86593e-18
1.3451e-18
5.53396e-18
7.61307e-19
2.13196e-18
6.47932e-19
7.03164e-18
-1.69305e-18
5.00906e-18
-1.34684e-18
6.68942e-18
2.0611e-19
7.64561e-18
4.72626e-19
7.60858e-18
4.68173e-19
7.55082e-18
3.94435e-19
7.53894e-18
5.83503e-19
7.59816e-18
4.74375e-19
7.55233e-18
2.73688e-19
7.46775e-18
4.10702e-19
7.55557e-18
3.94643e-19
7.63862e-18
4.74383e-19
7.45872e-18
3.94844e-19
7.55951e-18
3.86429e-19
7.61272e-18
3.84916e-19
7.50699e-18
4.23128e-19
7.64663e-18
4.9237e-19
7.66043e-18
5.65553e-19
7.51246e-18
3.09028e-19
7.5744e-18
3.78169e-19
7.49741e-18
3.12458e-19
7.59181e-18
4.77066e-19
7.71154e-18
4.24364e-19
7.68294e-18
4.24993e-19
7.63106e-18
4.33505e-19
7.59405e-18
5.6173e-19
7.54612e-18
4.37808e-19
7.56904e-18
3.53784e-19
7.55356e-18
3.70285e-19
7.67059e-18
4.41894e-19
7.3044e-18
1.00957e-18
6.15476e-18
3.77408e-18
1.6872e-18
8.39863e-18
-1.73052e-19
5.88348e-18
-1.24699e-18
6.55367e-18
-1.00151e-19
7.41088e-18
3.39129e-19
7.49893e-18
4.83783e-19
7.67171e-18
4.92302e-19
7.60438e-18
3.73324e-19
7.57953e-18
3.59226e-19
7.56e-18
4.41184e-19
7.6278e-18
3.95601e-19
7.62291e-18
4.3046e-19
7.59113e-18
3.63057e-19
7.72304e-18
5.00692e-19
7.55094e-18
4.22575e-19
7.59926e-18
4.78258e-19
7.64825e-18
4.69936e-19
7.54498e-18
4.94087e-19
7.61137e-18
4.27893e-19
7.49526e-18
3.68507e-19
7.64895e-18
3.19732e-19
7.42662e-18
5.18584e-19
7.65964e-18
4.269e-19
7.46507e-18
3.63296e-19
7.5041e-18
4.29228e-19
7.52543e-18
4.19587e-19
7.47333e-18
2.886e-19
7.52162e-18
3.23964e-19
7.55319e-18
5.21891e-19
7.59273e-18
4.87796e-19
7.55895e-18
4.11718e-19
7.55395e-18
4.45614e-19
7.56823e-18
4.41288e-19
7.48546e-18
4.70588e-19
7.58088e-18
4.51369e-19
7.51904e-18
3.547e-19
7.53244e-18
3.53518e-19
7.52495e-18
4.15017e-19
7.60913e-18
4.57574e-19
7.56992e-18
4.08614e-19
7.51374e-18
3.7981e-19
7.59733e-18
4.52866e-19
7.60162e-18
5.00757e-19
7.52988e-18
3.11167e-19
7.57693e-18
4.92649e-19
7.5226e-18
4.35407e-19
7.54945e-18
3.19051e-19
7.50859e-18
4.59385e-19
7.70423e-18
4.12113e-19
7.4106e-18
3.94343e-19
7.56223e-18
8.01039e-19
6.75616e-18
2.27182e-18
4.89615e-18
2.83186e-18
7.51293e-18
2.7481e-18
-9.83067e-19
1.86615e-18
1.70434e-18
2.72983e-18
-9.97486e-19
1.7931e-18
1.66697e-18
2.5514e-18
-5.45171e-19
6.54921e-19
4.11113e-18
-9.62097e-19
2.86046e-18
-7.64208e-19
3.00161e-18
-1.33719e-18
2.20943e-18
-2.02275e-18
1.74175e-18
-2.21101e-18
1.66042e-18
-2.26705e-18
1.66262e-18
-2.24585e-18
1.6773e-18
-2.22031e-18
1.65902e-18
-2.33829e-18
1.59998e-18
-2.25703e-18
1.61744e-18
-2.30145e-18
1.67557e-18
-2.26855e-18
1.59034e-18
-2.25629e-18
1.63505e-18
-2.28742e-18
1.67841e-18
-2.27905e-18
1.64694e-18
-2.26701e-18
1.6912e-18
-2.21514e-18
1.65154e-18
-2.24728e-18
1.59304e-18
-2.30702e-18
1.66363e-18
-2.26392e-18
1.60302e-18
-2.31e-18
1.66136e-18
-2.2314e-18
1.71964e-18
-2.26103e-18
1.72157e-18
-2.25953e-18
1.66302e-18
-2.2869e-18
1.65512e-18
-2.25849e-18
1.64046e-18
-2.28957e-18
1.64832e-18
-2.29953e-18
1.61087e-18
-2.29256e-18
1.67259e-18
-2.27899e-18
1.45623e-18
-1.84122e-18
5.81771e-19
1.29733e-19
-2.32616e-18
2.50881e-18
-2.22406e-18
7.27284e-19
-3.37923e-18
9.02398e-19
-2.67067e-18
1.49554e-18
-2.32587e-18
1.60773e-18
-2.2711e-18
1.67272e-18
-2.22691e-18
1.67015e-18
-2.30445e-18
1.66417e-18
-2.30758e-18
1.64225e-18
-2.26947e-18
1.63922e-18
-2.26889e-18
1.67196e-18
-2.2757e-18
1.61546e-18
-2.30991e-18
1.73541e-18
-2.25774e-18
1.63684e-18
-2.29104e-18
1.66399e-18
-2.24438e-18
1.67161e-18
-2.25802e-18
1.6232e-18
-2.25676e-18
1.61814e-18
-2.30597e-18
1.60824e-18
-2.26716e-18
1.69743e-18
-2.315e-18
1.58205e-18
-2.26726e-18
1.68741e-18
-2.30669e-18
1.59811e-18
-2.27027e-18
1.61105e-18
-2.30372e-18
1.6195e-18
-2.31579e-18
1.61961e-18
-2.30487e-18
1.62468e-18
-2.27186e-18
1.61121e-18
-2.24901e-18
1.67714e-18
-2.22979e-18
1.63536e-18
-2.25312e-18
1.66163e-18
-2.26934e-18
1.66915e-18
-2.23016e-18
1.66378e-18
-2.26575e-18
1.61271e-18
-2.22857e-18
1.60501e-18
-2.29697e-18
1.61953e-18
-2.28245e-18
1.63159e-18
-2.24612e-18
1.64784e-18
-2.26907e-18
1.6407e-18
-2.24737e-18
1.63562e-18
-2.25794e-18
1.6733e-18
-2.24442e-18
1.67643e-18
-2.26805e-18
1.65982e-18
-2.30886e-18
1.65504e-18
-2.25238e-18
1.6334e-18
-2.28006e-18
1.64826e-18
-2.30438e-18
1.58336e-18
-2.30979e-18
1.71668e-18
-2.27335e-18
1.59854e-18
-2.2763e-18
1.61237e-18
-2.0192e-18
1.0574e-18
-1.01359e-18
1.80637e-20
-1.20437e-18
2.44496e-18
-4.6744e-18
7.47169e-18
-5.94533e-19
6.99208e-18
-4.70101e-18
7.2873e-18
-7.1564e-19
6.73334e-18
-3.67392e-18
4.81892e-18
4.96846e-18
-2.01942e-18
6.16438e-18
-1.91148e-18
3.86999e-18
-5.80014e-18
4.19151e-19
-8.11831e-18
-8.87488e-19
-8.55899e-18
-9.73506e-19
-8.62605e-18
-9.6668e-19
-8.75806e-18
-9.61002e-19
-8.55868e-18
-1.071e-18
-8.76437e-18
-1.0525e-18
-8.59449e-18
-1.05215e-18
-8.71047e-18
-1.01235e-18
-8.67429e-18
-1.12319e-18
-8.59379e-18
-1.07559e-18
-8.64008e-18
-9.90811e-19
-8.68609e-18
-9.10118e-19
-8.65271e-18
-9.77835e-19
-8.58381e-18
-1.11896e-18
-8.67001e-18
-1.1202e-18
-8.64018e-18
-9.59343e-19
-8.58337e-18
-1.12345e-18
-8.65725e-18
-9.91528e-19
-8.54666e-18
-9.26556e-19
-8.6227e-18
-9.13523e-19
-8.59937e-18
-9.93704e-19
-8.71243e-18
-1.00746e-18
-8.77672e-18
-1.05772e-18
-8.72021e-18
-1.03626e-18
-8.74054e-18
-1.14398e-18
-8.66881e-18
-1.03679e-18
-8.67783e-18
-1.2792e-18
-8.03094e-18
-2.61628e-18
-4.97257e-18
-7.50844e-18
-5.73149e-20
-9.20322e-18
-2.76254e-18
-1.04792e-17
-2.18584e-18
-9.26796e-18
-1.29718e-18
-8.7468e-18
-1.06978e-18
-8.67794e-18
-1.04013e-18
-8.58357e-18
-9.92717e-19
-8.70465e-18
-9.67484e-19
-8.70157e-18
-1.01386e-18
-8.62422e-18
-1.15633e-18
-8.62292e-18
-9.98224e-19
-8.64404e-18
-1.05911e-18
-8.70453e-18
-9.0525e-19
-8.67073e-18
-1.06755e-18
-8.69474e-18
-1.0013e-18
-8.67387e-18
-1.01969e-18
-8.66599e-18
-1.0482e-18
-8.67215e-18
-1.16964e-18
-8.77519e-18
-1.0254e-18
-8.54857e-18
-9.18508e-19
-8.69219e-18
-1.06134e-18
-8.70191e-18
-9.54189e-19
-8.7326e-18
-1.09615e-18
-8.62225e-18
-1.06971e-18
-8.71584e-18
-1.09042e-18
-8.76037e-18
-1.0316e-18
-8.64489e-18
-1.1038e-18
-8.55126e-18
-1.11112e-18
-8.63869e-18
-9.21791e-19
-8.61977e-18
-1.06131e-18
-8.59457e-18
-1.03334e-18
-8.66154e-18
-9.38941e-19
-8.58267e-18
-9.00441e-19
-8.67365e-18
-1.1385e-18
-8.57006e-18
-1.12906e-18
-8.62525e-18
-1.03945e-18
-8.61778e-18
-9.93559e-19
-8.52033e-18
-1.01557e-18
-8.68384e-18
-1.04544e-18
-8.56109e-18
-1.00069e-18
-8.59756e-18
-9.5407e-19
-8.61241e-18
-9.5206e-19
-8.68714e-18
-9.63494e-19
-8.70769e-18
-1.04299e-18
-8.6655e-18
-1.04361e-18
-8.68701e-18
-9.69104e-19
-8.70873e-18
-1.18338e-18
-8.80621e-18
-9.40081e-19
-8.64404e-18
-1.056e-18
-8.67574e-18
-1.12591e-18
-8.32235e-18
-1.96248e-18
-6.67044e-18
-3.82918e-18
-6.18936e-18
-7.11594e-19
2.43076e-17
-8.58495e-18
1.67101e-17
-1.073e-17
2.38382e-17
-8.84435e-18
1.69176e-17
-8.96598e-18
1.97752e-17
9.60906e-19
-2.1056e-19
1.52334e-17
-1.12161e-17
5.76352e-18
-1.98105e-17
-4.74214e-19
-2.4415e-17
-2.95201e-18
-2.47818e-17
-2.944e-18
-2.46711e-17
-2.84439e-18
-2.52572e-17
-2.88095e-18
-2.45696e-17
-3.20883e-18
-2.50922e-17
-3.00838e-18
-2.46826e-17
-2.99317e-18
-2.48084e-17
-2.94888e-18
-2.51137e-17
-3.17588e-18
-2.46715e-17
-3.09235e-18
-2.46298e-17
-2.91617e-18
-2.49185e-17
-2.73031e-18
-2.49632e-17
-2.9795e-18
-2.49145e-17
-3.2315e-18
-2.49348e-17
-3.13145e-18
-2.48871e-17
-2.79369e-18
-2.47851e-17
-3.27112e-18
-2.46878e-17
-2.91631e-18
-2.45397e-17
-2.82464e-18
-2.45957e-17
-2.81857e-18
-2.45363e-17
-2.86098e-18
-2.52254e-17
-2.90591e-18
-2.55326e-17
-3.17717e-18
-2.49703e-17
-2.9371e-18
-2.49803e-17
-3.27273e-18
-2.48969e-17
-3.04994e-18
-2.46536e-17
-3.32115e-18
-2.40077e-17
-5.61741e-18
-1.86816e-17
-1.49248e-17
-6.03745e-18
-2.82804e-17
-6.73046e-18
-2.83949e-17
-4.99525e-18
-2.58962e-17
-3.43341e-18
-2.52227e-17
-3.10989e-18
-2.47997e-17
-3.00797e-18
-2.47367e-17
-2.91708e-18
-2.52089e-17
-2.88936e-18
-2.50817e-17
-3.00306e-18
-2.46342e-17
-3.28318e-18
-2.48472e-17
-2.92265e-18
-2.46048e-17
-2.95919e-18
-2.48964e-17
-2.7616e-18
-2.47725e-17
-3.15426e-18
-2.48588e-17
-2.91714e-18
-2.4951e-17
-3.01804e-18
-2.4723e-17
-2.95984e-18
-2.49601e-17
-3.3451e-18
-2.48604e-17
-2.96853e-18
-2.45137e-17
-2.78529e-18
-2.46717e-17
-3.00295e-18
-2.48568e-17
-2.87943e-18
-2.48723e-17
-3.14303e-18
-2.4509e-17
-3.03865e-18
-2.47758e-17
-3.05803e-18
-2.51067e-17
-2.97659e-18
-2.47869e-17
-3.24912e-18
-2.45846e-17
-3.09664e-18
-2.4644e-17
-2.66097e-18
-2.46914e-17
-3.1144e-18
-2.47442e-17
-3.10668e-18
-2.45565e-17
-2.72797e-18
-2.47506e-17
-2.80888e-18
-2.48837e-17
-3.205e-18
-2.47761e-17
-3.24573e-18
-2.43496e-17
-2.93662e-18
-2.45646e-17
-2.95445e-18
-2.4455e-17
-2.86425e-18
-2.49791e-17
-3.09033e-18
-2.46495e-17
-2.94747e-18
-2.48421e-17
-2.85187e-18
-2.4857e-17
-2.83268e-18
-2.48542e-17
-2.88093e-18
-2.4847e-17
-3.06194e-18
-2.49107e-17
-3.08986e-18
-2.48413e-17
-2.7328e-18
-2.52924e-17
-3.38848e-18
-2.50029e-17
-2.82754e-18
-2.47933e-17
-3.08329e-18
-2.46626e-17
-3.15866e-18
-2.42935e-17
-4.66888e-18
-2.12469e-17
-8.52885e-18
-1.77367e-17
-9.68498e-18
7.19514e-18
-3.3024e-18
5.83977e-18
-1.05e-17
7.02566e-18
-3.39729e-18
5.32998e-18
-8.95973e-18
3.19175e-18
5.11873e-18
-8.1181e-18
6.57193e-18
-7.50028e-18
3.89177e-18
-1.27688e-17
-8.18995e-19
-1.59608e-17
-2.58435e-18
-1.65291e-17
-2.88301e-18
-1.67319e-17
-2.80303e-18
-1.69173e-17
-2.88219e-18
-1.65187e-17
-2.96666e-18
-1.67947e-17
-2.85637e-18
-1.6577e-17
-2.88786e-18
-1.67531e-17
-2.76607e-18
-1.67499e-17
-2.91454e-18
-1.66612e-17
-2.95643e-18
-1.6682e-17
-2.88806e-18
-1.67536e-17
-2.74647e-18
-1.666e-17
-2.83258e-18
-1.67918e-17
-2.92584e-18
-1.66717e-17
-2.98372e-18
-1.67105e-17
-2.80968e-18
-1.65814e-17
-3.03724e-18
-1.67562e-17
-2.70118e-18
-1.65593e-17
-2.77979e-18
-1.67219e-17
-2.81572e-18
-1.6646e-17
-2.83688e-18
-1.67934e-17
-2.85656e-18
-1.67669e-17
-2.91228e-18
-1.67699e-17
-2.8848e-18
-1.67941e-17
-3.03752e-18
-1.66364e-17
-2.88372e-18
-1.66558e-17
-3.19348e-18
-1.5558e-17
-5.65508e-18
-1.03969e-17
-1.418e-17
-1.36732e-18
-1.78551e-17
-6.02097e-18
-1.97882e-17
-4.79674e-18
-1.76557e-17
-3.29113e-18
-1.68726e-17
-2.85045e-18
-1.66653e-17
-2.94387e-18
-1.65033e-17
-2.79591e-18
-1.67548e-17
-2.7559e-18
-1.66979e-17
-2.90859e-18
-1.65887e-17
-3.00016e-18
-1.66463e-17
-2.81787e-18
-1.6671e-17
-2.87095e-18
-1.68132e-17
-2.71213e-18
-1.66003e-17
-2.95021e-18
-1.66382e-17
-2.88231e-18
-1.67174e-17
-2.81685e-18
-1.66462e-17
-2.9013e-18
-1.6754e-17
-3.0181e-18
-1.68252e-17
-2.87405e-18
-1.65548e-17
-2.71257e-18
-1.66468e-17
-2.84327e-18
-1.67806e-17
-2.81488e-18
-1.68105e-17
-2.99544e-18
-1.65589e-17
-2.88901e-18
-1.66875e-17
-2.95695e-18
-1.67905e-17
-2.83562e-18
-1.65862e-17
-2.91768e-18
-1.65881e-17
-3.00906e-18
-1.65891e-17
-2.68002e-18
-1.65816e-17
-2.87535e-18
-1.65646e-17
-2.87711e-18
-1.66935e-17
-2.75373e-18
-1.66395e-17
-2.73173e-18
-1.6704e-17
-2.91386e-18
-1.65952e-17
-2.96947e-18
-1.66101e-17
-2.88995e-18
-1.66821e-17
-2.90809e-18
-1.66141e-17
-2.91044e-18
-1.66861e-17
-2.87344e-18
-1.64679e-17
-2.79537e-18
-1.65422e-17
-2.70351e-18
-1.65946e-17
-2.69141e-18
-1.66903e-17
-2.83374e-18
-1.67487e-17
-2.87687e-18
-1.67364e-17
-2.86516e-18
-1.67115e-17
-2.85817e-18
-1.67685e-17
-3.07376e-18
-1.67382e-17
-2.83471e-18
-1.66718e-17
-2.77833e-18
-1.66142e-17
-2.99846e-18
-1.60752e-17
-4.48797e-18
-1.32835e-17
-7.99857e-18
-1.19545e-17
-2.63765e-18
-1.14692e-17
-2.54085e-18
-1.47719e-17
3.58747e-18
-1.15989e-17
-3.21588e-18
-1.3378e-17
-1.30489e-19
-3.55446e-18
-1.68716e-17
4.71174e-18
-1.96393e-17
1.83054e-18
-2.41049e-17
-1.89626e-18
-2.68272e-17
-3.24653e-18
-2.72977e-17
-3.83919e-18
-2.76135e-17
-3.59068e-18
-2.75526e-17
-3.92137e-18
-2.69777e-17
-3.84634e-18
-2.73732e-17
-3.58335e-18
-2.70251e-17
-3.6822e-18
-2.7333e-17
-3.43371e-18
-2.7674e-17
-3.66341e-18
-2.74727e-17
-3.90328e-18
-2.70331e-17
-3.72803e-18
-2.72593e-17
-3.55165e-18
-2.75606e-17
-3.72738e-18
-2.7833e-17
-3.65165e-18
-2.71845e-17
-3.76906e-18
-2.75399e-17
-3.75909e-18
-2.71074e-17
-3.87939e-18
-2.71514e-17
-3.32732e-18
-2.73131e-17
-3.64721e-18
-2.7528e-17
-3.83801e-18
-2.72173e-17
-3.62504e-18
-2.75042e-17
-3.80025e-18
-2.69843e-17
-3.64028e-18
-2.74231e-17
-3.74919e-18
-2.74399e-17
-3.83914e-18
-2.70964e-17
-3.68535e-18
-2.71493e-17
-3.92641e-18
-2.57318e-17
-6.93411e-18
-1.99121e-17
-1.73213e-17
-6.75947e-18
-3.06361e-17
-7.97027e-18
-3.08581e-17
-5.75496e-18
-2.83072e-17
-4.08279e-18
-2.7755e-17
-3.65248e-18
-2.71742e-17
-3.91657e-18
-2.69347e-17
-3.49265e-18
-2.75737e-17
-3.54563e-18
-2.71457e-17
-3.89301e-18
-2.70922e-17
-3.65705e-18
-2.72343e-17
-3.59833e-18
-2.74444e-17
-3.64986e-18
-2.75637e-17
-3.68356e-18
-2.68744e-17
-3.86433e-18
-2.68764e-17
-3.77233e-18
-2.70071e-17
-3.40152e-18
-2.71209e-17
-3.73324e-18
-2.73457e-17
-3.68736e-18
-2.74436e-17
-3.87746e-18
-2.68882e-17
-3.50328e-18
-2.70362e-17
-3.56348e-18
-2.75017e-17
-3.68799e-18
-2.743e-17
-3.9536e-18
-2.70001e-17
-3.67414e-18
-2.69318e-17
-3.71975e-18
-2.74641e-17
-3.62472e-18
-2.73256e-17
-3.65137e-18
-2.73687e-17
-3.95194e-18
-2.6788e-17
-3.46389e-18
-2.7099e-17
-3.58438e-18
-2.72339e-17
-3.6534e-18
-2.75544e-17
-3.58629e-18
-2.76505e-17
-3.69976e-18
-2.76272e-17
-3.6688e-18
-2.72128e-17
-3.73895e-18
-2.70772e-17
-3.57267e-18
-2.7483e-17
-3.83222e-18
-2.76213e-17
-3.87898e-18
-2.73635e-17
-3.73357e-18
-2.71709e-17
-3.64619e-18
-2.69969e-17
-3.48954e-18
-2.71566e-17
-3.37929e-18
-2.71266e-17
-3.7956e-18
-2.72528e-17
-3.63913e-18
-2.75496e-17
-3.6038e-18
-2.72036e-17
-3.82642e-18
-2.76216e-17
-3.93989e-18
-2.70015e-17
-3.74969e-18
-2.72544e-17
-3.39826e-18
-2.72013e-17
-3.78771e-18
-2.66519e-17
-5.52969e-18
-2.33575e-17
-1.03864e-17
-1.95174e-17
-1.00649e-17
-1.90642e-18
-1.28127e-17
-1.03362e-18
-5.36362e-18
-2.44223e-18
-1.1633e-17
-4.26478e-18
1.51811e-18
-1.35625e-17
1.04034e-18
-1.26113e-17
6.76158e-19
-1.55283e-17
-2.22931e-18
-1.74133e-17
-3.2705e-18
-1.78056e-17
-3.78641e-18
-1.81384e-17
-3.73979e-18
-1.80753e-17
-3.76949e-18
-1.78774e-17
-3.77419e-18
-1.79748e-17
-3.64823e-18
-1.79014e-17
-3.6364e-18
-1.79174e-17
-3.55802e-18
-1.79466e-17
-3.63683e-18
-1.79389e-17
-3.7214e-18
-1.79956e-17
-3.65213e-18
-1.7894e-17
-3.64125e-18
-1.79273e-17
-3.72187e-18
-1.80668e-17
-3.70177e-18
-1.78842e-17
-3.65387e-18
-1.7975e-17
-3.63846e-18
-1.78652e-17
-3.69951e-18
-1.78762e-17
-3.54938e-18
-1.78907e-17
-3.6969e-18
-1.79448e-17
-3.63915e-18
-1.79492e-17
-3.56621e-18
-1.79741e-17
-3.74253e-18
-1.78726e-17
-3.61024e-18
-1.79291e-17
-3.76692e-18
-1.79947e-17
-3.78125e-18
-1.79272e-17
-3.5995e-18
-1.76955e-17
-3.90264e-18
-1.66203e-17
-7.02377e-18
-1.10453e-17
-1.5605e-17
-2.4034e-18
-1.89685e-17
-6.55086e-18
-2.07316e-17
-5.40615e-18
-1.88097e-17
-4.06051e-18
-1.79925e-17
-3.59834e-18
-1.78782e-17
-3.65222e-18
-1.78723e-17
-3.59561e-18
-1.78903e-17
-3.58193e-18
-1.80062e-17
-3.7119e-18
-1.7916e-17
-3.69396e-18
-1.80354e-17
-3.70562e-18
-1.80314e-17
-3.58033e-18
-1.81666e-17
-3.65419e-18
-1.78946e-17
-3.80828e-18
-1.79007e-17
-3.84025e-18
-1.79809e-17
-3.49324e-18
-1.78581e-17
-3.69252e-18
-1.79858e-17
-3.64364e-18
-1.79575e-17
-3.78156e-18
-1.79174e-17
-3.49562e-18
-1.78917e-17
-3.5872e-18
-1.81008e-17
-3.6746e-18
-1.80513e-17
-3.77904e-18
-1.79602e-17
-3.70611e-18
-1.78693e-17
-3.8267e-18
-1.79205e-17
-3.67291e-18
-1.78193e-17
-3.57618e-18
-1.79214e-17
-3.70197e-18
-1.78107e-17
-3.50209e-18
-1.79321e-17
-3.63789e-18
-1.79427e-17
-3.66363e-18
-1.78347e-17
-3.59609e-18
-1.80325e-17
-3.73031e-18
-1.79613e-17
-3.6028e-18
-1.79409e-17
-3.64586e-18
-1.80154e-17
-3.63535e-18
-1.79296e-17
-3.86845e-18
-1.79471e-17
-3.70398e-18
-1.80011e-17
-3.73669e-18
-1.77931e-17
-3.48883e-18
-1.77957e-17
-3.64e-18
-1.78276e-17
-3.5792e-18
-1.78982e-17
-3.61935e-18
-1.79197e-17
-3.65552e-18
-1.80195e-17
-3.64166e-18
-1.77942e-17
-3.72061e-18
-1.79672e-17
-3.85964e-18
-1.77875e-17
-3.75415e-18
-1.78529e-17
-3.47509e-18
-1.76654e-17
-3.74609e-18
-1.71759e-17
-5.29369e-18
-1.43791e-17
-9.08026e-18
-1.30571e-17
-3.21625e-18
-1.7822e-17
-1.06494e-18
-1.5264e-17
-7.82254e-18
-1.66951e-17
-4.42778e-18
-7.50825e-18
-2.08197e-17
4.69748e-19
-2.37235e-17
-1.45616e-18
-2.78192e-17
-4.95325e-18
-2.93643e-17
-5.85511e-18
-2.9998e-17
-6.50996e-18
-3.04395e-17
-6.51686e-18
-3.03012e-17
-6.42086e-18
-3.02436e-17
-6.41743e-18
-3.0226e-17
-6.33126e-18
-3.02699e-17
-6.27357e-18
-3.02992e-17
-6.46563e-18
-2.97732e-17
-6.24184e-18
-3.0188e-17
-6.39562e-18
-3.03285e-17
-6.26477e-18
-2.98982e-17
-6.27063e-18
-3.00958e-17
-6.53721e-18
-2.99095e-17
-6.42744e-18
-3.02998e-17
-6.25936e-18
-3.00291e-17
-6.39508e-18
-2.99084e-17
-6.24016e-18
-2.97361e-17
-6.36915e-18
-2.96215e-17
-6.39816e-18
-2.98793e-17
-6.14246e-18
-3.02443e-17
-6.14207e-18
-2.97353e-17
-6.53501e-18
-2.97364e-17
-6.03432e-18
-3.03917e-17
-6.63678e-18
-3.03507e-17
-6.47179e-18
-3.01264e-17
-6.23696e-18
-2.95872e-17
-6.65357e-18
-2.82449e-17
-1.0823e-17
-2.16372e-17
-2.10168e-17
-1.01397e-17
-3.24329e-17
-8.9687e-18
-3.20195e-17
-7.49483e-18
-3.06855e-17
-6.78373e-18
-2.97198e-17
-6.24372e-18
-2.99336e-17
-6.18018e-18
-3.01263e-17
-6.34649e-18
-2.96141e-17
-6.29635e-18
-3.00424e-17
-6.25491e-18
-3.0262e-17
-6.40271e-18
-3.04836e-17
-6.45942e-18
-3.03182e-17
-6.15717e-18
-3.05037e-17
-6.50056e-18
-3.05411e-17
-6.57855e-18
-3.00804e-17
-6.69348e-18
-3.0093e-17
-6.02206e-18
-2.999e-17
-6.42033e-18
-2.97712e-17
-6.14874e-18
-3.01669e-17
-6.63543e-18
-3.03481e-17
-6.01596e-18
-2.99795e-17
-6.22942e-18
-3.03032e-17
-6.29772e-18
-3.04099e-17
-6.54444e-18
-3.00588e-17
-6.38998e-18
-3.00056e-17
-6.66796e-18
-3.00152e-17
-6.32029e-18
-3.01788e-17
-6.20325e-18
-3.007e-17
-6.26059e-18
-3.02545e-17
-6.12584e-18
-3.03782e-17
-6.4323e-18
-3.03177e-17
-6.35993e-18
-2.99749e-17
-6.2103e-18
-3.0208e-17
-6.48051e-18
-3.02488e-17
-6.31313e-18
-3.01234e-17
-6.2887e-18
-3.02668e-17
-6.22807e-18
-3.00993e-17
-6.72716e-18
-2.99238e-17
-6.13329e-18
-3.01795e-17
-6.59404e-18
-2.98821e-17
-5.97429e-18
-3.0004e-17
-6.5663e-18
-2.98027e-17
-6.36601e-18
-3.00527e-17
-6.11471e-18
-3.01588e-17
-6.43638e-18
-3.00869e-17
-6.3896e-18
-2.96751e-17
-6.26997e-18
-2.98574e-17
-6.64963e-18
-2.99066e-17
-6.42662e-18
-2.99973e-17
-6.1701e-18
-2.95954e-17
-6.39644e-18
-2.8945e-17
-7.94913e-18
-2.61646e-17
-1.30464e-17
-2.2508e-17
-1.25148e-17
-2.13518e-17
-9.62374e-18
-1.38098e-17
-1.08643e-17
-2.01877e-17
-1.28048e-17
-6.91535e-18
-2.20543e-17
-7.59735e-18
-2.13478e-17
-7.70398e-18
-2.39472e-17
-1.06964e-17
-2.58113e-17
-1.18228e-17
-2.64207e-17
-1.22073e-17
-2.67398e-17
-1.22268e-17
-2.65409e-17
-1.22729e-17
-2.65166e-17
-1.22894e-17
-2.64781e-17
-1.21111e-17
-2.63704e-17
-1.21574e-17
-2.64972e-17
-1.21617e-17
-2.62948e-17
-1.21607e-17
-2.64385e-17
-1.21961e-17
-2.63623e-17
-1.21272e-17
-2.64186e-17
-1.2235e-17
-2.65312e-17
-1.22352e-17
-2.64142e-17
-1.24448e-17
-2.64616e-17
-1.21088e-17
-2.63508e-17
-1.20241e-17
-2.63788e-17
-1.21826e-17
-2.63064e-17
-1.22139e-17
-2.63484e-17
-1.21893e-17
-2.65142e-17
-1.20637e-17
-2.65066e-17
-1.20131e-17
-2.64497e-17
-1.22146e-17
-2.64405e-17
-1.2086e-17
-2.63621e-17
-1.23551e-17
-2.6567e-17
-1.23063e-17
-2.64618e-17
-1.21339e-17
-2.59882e-17
-1.30291e-17
-2.37975e-17
-1.84888e-17
-1.50672e-17
-2.80802e-17
-1.07284e-17
-2.31986e-17
-9.62075e-18
-2.50192e-17
-1.14983e-17
-2.62369e-17
-1.22277e-17
-2.63071e-17
-1.21378e-17
-2.62943e-17
-1.20117e-17
-2.64728e-17
-1.21643e-17
-2.63843e-17
-1.21287e-17
-2.67142e-17
-1.23146e-17
-2.66258e-17
-1.22542e-17
-2.66455e-17
-1.22596e-17
-2.67163e-17
-1.21461e-17
-2.65482e-17
-1.24431e-17
-2.67695e-17
-1.24147e-17
-2.64622e-17
-1.23836e-17
-2.64686e-17
-1.20947e-17
-2.62868e-17
-1.19927e-17
-2.62637e-17
-1.19345e-17
-2.64661e-17
-1.22468e-17
-2.65743e-17
-1.19956e-17
-2.65215e-17
-1.21296e-17
-2.66123e-17
-1.21706e-17
-2.66192e-17
-1.21891e-17
-2.6674e-17
-1.21931e-17
-2.64246e-17
-1.23801e-17
-2.63585e-17
-1.22697e-17
-2.63594e-17
-1.18965e-17
-2.66304e-17
-1.23118e-17
-2.6373e-17
-1.21515e-17
-2.66589e-17
-1.21152e-17
-2.66289e-17
-1.22358e-17
-2.62301e-17
-1.1922e-17
-2.65158e-17
-1.23488e-17
-2.64835e-17
-1.22202e-17
-2.64512e-17
-1.20707e-17
-2.65026e-17
-1.20989e-17
-2.63851e-17
-1.2297e-17
-2.63196e-17
-1.20547e-17
-2.65448e-17
-1.21851e-17
-2.64444e-17
-1.20172e-17
-2.65423e-17
-1.21823e-17
-2.6455e-17
-1.23417e-17
-2.65109e-17
-1.21153e-17
-2.63189e-17
-1.23489e-17
-2.65368e-17
-1.20915e-17
-2.61554e-17
-1.22341e-17
-2.63858e-17
-1.23255e-17
-2.63929e-17
-1.23521e-17