/*--------------------------------*- C++ -*----------------------------------*\
| =========                 |                                                 |
| \\      /  F ield         | OpenFOAM: The Open Source CFD Toolbox           |
|  \\    /   O peration     | Version:  2512                                  |
|   \\  /    A nd           | Website:  www.openfoam.com                      |
|    \\/     M anipulation  |                                                 |
\*---------------------------------------------------------------------------*/
FoamFile
{
    version     2.0;
    format      ascii;
    arch        "LSB;label=32;scalar=64";
    class       volVectorField;
    location    "2e-05";
    object      B;
}
// * * * * * * * * * * * * * * * * * * * * * * * * * * * * * * * * * * * * * //

dimensions      [1 0 -2 0 0 -1 0];

internalField   nonuniform List<vector> 
100000
(
(0.014322 20.0015 0)
(0.0211192 19.9972 0)
(0.0172335 20.0022 0)
(0.0189765 19.9988 0)
(0.018421 20.0005 0)
(0.0184838 20 0)
(0.0184644 20 0)
(0.0184471 20 0)
(0.0184297 20 0)
(0.0184123 20 0)
(0.0183949 20 0)
(0.0183775 20 0)
(0.0183601 20 0)
(0.0183427 20 0)
(0.0183253 20 0)
(0.0183079 20 0)
(0.0182905 20 0)
(0.018273 20 0)
(0.0182556 20 0)
(0.0182382 20 0)
(0.0182208 20 0)
(0.0182034 20 0)
(0.018186 20 0)
(0.0181686 20 0)
(0.0181512 20 0)
(0.0181337 20 0)
(0.0181163 20 0)
(0.0180989 20 0)
(0.0180815 20 0)
(0.0180641 20 0)
(0.0180467 20 0)
(0.0180293 20 0)
(0.0180118 20 0)
(0.0179944 20 0)
(0.017977 20 0)
(0.0179596 20 0)
(0.0179422 20 0)
(0.0179248 20 0)
(0.0179074 20 0)
(0.01789 20 0)
(0.0178725 20 0)
(0.0178551 20 0)
(0.0178377 20 0)
(0.0178203 20 0)
(0.0178029 20 0)
(0.0177855 20 0)
(0.0177681 20 0)
(0.0177507 20 0)
(0.0177333 20 0)
(0.0177158 20 0)
(0.0176984 20 0)
(0.017681 20 0)
(0.0176636 20 0)
(0.0176462 20 0)
(0.0176288 20 0)
(0.0176114 20 0)
(0.017594 20 0)
(0.0175766 20 0)
(0.0175592 20 0)
(0.0175417 20 0)
(0.0175243 20 0)
(0.0175069 20 0)
(0.0174895 20 0)
(0.0174721 20 0)
(0.0174547 20 0)
(0.0174373 20 0)
(0.0174199 20 0)
(0.0174025 20 0)
(0.0173851 20 0)
(0.0173677 20 0)
(0.0173503 20 0)
(0.0173329 20 0)
(0.0173155 20 0)
(0.0172981 20 0)
(0.0172807 20 0)
(0.0172633 20 0)
(0.0172459 20 0)
(0.0172284 20 0)
(0.017211 20 0)
(0.0171936 20 0)
(0.0171762 20 0)
(0.0171588 20 0)
(0.0171414 20 0)
(0.017124 20 0)
(0.0171066 20 0)
(0.0170892 20 0)
(0.0170718 20 0)
(0.0170545 20 0)
(0.0170371 20 0)
(0.0170197 20 0)
(0.0170023 20 0)
(0.0169849 20 0)
(0.0169675 20 0)
(0.0169501 20 0)
(0.0169327 20 0)
(0.0169153 20 0)
(0.0168979 20 0)
(0.0168805 20 0)
(0.0168631 20 0)
(0.0168457 20 0)
(0.0168283 20 0)
(0.0168109 20 0)
(0.0167935 20 0)
(0.0167762 20 0)
(0.0167588 20 0)
(0.0167414 20 0)
(0.016724 20 0)
(0.0167066 20 0)
(0.0166892 20 0)
(0.0166718 20 0)
(0.0166544 20 0)
(0.0166371 20 0)
(0.0166197 20 0)
(0.0166023 20 0)
(0.0165849 20 0)
(0.0165675 20 0)
(0.0165501 20 0)
(0.0165328 20 0)
(0.0165154 20 0)
(0.016498 20 0)
(0.0164806 20 0)
(0.0164632 20 0)
(0.0164459 20 0)
(0.0164285 20 0)
(0.0164111 20 0)
(0.0163937 20 0)
(0.0163764 20 0)
(0.016359 20 0)
(0.0163416 20 0)
(0.0163242 20 0)
(0.0163069 20 0)
(0.0162895 20 0)
(0.0162721 20 0)
(0.0162548 20 0)
(0.0162374 20 0)
(0.01622 20 0)
(0.0162026 20 0)
(0.0161853 20 0)
(0.0161679 20 0)
(0.0161505 20 0)
(0.0161332 20 0)
(0.0161158 20 0)
(0.0160985 20 0)
(0.0160811 20 0)
(0.0160637 20 0)
(0.0160464 20 0)
(0.016029 20 0)
(0.0160116 20 0)
(0.0159943 20 0)
(0.0159769 20 0)
(0.0159596 20 0)
(0.0159422 20 0)
(0.0159249 20 0)
(0.0159075 20 0)
(0.0158902 20 0)
(0.0158728 20 0)
(0.0158554 20 0)
(0.0158381 20 0)
(0.0158207 20 0)
(0.0158034 20 0)
(0.015786 20 0)
(0.0157687 20 0)
(0.0157514 20 0)
(0.015734 20 0)
(0.0157167 20 0)
(0.0156993 20 0)
(0.015682 20 0)
(0.0156646 20 0)
(0.0156473 20 0)
(0.0156299 20 0)
(0.0156126 20 0)
(0.0155953 20 0)
(0.0155779 20 0)
(0.0155606 20 0)
(0.0155433 20 0)
(0.0155259 20 0)
(0.0155086 20 0)
(0.0154913 20 0)
(0.0154739 20 0)
(0.0154566 20 0)
(0.0154393 20 0)
(0.0154219 20 0)
(0.0154046 20 0)
(0.0153873 20 0)
(0.01537 20 0)
(0.0153526 20 0)
(0.0153353 20 0)
(0.015318 20 0)
(0.0153007 20 0)
(0.0152833 20 0)
(0.015266 20 0)
(0.0152487 20 0)
(0.0152314 20 0)
(0.0152141 20 0)
(0.0151967 20 0)
(0.0151794 20 0)
(0.0151621 20 0)
(0.0151448 20 0)
(0.0151275 20 0)
(0.0151102 20 0)
(0.0150929 20 0)
(0.0150756 20 0)
(0.0150583 20 0)
(0.0150409 20 0)
(0.0150236 20 0)
(0.0150063 20 0)
(0.014989 20 0)
(0.0149717 20 0)
(0.0149544 20 0)
(0.0149371 20 0)
(0.0149198 20 0)
(0.0149025 20 0)
(0.0148852 20 0)
(0.0148679 20 0)
(0.0148506 20 0)
(0.0148333 20 0)
(0.0148161 20 0)
(0.0147988 20 0)
(0.0147815 20 0)
(0.0147642 20 0)
(0.0147469 20 0)
(0.0147296 20 0)
(0.0147123 20 0)
(0.014695 20 0)
(0.0146778 20 0)
(0.0146605 20 0)
(0.0146432 20 0)
(0.0146259 20 0)
(0.0146086 20 0)
(0.0145914 20 0)
(0.0145741 20 0)
(0.0145568 20 0)
(0.0145395 20 0)
(0.0145223 20 0)
(0.014505 20 0)
(0.0144877 20 0)
(0.0144705 20 0)
(0.0144532 20 0)
(0.0144359 20 0)
(0.0144187 20 0)
(0.0144014 20 0)
(0.0143841 20 0)
(0.0143669 20 0)
(0.0143496 20 0)
(0.0143324 20 0)
(0.0143151 20 0)
(0.0142978 20 0)
(0.0142806 20 0)
(0.0142633 20 0)
(0.0142461 20 0)
(0.0142288 20 0)
(0.0142116 20 0)
(0.0141943 20 0)
(0.0141771 20 0)
(0.0141598 20 0)
(0.0141426 20 0)
(0.0141254 20 0)
(0.0141081 20 0)
(0.0140909 20 0)
(0.0140736 20 0)
(0.0140564 20 0)
(0.0140392 20 0)
(0.0140219 20 0)
(0.0140047 20 0)
(0.0139875 20 0)
(0.0139702 20 0)
(0.013953 20 0)
(0.0139358 20 0)
(0.0139185 20 0)
(0.0139013 20 0)
(0.0138841 20 0)
(0.0138669 20 0)
(0.0138496 20 0)
(0.0138324 20 0)
(0.0138152 20 0)
(0.013798 20 0)
(0.0137808 20 0)
(0.0137636 20 0)
(0.0137463 20 0)
(0.0137291 20 0)
(0.0137119 20 0)
(0.0136947 20 0)
(0.0136775 20 0)
(0.0136603 20 0)
(0.0136431 20 0)
(0.0136259 20 0)
(0.0136087 20 0)
(0.0135915 20 0)
(0.0135743 20 0)
(0.0135571 20 0)
(0.0135399 20 0)
(0.0135227 20 0)
(0.0135055 20 0)
(0.0134883 20 0)
(0.0134711 20 0)
(0.0134539 20 0)
(0.0134367 20 0)
(0.0134196 20 0)
(0.0134024 20 0)
(0.0133852 20 0)
(0.013368 20 0)
(0.0133508 20 0)
(0.0133336 20 0)
(0.0133165 20 0)
(0.0132993 20 0)
(0.0132821 20 0)
(0.0132649 20 0)
(0.0132478 20 0)
(0.0132306 20 0)
(0.0132134 20 0)
(0.0131963 20 0)
(0.0131791 20 0)
(0.0131619 20 0)
(0.0131448 20 0)
(0.0131276 20 0)
(0.0131104 20 0)
(0.0130933 20 0)
(0.0130761 20 0)
(0.013059 20 0)
(0.0130418 20 0)
(0.0130247 20 0)
(0.0130075 20 0)
(0.0129904 20 0)
(0.0129732 20 0)
(0.0129561 20 0)
(0.0129389 20 0)
(0.0129218 20 0)
(0.0129047 20 0)
(0.0128875 20 0)
(0.0128704 20 0)
(0.0128532 20 0)
(0.0128361 20 0)
(0.012819 20 0)
(0.0128018 20 0)
(0.0127847 20 0)
(0.0127676 20 0)
(0.0127504 20 0)
(0.0127333 20 0)
(0.0127162 20 0)
(0.0126991 20 0)
(0.012682 20 0)
(0.0126648 20 0)
(0.0126477 20 0)
(0.0126306 20 0)
(0.0126135 20 0)
(0.0125964 20 0)
(0.0125793 20 0)
(0.0125621 20 0)
(0.012545 20 0)
(0.0125279 20 0)
(0.0125108 20 0)
(0.0124937 20 0)
(0.0124766 20 0)
(0.0124595 20 0)
(0.0124424 20 0)
(0.0124253 20 0)
(0.0124082 20 0)
(0.0123911 20 0)
(0.012374 20 0)
(0.012357 20 0)
(0.0123399 20 0)
(0.0123228 20 0)
(0.0123057 20 0)
(0.0122886 20 0)
(0.0122715 20 0)
(0.0122544 20 0)
(0.0122374 20 0)
(0.0122203 20 0)
(0.0122032 20 0)
(0.0121861 20 0)
(0.0121691 20 0)
(0.012152 20 0)
(0.0121349 20 0)
(0.0121179 20 0)
(0.0121008 20 0)
(0.0120837 20 0)
(0.0120667 20 0)
(0.0120496 20 0)
(0.0120325 20 0)
(0.0120155 20 0)
(0.0119984 20 0)
(0.0119814 20 0)
(0.0119643 20 0)
(0.0119473 20 0)
(0.0119302 20 0)
(0.0119132 20 0)
(0.0118961 20 0)
(0.0118791 20 0)
(0.011862 20 0)
(0.011845 20 0)
(0.0118279 20 0)
(0.0118109 20 0)
(0.0117939 20 0)
(0.0117768 20 0)
(0.0117598 20 0)
(0.0117428 20 0)
(0.0117257 20 0)
(0.0117087 20 0)
(0.0116917 20 0)
(0.0116747 20 0)
(0.0116576 20 0)
(0.0116406 20 0)
(0.0116236 20 0)
(0.0116066 20 0)
(0.0115896 20 0)
(0.0115726 20 0)
(0.0115555 20 0)
(0.0115385 20 0)
(0.0115215 20 0)
(0.0115045 20 0)
(0.0114875 20 0)
(0.0114705 20 0)
(0.0114535 20 0)
(0.0114365 20 0)
(0.0114195 20 0)
(0.0114025 20 0)
(0.0113855 20 0)
(0.0113685 20 0)
(0.0113515 20 0)
(0.0113345 20 0)
(0.0113175 20 0)
(0.0113005 20 0)
(0.0112836 20 0)
(0.0112666 20 0)
(0.0112496 20 0)
(0.0112326 20 0)
(0.0112156 20 0)
(0.0111987 20 0)
(0.0111817 20 0)
(0.0111647 20 0)
(0.0111477 20 0)
(0.0111308 20 0)
(0.0111138 20 0)
(0.0110968 20 0)
(0.0110799 20 0)
(0.0110629 20 0)
(0.0110459 20 0)
(0.011029 20 0)
(0.011012 20 0)
(0.0109951 20 0)
(0.0109781 20 0)
(0.0109612 20 0)
(0.0109442 20 0)
(0.0109273 20 0)
(0.0109103 20 0)
(0.0108934 20 0)
(0.0108764 20 0)
(0.0108595 20 0)
(0.0108425 20 0)
(0.0108256 20 0)
(0.0108087 20 0)
(0.0107917 20 0)
(0.0107748 20 0)
(0.0107579 20 0)
(0.0107409 20 0)
(0.010724 20 0)
(0.0107071 20 0)
(0.0106902 20 0)
(0.0106732 20 0)
(0.0106563 20 0)
(0.0106394 20 0)
(0.0106225 20 0)
(0.0106055 20 0)
(0.0105886 20 0)
(0.0105717 20 0)
(0.0105548 20 0)
(0.0105379 20 0)
(0.010521 20 0)
(0.0105041 20 0)
(0.0104872 20 0)
(0.0104703 20 0)
(0.0104534 20 0)
(0.0104365 20 0)
(0.0104196 20 0)
(0.0104027 20 0)
(0.0103858 20 0)
(0.0103689 20 0)
(0.010352 20 0)
(0.0103351 20 0)
(0.0103182 20 0)
(0.0103013 20 0)
(0.0102845 20 0)
(0.0102676 20 0)
(0.0102507 20 0)
(0.0102338 20 0)
(0.0102169 20 0)
(0.0102001 20 0)
(0.0101832 20 0)
(0.0101663 20 0)
(0.0101495 20 0)
(0.0101326 20 0)
(0.0101157 20 0)
(0.0100989 20 0)
(0.010082 20 0)
(0.0100651 20 0)
(0.0100483 20 0)
(0.0100314 20 0)
(0.0100146 20 0)
(0.00999771 20 0)
(0.00998085 20 0)
(0.009964 20 0)
(0.00994715 20 0)
(0.00993031 20 0)
(0.00991346 20 0)
(0.00989662 20 0)
(0.00987977 20 0)
(0.00986293 20 0)
(0.00984609 20 0)
(0.00982926 20 0)
(0.00981242 20 0)
(0.00979559 20 0)
(0.00977876 20 0)
(0.00976193 20 0)
(0.0097451 20 0)
(0.00972827 20 0)
(0.00971145 20 0)
(0.00969462 20 0)
(0.0096778 20 0)
(0.00966098 20 0)
(0.00964416 20 0)
(0.00962735 20 0)
(0.00961053 20 0)
(0.00959372 20 0)
(0.00957691 20 0)
(0.0095601 20 0)
(0.00954329 20 0)
(0.00952649 20 0)
(0.00950968 20 0)
(0.00949288 20 0)
(0.00947608 20 0)
(0.00945928 20 0)
(0.00944248 20 0)
(0.00942569 20 0)
(0.00940889 20 0)
(0.0093921 20 0)
(0.00937531 20 0)
(0.00935852 20 0)
(0.00934173 20 0)
(0.00932495 20 0)
(0.00930816 20 0)
(0.00929138 20 0)
(0.0092746 20 0)
(0.00925782 20 0)
(0.00924104 20 0)
(0.00922427 20 0)
(0.00920749 20 0)
(0.00919072 20 0)
(0.00917395 20 0)
(0.00915718 20 0)
(0.00914042 20 0)
(0.00912365 20 0)
(0.00910689 20 0)
(0.00909012 20 0)
(0.00907336 20 0)
(0.00905661 20 0)
(0.00903985 20 0)
(0.00902309 20 0)
(0.00900634 20 0)
(0.00898959 20 0)
(0.00897284 20 0)
(0.00895609 20 0)
(0.00893934 20 0)
(0.0089226 20 0)
(0.00890585 20 0)
(0.00888911 20 0)
(0.00887237 20 0)
(0.00885563 20 0)
(0.00883889 20 0)
(0.00882216 20 0)
(0.00880543 20 0)
(0.00878869 20 0)
(0.00877196 20 0)
(0.00875523 20 0)
(0.00873851 20 0)
(0.00872178 20 0)
(0.00870506 20 0)
(0.00868834 20 0)
(0.00867162 20 0)
(0.0086549 20 0)
(0.00863818 20 0)
(0.00862146 20 0)
(0.00860475 20 0)
(0.00858804 20 0)
(0.00857133 20 0)
(0.00855462 20 0)
(0.00853791 20 0)
(0.0085212 20 0)
(0.0085045 20 0)
(0.0084878 20 0)
(0.0084711 20 0)
(0.0084544 20 0)
(0.0084377 20 0)
(0.008421 20 0)
(0.00840431 20 0)
(0.00838762 20 0)
(0.00837092 20 0)
(0.00835423 20 0)
(0.00833755 20 0)
(0.00832086 20 0)
(0.00830418 20 0)
(0.00828749 20 0)
(0.00827081 20 0)
(0.00825413 20 0)
(0.00823745 20 0)
(0.00822078 20 0)
(0.0082041 20 0)
(0.00818743 20 0)
(0.00817075 20 0)
(0.00815408 20 0)
(0.00813741 20 0)
(0.00812075 20 0)
(0.00810408 20 0)
(0.00808742 20 0)
(0.00807075 20 0)
(0.00805409 20 0)
(0.00803743 20 0)
(0.00802078 20 0)
(0.00800412 20 0)
(0.00798746 20 0)
(0.00797081 20 0)
(0.00795416 20 0)
(0.00793751 20 0)
(0.00792086 20 0)
(0.00790421 20 0)
(0.00788757 20 0)
(0.00787092 20 0)
(0.00785428 20 0)
(0.00783764 20 0)
(0.007821 20 0)
(0.00780436 20 0)
(0.00778773 20 0)
(0.00777109 20 0)
(0.00775446 20 0)
(0.00773783 20 0)
(0.0077212 20 0)
(0.00770457 20 0)
(0.00768794 20 0)
(0.00767132 20 0)
(0.00765469 20 0)
(0.00763807 20 0)
(0.00762145 20 0)
(0.00760483 20 0)
(0.00758821 20 0)
(0.00757159 20 0)
(0.00755498 20 0)
(0.00753836 20 0)
(0.00752175 20 0)
(0.00750514 20 0)
(0.00748853 20 0)
(0.00747192 20 0)
(0.00745532 20 0)
(0.00743871 20 0)
(0.00742211 20 0)
(0.00740551 20 0)
(0.00738891 20 0)
(0.00737231 20 0)
(0.00735571 20 0)
(0.00733912 20 0)
(0.00732252 20 0)
(0.00730593 20 0)
(0.00728934 20 0)
(0.00727275 20 0)
(0.00725616 20 0)
(0.00723957 20 0)
(0.00722298 20 0)
(0.0072064 20 0)
(0.00718982 20 0)
(0.00717324 20 0)
(0.00715666 20 0)
(0.00714008 20 0)
(0.0071235 20 0)
(0.00710692 20 0)
(0.00709035 20 0)
(0.00707378 20 0)
(0.00705721 20 0)
(0.00704064 20 0)
(0.00702407 20 0)
(0.0070075 20 0)
(0.00699093 20 0)
(0.00697437 20 0)
(0.00695781 20 0)
(0.00694124 20 0)
(0.00692468 20 0)
(0.00690812 20 0)
(0.00689157 20 0)
(0.00687501 20 0)
(0.00685846 20 0)
(0.0068419 20 0)
(0.00682535 20 0)
(0.0068088 20 0)
(0.00679225 20 0)
(0.0067757 20 0)
(0.00675915 20 0)
(0.00674261 20 0)
(0.00672607 20 0)
(0.00670952 20 0)
(0.00669298 20 0)
(0.00667644 20 0)
(0.0066599 20 0)
(0.00664337 20 0)
(0.00662683 20 0)
(0.00661029 20 0)
(0.00659376 20 0)
(0.00657723 20 0)
(0.0065607 20 0)
(0.00654417 20 0)
(0.00652764 20 0)
(0.00651111 20 0)
(0.00649459 20 0)
(0.00647806 20 0)
(0.00646154 20 0)
(0.00644502 20 0)
(0.0064285 20 0)
(0.00641198 20 0)
(0.00639546 20 0)
(0.00637895 20 0)
(0.00636243 20 0)
(0.00634592 20 0)
(0.0063294 20 0)
(0.00631289 20 0)
(0.00629638 20 0)
(0.00627987 20 0)
(0.00626337 20 0)
(0.00624686 20 0)
(0.00623036 20 0)
(0.00621385 20 0)
(0.00619735 20 0)
(0.00618085 20 0)
(0.00616435 20 0)
(0.00614785 20 0)
(0.00613135 20 0)
(0.00611485 20 0)
(0.00609836 20 0)
(0.00608186 20 0)
(0.00606537 20 0)
(0.00604888 20 0)
(0.00603239 20 0)
(0.0060159 20 0)
(0.00599941 20 0)
(0.00598293 20 0)
(0.00596644 20 0)
(0.00594996 20 0)
(0.00593347 20 0)
(0.00591699 20 0)
(0.00590051 20 0)
(0.00588403 20 0)
(0.00586755 20 0)
(0.00585107 20 0)
(0.0058346 20 0)
(0.00581812 20 0)
(0.00580165 20 0)
(0.00578518 20 0)
(0.0057687 20 0)
(0.00575223 20 0)
(0.00573576 20 0)
(0.0057193 20 0)
(0.00570283 20 0)
(0.00568636 20 0)
(0.0056699 20 0)
(0.00565343 20 0)
(0.00563697 20 0)
(0.00562051 20 0)
(0.00560405 20 0)
(0.00558759 20 0)
(0.00557113 20 0)
(0.00555467 20 0)
(0.00553822 20 0)
(0.00552176 20 0)
(0.00550531 20 0)
(0.00548886 20 0)
(0.00547241 20 0)
(0.00545595 20 0)
(0.0054395 20 0)
(0.00542306 20 0)
(0.00540661 20 0)
(0.00539016 20 0)
(0.00537372 20 0)
(0.00535727 20 0)
(0.00534083 20 0)
(0.00532439 20 0)
(0.00530795 20 0)
(0.00529151 20 0)
(0.00527507 20 0)
(0.00525863 20 0)
(0.00524219 20 0)
(0.00522576 20 0)
(0.00520932 20 0)
(0.00519289 20 0)
(0.00517645 20 0)
(0.00516002 20 0)
(0.00514359 20 0)
(0.00512716 20 0)
(0.00511073 20 0)
(0.0050943 20 0)
(0.00507788 20 0)
(0.00506145 20 0)
(0.00504503 20 0)
(0.0050286 20 0)
(0.00501218 20 0)
(0.00499576 20 0)
(0.00497934 20 0)
(0.00496292 20 0)
(0.0049465 20 0)
(0.00493008 20 0)
(0.00491366 20 0)
(0.00489724 20 0)
(0.00488083 20 0)
(0.00486441 20 0)
(0.004848 20 0)
(0.00483159 20 0)
(0.00481518 20 0)
(0.00479877 20 0)
(0.00478236 20 0)
(0.00476595 20 0)
(0.00474954 20 0)
(0.00473313 20 0)
(0.00471672 20 0)
(0.00470032 20 0)
(0.00468391 20 0)
(0.00466751 20 0)
(0.00465111 20 0)
(0.00463471 20 0)
(0.0046183 20 0)
(0.0046019 20 0)
(0.00458551 20 0)
(0.00456911 20 0)
(0.00455271 20 0)
(0.00453631 20 0)
(0.00451992 20 0)
(0.00450352 20 0)
(0.00448713 20 0)
(0.00447073 20 0)
(0.00445434 20 0)
(0.00443795 20 0)
(0.00442156 20 0)
(0.00440517 20 0)
(0.00438878 20 0)
(0.00437239 20 0)
(0.004356 20 0)
(0.00433962 20 0)
(0.00432323 20 0)
(0.00430684 20 0)
(0.00429046 20 0)
(0.00427408 20 0)
(0.00425769 20 0)
(0.00424131 20 0)
(0.00422493 20 0)
(0.00420855 20 0)
(0.00419217 20 0)
(0.00417579 20 0)
(0.00415941 20 0)
(0.00414304 20 0)
(0.00412666 20 0)
(0.00411028 20 0)
(0.00409391 20 0)
(0.00407753 20 0)
(0.00406116 20 0)
(0.00404479 20 0)
(0.00402841 20 0)
(0.00401204 20 0)
(0.00399567 20 0)
(0.0039793 20 0)
(0.00396293 20 0)
(0.00394656 20 0)
(0.0039302 20 0)
(0.00391383 20 0)
(0.00389746 20 0)
(0.0038811 20 0)
(0.00386473 20 0)
(0.00384837 20 0)
(0.003832 20 0)
(0.00381564 20 0)
(0.00379928 20 0)
(0.00378292 20 0)
(0.00376656 20 0)
(0.0037502 20 0)
(0.00373384 20 0)
(0.00371748 20 0)
(0.00370112 20 0)
(0.00368476 20 0)
(0.0036684 20 0)
(0.00365205 20 0)
(0.00363569 20 0)
(0.00361934 20 0)
(0.00360298 20 0)
(0.00358663 20 0)
(0.00357028 20 0)
(0.00355393 20 0)
(0.00353757 20 0)
(0.00352122 20 0)
(0.00350487 20 0)
(0.00348852 20 0)
(0.00347217 20 0)
(0.00345583 20 0)
(0.00343948 20 0)
(0.00342313 20 0)
(0.00340678 20 0)
(0.00339044 20 0)
(0.00337409 20 0)
(0.00335775 20 0)
(0.00334141 20 0)
(0.00332506 20 0)
(0.00330872 20 0)
(0.00329238 20 0)
(0.00327604 20 0)
(0.0032597 20 0)
(0.00324336 20 0)
(0.00322702 20 0)
(0.00321068 20 0)
(0.00319434 20 0)
(0.003178 20 0)
(0.00316167 20 0)
(0.00314533 20 0)
(0.003129 20 0)
(0.00311266 20 0)
(0.00309633 20 0)
(0.00307999 20 0)
(0.00306366 20 0)
(0.00304733 20 0)
(0.003031 20 0)
(0.00301467 20 0)
(0.00299834 20 0)
(0.00298201 20 0)
(0.00296568 20 0)
(0.00294935 20 0)
(0.00293302 20 0)
(0.0029167 20 0)
(0.00290037 20 0)
(0.00288405 20 0)
(0.00286772 20 0)
(0.0028514 20 0)
(0.00283508 20 0)
(0.00281875 20 0)
(0.00280243 20 0)
(0.00278611 20 0)
(0.00276979 20 0)
(0.00275347 20 0)
(0.00273716 20 0)
(0.00272084 20 0)
(0.00270452 20 0)
(0.00268821 20 0)
(0.00267189 20 0)
(0.00265558 20 0)
(0.00263927 20 0)
(0.00262296 20 0)
(0.00260665 20 0)
(0.00259034 20 0)
(0.00257403 20 0)
(0.00255772 20 0)
(0.00254141 20 0)
(0.00252511 20 0)
(0.00250881 20 0)
(0.0024925 20 0)
(0.0024762 20 0)
(0.0024599 20 0)
(0.0024436 20 0)
(0.00242731 20 0)
(0.00241101 20 0)
(0.00239472 20 0)
(0.00237843 20 0)
(0.00236214 20 0)
(0.00234585 20 0)
(0.00232956 20 0)
(0.00231328 20 0)
(0.00229699 20 0)
(0.00228071 20 0)
(0.00226444 20 0)
(0.00224816 20 0)
(0.00223189 20 0)
(0.00221562 20 0)
(0.00219935 20 0)
(0.00218309 20 0)
(0.00216683 20 0)
(0.00215057 20 0)
(0.00213432 20 0)
(0.00211807 20 0)
(0.00210183 20 0)
(0.00208559 20 0)
(0.00206936 20 0)
(0.00205313 20 0)
(0.00203691 20 0)
(0.0020207 20 0)
(0.0020045 20 0)
(0.0019883 20 0)
(0.00197212 20 0)
(0.00195595 20 0)
(0.00193979 20 0)
(0.00192365 20 0)
(0.00190753 20 0)
(0.00189142 20 0)
(0.00187535 20 0)
(0.00185931 20 0)
(0.00184331 20 0)
(0.00182736 20 0)
(0.00181148 20 0)
(0.00179569 20 0)
(0.00178003 20 0)
(0.00176455 20 0)
(0.00175088 20 0)
(0.00172934 20 0)
(0.00034343 20.0016 0)
(0.000520528 19.9971 0)
(0.0004348 20.0023 0)
(0.000466035 19.9987 0)
(0.000458271 20.0005 0)
(0.000458477 20 0)
(0.000458016 20 0)
(0.000457566 20 0)
(0.00045712 20 0)
(0.000456676 20 0)
(0.000456234 20 0)
(0.000455793 20 0)
(0.000455353 20 0)
(0.000454913 20 0)
(0.000454474 20 0)
(0.000454034 20 0)
(0.000453595 20 0)
(0.000453156 20 0)
(0.000452717 20 0)
(0.000452277 20 0)
(0.000451838 20 0)
(0.000451399 20 0)
(0.00045096 20 0)
(0.000450521 20 0)
(0.000450082 20 0)
(0.000449643 20 0)
(0.000449204 20 0)
(0.000448765 20 0)
(0.000448326 20 0)
(0.000447887 20 0)
(0.000447448 20 0)
(0.000447009 20 0)
(0.00044657 20 0)
(0.000446131 20 0)
(0.000445692 20 0)
(0.000445253 20 0)
(0.000444814 20 0)
(0.000444375 20 0)
(0.000443936 20 0)
(0.000443498 20 0)
(0.000443059 20 0)
(0.00044262 20 0)
(0.000442181 20 0)
(0.000441742 20 0)
(0.000441303 20 0)
(0.000440865 20 0)
(0.000440426 20 0)
(0.000439987 20 0)
(0.000439548 20 0)
(0.000439109 20 0)
(0.000438671 20 0)
(0.000438232 20 0)
(0.000437794 20 0)
(0.000437355 20 0)
(0.000436916 20 0)
(0.000436478 20 0)
(0.000436039 20 0)
(0.0004356 20 0)
(0.000435162 20 0)
(0.000434723 20 0)
(0.000434285 20 0)
(0.000433846 20 0)
(0.000433408 20 0)
(0.000432969 20 0)
(0.000432531 20 0)
(0.000432092 20 0)
(0.000431654 20 0)
(0.000431215 20 0)
(0.000430777 20 0)
(0.000430339 20 0)
(0.0004299 20 0)
(0.000429462 20 0)
(0.000429024 20 0)
(0.000428585 20 0)
(0.000428147 20 0)
(0.000427709 20 0)
(0.00042727 20 0)
(0.000426832 20 0)
(0.000426394 20 0)
(0.000425956 20 0)
(0.000425518 20 0)
(0.00042508 20 0)
(0.000424641 20 0)
(0.000424203 20 0)
(0.000423765 20 0)
(0.000423327 20 0)
(0.000422889 20 0)
(0.000422451 20 0)
(0.000422013 20 0)
(0.000421575 20 0)
(0.000421137 20 0)
(0.000420699 20 0)
(0.000420261 20 0)
(0.000419823 20 0)
(0.000419385 20 0)
(0.000418947 20 0)
(0.000418509 20 0)
(0.000418071 20 0)
(0.000417633 20 0)
(0.000417195 20 0)
(0.000416757 20 0)
(0.00041632 20 0)
(0.000415882 20 0)
(0.000415444 20 0)
(0.000415006 20 0)
(0.000414568 20 0)
(0.000414131 20 0)
(0.000413693 20 0)
(0.000413255 20 0)
(0.000412818 20 0)
(0.00041238 20 0)
(0.000411942 20 0)
(0.000411504 20 0)
(0.000411067 20 0)
(0.000410629 20 0)
(0.000410192 20 0)
(0.000409754 20 0)
(0.000409317 20 0)
(0.000408879 20 0)
(0.000408442 20 0)
(0.000408004 20 0)
(0.000407567 20 0)
(0.000407129 20 0)
(0.000406692 20 0)
(0.000406254 20 0)
(0.000405817 20 0)
(0.000405379 20 0)
(0.000404942 20 0)
(0.000404505 20 0)
(0.000404067 20 0)
(0.00040363 20 0)
(0.000403193 20 0)
(0.000402755 20 0)
(0.000402318 20 0)
(0.000401881 20 0)
(0.000401443 20 0)
(0.000401006 20 0)
(0.000400569 20 0)
(0.000400132 20 0)
(0.000399694 20 0)
(0.000399257 20 0)
(0.00039882 20 0)
(0.000398383 20 0)
(0.000397946 20 0)
(0.000397509 20 0)
(0.000397072 20 0)
(0.000396635 20 0)
(0.000396198 20 0)
(0.000395761 20 0)
(0.000395323 20 0)
(0.000394886 20 0)
(0.000394449 20 0)
(0.000394012 20 0)
(0.000393575 20 0)
(0.000393138 20 0)
(0.000392701 20 0)
(0.000392265 20 0)
(0.000391828 20 0)
(0.000391391 20 0)
(0.000390954 20 0)
(0.000390517 20 0)
(0.00039008 20 0)
(0.000389643 20 0)
(0.000389207 20 0)
(0.00038877 20 0)
(0.000388333 20 0)
(0.000387896 20 0)
(0.000387459 20 0)
(0.000387023 20 0)
(0.000386586 20 0)
(0.000386149 20 0)
(0.000385713 20 0)
(0.000385276 20 0)
(0.000384839 20 0)
(0.000384403 20 0)
(0.000383966 20 0)
(0.000383529 20 0)
(0.000383093 20 0)
(0.000382656 20 0)
(0.00038222 20 0)
(0.000381783 20 0)
(0.000381346 20 0)
(0.00038091 20 0)
(0.000380473 20 0)
(0.000380037 20 0)
(0.0003796 20 0)
(0.000379164 20 0)
(0.000378728 20 0)
(0.000378291 20 0)
(0.000377855 20 0)
(0.000377418 20 0)
(0.000376982 20 0)
(0.000376546 20 0)
(0.000376109 20 0)
(0.000375673 20 0)
(0.000375237 20 0)
(0.0003748 20 0)
(0.000374364 20 0)
(0.000373928 20 0)
(0.000373491 20 0)
(0.000373055 20 0)
(0.000372619 20 0)
(0.000372183 20 0)
(0.000371746 20 0)
(0.00037131 20 0)
(0.000370874 20 0)
(0.000370438 20 0)
(0.000370002 20 0)
(0.000369566 20 0)
(0.00036913 20 0)
(0.000368693 20 0)
(0.000368257 20 0)
(0.000367821 20 0)
(0.000367385 20 0)
(0.000366949 20 0)
(0.000366513 20 0)
(0.000366077 20 0)
(0.000365641 20 0)
(0.000365205 20 0)
(0.000364769 20 0)
(0.000364333 20 0)
(0.000363897 20 0)
(0.000363461 20 0)
(0.000363025 20 0)
(0.00036259 20 0)
(0.000362154 20 0)
(0.000361718 20 0)
(0.000361282 20 0)
(0.000360846 20 0)
(0.00036041 20 0)
(0.000359974 20 0)
(0.000359539 20 0)
(0.000359103 20 0)
(0.000358667 20 0)
(0.000358231 20 0)
(0.000357796 20 0)
(0.00035736 20 0)
(0.000356924 20 0)
(0.000356488 20 0)
(0.000356053 20 0)
(0.000355617 20 0)
(0.000355181 20 0)
(0.000354746 20 0)
(0.00035431 20 0)
(0.000353875 20 0)
(0.000353439 20 0)
(0.000353003 20 0)
(0.000352568 20 0)
(0.000352132 20 0)
(0.000351697 20 0)
(0.000351261 20 0)
(0.000350825 20 0)
(0.00035039 20 0)
(0.000349954 20 0)
(0.000349519 20 0)
(0.000349084 20 0)
(0.000348648 20 0)
(0.000348213 20 0)
(0.000347777 20 0)
(0.000347342 20 0)
(0.000346906 20 0)
(0.000346471 20 0)
(0.000346036 20 0)
(0.0003456 20 0)
(0.000345165 20 0)
(0.00034473 20 0)
(0.000344294 20 0)
(0.000343859 20 0)
(0.000343424 20 0)
(0.000342989 20 0)
(0.000342553 20 0)
(0.000342118 20 0)
(0.000341683 20 0)
(0.000341247 20 0)
(0.000340812 20 0)
(0.000340377 20 0)
(0.000339942 20 0)
(0.000339507 20 0)
(0.000339072 20 0)
(0.000338636 20 0)
(0.000338201 20 0)
(0.000337766 20 0)
(0.000337331 20 0)
(0.000336896 20 0)
(0.000336461 20 0)
(0.000336026 20 0)
(0.000335591 20 0)
(0.000335156 20 0)
(0.000334721 20 0)
(0.000334286 20 0)
(0.000333851 20 0)
(0.000333416 20 0)
(0.000332981 20 0)
(0.000332546 20 0)
(0.000332111 20 0)
(0.000331676 20 0)
(0.000331241 20 0)
(0.000330806 20 0)
(0.000330371 20 0)
(0.000329936 20 0)
(0.000329501 20 0)
(0.000329066 20 0)
(0.000328632 20 0)
(0.000328197 20 0)
(0.000327762 20 0)
(0.000327327 20 0)
(0.000326892 20 0)
(0.000326458 20 0)
(0.000326023 20 0)
(0.000325588 20 0)
(0.000325153 20 0)
(0.000324719 20 0)
(0.000324284 20 0)
(0.000323849 20 0)
(0.000323415 20 0)
(0.00032298 20 0)
(0.000322545 20 0)
(0.000322111 20 0)
(0.000321676 20 0)
(0.000321241 20 0)
(0.000320807 20 0)
(0.000320372 20 0)
(0.000319937 20 0)
(0.000319503 20 0)
(0.000319068 20 0)
(0.000318634 20 0)
(0.000318199 20 0)
(0.000317765 20 0)
(0.00031733 20 0)
(0.000316896 20 0)
(0.000316461 20 0)
(0.000316027 20 0)
(0.000315592 20 0)
(0.000315158 20 0)
(0.000314723 20 0)
(0.000314289 20 0)
(0.000313855 20 0)
(0.00031342 20 0)
(0.000312986 20 0)
(0.000312551 20 0)
(0.000312117 20 0)
(0.000311683 20 0)
(0.000311248 20 0)
(0.000310814 20 0)
(0.000310379 20 0)
(0.000309945 20 0)
(0.000309511 20 0)
(0.000309076 20 0)
(0.000308642 20 0)
(0.000308208 20 0)
(0.000307774 20 0)
(0.000307339 20 0)
(0.000306905 20 0)
(0.000306471 20 0)
(0.000306037 20 0)
(0.000305603 20 0)
(0.000305168 20 0)
(0.000304734 20 0)
(0.0003043 20 0)
(0.000303866 20 0)
(0.000303432 20 0)
(0.000302998 20 0)
(0.000302564 20 0)
(0.00030213 20 0)
(0.000301695 20 0)
(0.000301261 20 0)
(0.000300827 20 0)
(0.000300393 20 0)
(0.000299959 20 0)
(0.000299525 20 0)
(0.000299091 20 0)
(0.000298657 20 0)
(0.000298223 20 0)
(0.000297789 20 0)
(0.000297355 20 0)
(0.000296921 20 0)
(0.000296487 20 0)
(0.000296053 20 0)
(0.000295619 20 0)
(0.000295185 20 0)
(0.000294751 20 0)
(0.000294318 20 0)
(0.000293884 20 0)
(0.00029345 20 0)
(0.000293016 20 0)
(0.000292582 20 0)
(0.000292148 20 0)
(0.000291714 20 0)
(0.000291281 20 0)
(0.000290847 20 0)
(0.000290413 20 0)
(0.000289979 20 0)
(0.000289545 20 0)
(0.000289112 20 0)
(0.000288678 20 0)
(0.000288244 20 0)
(0.00028781 20 0)
(0.000287377 20 0)
(0.000286943 20 0)
(0.000286509 20 0)
(0.000286075 20 0)
(0.000285642 20 0)
(0.000285208 20 0)
(0.000284774 20 0)
(0.000284341 20 0)
(0.000283907 20 0)
(0.000283474 20 0)
(0.00028304 20 0)
(0.000282606 20 0)
(0.000282173 20 0)
(0.000281739 20 0)
(0.000281306 20 0)
(0.000280872 20 0)
(0.000280438 20 0)
(0.000280005 20 0)
(0.000279571 20 0)
(0.000279138 20 0)
(0.000278704 20 0)
(0.000278271 20 0)
(0.000277837 20 0)
(0.000277404 20 0)
(0.00027697 20 0)
(0.000276537 20 0)
(0.000276103 20 0)
(0.00027567 20 0)
(0.000275236 20 0)
(0.000274803 20 0)
(0.00027437 20 0)
(0.000273936 20 0)
(0.000273503 20 0)
(0.00027307 20 0)
(0.000272636 20 0)
(0.000272203 20 0)
(0.000271769 20 0)
(0.000271336 20 0)
(0.000270903 20 0)
(0.00027047 20 0)
(0.000270036 20 0)
(0.000269603 20 0)
(0.00026917 20 0)
(0.000268736 20 0)
(0.000268303 20 0)
(0.00026787 20 0)
(0.000267437 20 0)
(0.000267003 20 0)
(0.00026657 20 0)
(0.000266137 20 0)
(0.000265704 20 0)
(0.00026527 20 0)
(0.000264837 20 0)
(0.000264404 20 0)
(0.000263971 20 0)
(0.000263538 20 0)
(0.000263105 20 0)
(0.000262671 20 0)
(0.000262238 20 0)
(0.000261805 20 0)
(0.000261372 20 0)
(0.000260939 20 0)
(0.000260506 20 0)
(0.000260073 20 0)
(0.00025964 20 0)
(0.000259207 20 0)
(0.000258774 20 0)
(0.000258341 20 0)
(0.000257908 20 0)
(0.000257475 20 0)
(0.000257042 20 0)
(0.000256609 20 0)
(0.000256176 20 0)
(0.000255743 20 0)
(0.00025531 20 0)
(0.000254877 20 0)
(0.000254444 20 0)
(0.000254011 20 0)
(0.000253578 20 0)
(0.000253145 20 0)
(0.000252712 20 0)
(0.000252279 20 0)
(0.000251846 20 0)
(0.000251413 20 0)
(0.000250981 20 0)
(0.000250548 20 0)
(0.000250115 20 0)
(0.000249682 20 0)
(0.000249249 20 0)
(0.000248816 20 0)
(0.000248384 20 0)
(0.000247951 20 0)
(0.000247518 20 0)
(0.000247085 20 0)
(0.000246652 20 0)
(0.00024622 20 0)
(0.000245787 20 0)
(0.000245354 20 0)
(0.000244921 20 0)
(0.000244488 20 0)
(0.000244056 20 0)
(0.000243623 20 0)
(0.00024319 20 0)
(0.000242757 20 0)
(0.000242325 20 0)
(0.000241892 20 0)
(0.000241459 20 0)
(0.000241027 20 0)
(0.000240594 20 0)
(0.000240161 20 0)
(0.000239729 20 0)
(0.000239296 20 0)
(0.000238863 20 0)
(0.000238431 20 0)
(0.000237998 20 0)
(0.000237565 20 0)
(0.000237133 20 0)
(0.0002367 20 0)
(0.000236268 20 0)
(0.000235835 20 0)
(0.000235402 20 0)
(0.00023497 20 0)
(0.000234537 20 0)
(0.000234105 20 0)
(0.000233672 20 0)
(0.00023324 20 0)
(0.000232807 20 0)
(0.000232375 20 0)
(0.000231942 20 0)
(0.00023151 20 0)
(0.000231077 20 0)
(0.000230645 20 0)
(0.000230213 20 0)
(0.00022978 20 0)
(0.000229348 20 0)
(0.000228915 20 0)
(0.000228483 20 0)
(0.00022805 20 0)
(0.000227618 20 0)
(0.000227186 20 0)
(0.000226753 20 0)
(0.000226321 20 0)
(0.000225889 20 0)
(0.000225456 20 0)
(0.000225024 20 0)
(0.000224592 20 0)
(0.000224159 20 0)
(0.000223727 20 0)
(0.000223295 20 0)
(0.000222862 20 0)
(0.00022243 20 0)
(0.000221998 20 0)
(0.000221566 20 0)
(0.000221133 20 0)
(0.000220701 20 0)
(0.000220269 20 0)
(0.000219837 20 0)
(0.000219404 20 0)
(0.000218972 20 0)
(0.00021854 20 0)
(0.000218108 20 0)
(0.000217676 20 0)
(0.000217243 20 0)
(0.000216811 20 0)
(0.000216379 20 0)
(0.000215947 20 0)
(0.000215515 20 0)
(0.000215083 20 0)
(0.000214651 20 0)
(0.000214218 20 0)
(0.000213786 20 0)
(0.000213354 20 0)
(0.000212922 20 0)
(0.00021249 20 0)
(0.000212058 20 0)
(0.000211626 20 0)
(0.000211194 20 0)
(0.000210762 20 0)
(0.00021033 20 0)
(0.000209898 20 0)
(0.000209466 20 0)
(0.000209034 20 0)
(0.000208602 20 0)
(0.00020817 20 0)
(0.000207738 20 0)
(0.000207306 20 0)
(0.000206874 20 0)
(0.000206442 20 0)
(0.00020601 20 0)
(0.000205578 20 0)
(0.000205146 20 0)
(0.000204714 20 0)
(0.000204282 20 0)
(0.00020385 20 0)
(0.000203418 20 0)
(0.000202986 20 0)
(0.000202554 20 0)
(0.000202123 20 0)
(0.000201691 20 0)
(0.000201259 20 0)
(0.000200827 20 0)
(0.000200395 20 0)
(0.000199963 20 0)
(0.000199531 20 0)
(0.0001991 20 0)
(0.000198668 20 0)
(0.000198236 20 0)
(0.000197804 20 0)
(0.000197372 20 0)
(0.000196941 20 0)
(0.000196509 20 0)
(0.000196077 20 0)
(0.000195645 20 0)
(0.000195213 20 0)
(0.000194782 20 0)
(0.00019435 20 0)
(0.000193918 20 0)
(0.000193486 20 0)
(0.000193055 20 0)
(0.000192623 20 0)