/*--------------------------------*- C++ -*----------------------------------*\
| =========                 |                                                 |
| \\      /  F ield         | OpenFOAM: The Open Source CFD Toolbox           |
|  \\    /   O peration     | Version:  2512                                  |
|   \\  /    A nd           | Website:  www.openfoam.com                      |
|    \\/     M anipulation  |                                                 |
\*---------------------------------------------------------------------------*/
FoamFile
{
    version     2.0;
    format      ascii;
    arch        "LSB;label=32;scalar=64";
    class       volScalarField;
    location    "2e-05";
    object      p;
}
// * * * * * * * * * * * * * * * * * * * * * * * * * * * * * * * * * * * * * //

dimensions      [1 -1 -2 0 0 0 0];

internalField   nonuniform List<scalar> 
100000
(
0
28279.3
-2860.95
40875.5
36489.6
57123.1
78455.5
103463
132131
164461
200450
240100
283408
330375
380999
435281
493219
554813
620061
688963
761519
837726
917585
1.00109e+06
1.08825e+06
1.17906e+06
1.27351e+06
1.37161e+06
1.47335e+06
1.57874e+06
1.68776e+06
1.80043e+06
1.91674e+06
2.03668e+06
2.16026e+06
2.28747e+06
2.41832e+06
2.55279e+06
2.6909e+06
2.83263e+06
2.97799e+06
3.12698e+06
3.27958e+06
3.43581e+06
3.59565e+06
3.75911e+06
3.92618e+06
4.09687e+06
4.27116e+06
4.44907e+06
4.63057e+06
4.81568e+06
5.0044e+06
5.1967e+06
5.39261e+06
5.59211e+06
5.7952e+06
6.00187e+06
6.21213e+06
6.42598e+06
6.6434e+06
6.86441e+06
7.08898e+06
7.31713e+06
7.54885e+06
7.78413e+06
8.02298e+06
8.26539e+06
8.51135e+06
8.76087e+06
9.01393e+06
9.27055e+06
9.53071e+06
9.79441e+06
1.00616e+07
1.03324e+07
1.06067e+07
1.08845e+07
1.11659e+07
1.14508e+07
1.17392e+07
1.20311e+07
1.23265e+07
1.26254e+07
1.29278e+07
1.32337e+07
1.35431e+07
1.3856e+07
1.41724e+07
1.44923e+07
1.48156e+07
1.51425e+07
1.54728e+07
1.58065e+07
1.61437e+07
1.64844e+07
1.68285e+07
1.71761e+07
1.75271e+07
1.78816e+07
1.82395e+07
1.86008e+07
1.89656e+07
1.93338e+07
1.97054e+07
2.00804e+07
2.04588e+07
2.08406e+07
2.12258e+07
2.16144e+07
2.20064e+07
2.24018e+07
2.28006e+07
2.32027e+07
2.36082e+07
2.40171e+07
2.44293e+07
2.48449e+07
2.52638e+07
2.56861e+07
2.61117e+07
2.65406e+07
2.69729e+07
2.74085e+07
2.78474e+07
2.82896e+07
2.87351e+07
2.91839e+07
2.9636e+07
3.00914e+07
3.05501e+07
3.10121e+07
3.14773e+07
3.19458e+07
3.24176e+07
3.28926e+07
3.33708e+07
3.38523e+07
3.43371e+07
3.4825e+07
3.53162e+07
3.58106e+07
3.63082e+07
3.68091e+07
3.73131e+07
3.78203e+07
3.83307e+07
3.88443e+07
3.9361e+07
3.98809e+07
4.0404e+07
4.09302e+07
4.14596e+07
4.19921e+07
4.25278e+07
4.30666e+07
4.36085e+07
4.41535e+07
4.47016e+07
4.52529e+07
4.58072e+07
4.63646e+07
4.69251e+07
4.74886e+07
4.80553e+07
4.86249e+07
4.91977e+07
4.97735e+07
5.03523e+07
5.09341e+07
5.1519e+07
5.21069e+07
5.26978e+07
5.32917e+07
5.38886e+07
5.44885e+07
5.50914e+07
5.56972e+07
5.6306e+07
5.69178e+07
5.75325e+07
5.81502e+07
5.87708e+07
5.93943e+07
6.00207e+07
6.06501e+07
6.12823e+07
6.19175e+07
6.25555e+07
6.31964e+07
6.38402e+07
6.44869e+07
6.51364e+07
6.57888e+07
6.6444e+07
6.7102e+07
6.77629e+07
6.84266e+07
6.90931e+07
6.97624e+07
7.04344e+07
7.11093e+07
7.1787e+07
7.24674e+07
7.31506e+07
7.38365e+07
7.45252e+07
7.52166e+07
7.59107e+07
7.66076e+07
7.73071e+07
7.80094e+07
7.87143e+07
7.9422e+07
8.01323e+07
8.08453e+07
8.15609e+07
8.22792e+07
8.30001e+07
8.37237e+07
8.44499e+07
8.51787e+07
8.59101e+07
8.66441e+07
8.73807e+07
8.81199e+07
8.88616e+07
8.96059e+07
9.03528e+07
9.11022e+07
9.18541e+07
9.26086e+07
9.33656e+07
9.41251e+07
9.4887e+07
9.56515e+07
9.64185e+07
9.71879e+07
9.79598e+07
9.87341e+07
9.95109e+07
1.0029e+08
1.01072e+08
1.01856e+08
1.02642e+08
1.03431e+08
1.04222e+08
1.05016e+08
1.05812e+08
1.0661e+08
1.07411e+08
1.08214e+08
1.09019e+08
1.09827e+08
1.10637e+08
1.11449e+08
1.12264e+08
1.13081e+08
1.139e+08
1.14721e+08
1.15545e+08
1.16371e+08
1.17199e+08
1.1803e+08
1.18862e+08
1.19697e+08
1.20534e+08
1.21373e+08
1.22214e+08
1.23058e+08
1.23904e+08
1.24751e+08
1.25601e+08
1.26453e+08
1.27307e+08
1.28164e+08
1.29022e+08
1.29883e+08
1.30745e+08
1.3161e+08
1.32476e+08
1.33345e+08
1.34216e+08
1.35089e+08
1.35963e+08
1.3684e+08
1.37719e+08
1.386e+08
1.39482e+08
1.40367e+08
1.41254e+08
1.42142e+08
1.43033e+08
1.43925e+08
1.44819e+08
1.45716e+08
1.46614e+08
1.47514e+08
1.48416e+08
1.49319e+08
1.50225e+08
1.51132e+08
1.52042e+08
1.52953e+08
1.53866e+08
1.5478e+08
1.55697e+08
1.56615e+08
1.57535e+08
1.58457e+08
1.5938e+08
1.60305e+08
1.61232e+08
1.62161e+08
1.63091e+08
1.64023e+08
1.64957e+08
1.65892e+08
1.66829e+08
1.67768e+08
1.68708e+08
1.6965e+08
1.70594e+08
1.71539e+08
1.72486e+08
1.73434e+08
1.74384e+08
1.75336e+08
1.76289e+08
1.77243e+08
1.78199e+08
1.79157e+08
1.80116e+08
1.81077e+08
1.82039e+08
1.83002e+08
1.83967e+08
1.84934e+08
1.85902e+08
1.86871e+08
1.87842e+08
1.88814e+08
1.89788e+08
1.90763e+08
1.91739e+08
1.92717e+08
1.93696e+08
1.94676e+08
1.95658e+08
1.96641e+08
1.97626e+08
1.98611e+08
1.99598e+08
2.00587e+08
2.01576e+08
2.02567e+08
2.03559e+08
2.04552e+08
2.05547e+08
2.06542e+08
2.07539e+08
2.08537e+08
2.09537e+08
2.10537e+08
2.11539e+08
2.12541e+08
2.13545e+08
2.1455e+08
2.15556e+08
2.16563e+08
2.17572e+08
2.18581e+08
2.19591e+08
2.20603e+08
2.21616e+08
2.22629e+08
2.23644e+08
2.24659e+08
2.25676e+08
2.26693e+08
2.27712e+08
2.28732e+08
2.29752e+08
2.30774e+08
2.31796e+08
2.32819e+08
2.33843e+08
2.34869e+08
2.35895e+08
2.36922e+08
2.37949e+08
2.38978e+08
2.40007e+08
2.41038e+08
2.42069e+08
2.43101e+08
2.44133e+08
2.45167e+08
2.46201e+08
2.47236e+08
2.48272e+08
2.49309e+08
2.50346e+08
2.51384e+08
2.52423e+08
2.53462e+08
2.54502e+08
2.55543e+08
2.56585e+08
2.57627e+08
2.5867e+08
2.59713e+08
2.60757e+08
2.61802e+08
2.62847e+08
2.63893e+08
2.64939e+08
2.65986e+08
2.67034e+08
2.68082e+08
2.69131e+08
2.7018e+08
2.71229e+08
2.7228e+08
2.7333e+08
2.74381e+08
2.75433e+08
2.76485e+08
2.77538e+08
2.78591e+08
2.79644e+08
2.80698e+08
2.81752e+08
2.82807e+08
2.83861e+08
2.84917e+08
2.85973e+08
2.87029e+08
2.88085e+08
2.89142e+08
2.90199e+08
2.91256e+08
2.92314e+08
2.93372e+08
2.9443e+08
2.95488e+08
2.96547e+08
2.97606e+08
2.98665e+08
2.99724e+08
3.00784e+08
3.01844e+08
3.02904e+08
3.03964e+08
3.05024e+08
3.06085e+08
3.07145e+08
3.08206e+08
3.09267e+08
3.10328e+08
3.11389e+08
3.1245e+08
3.13511e+08
3.14573e+08
3.15634e+08
3.16695e+08
3.17757e+08
3.18818e+08
3.1988e+08
3.20941e+08
3.22003e+08
3.23064e+08
3.24125e+08
3.25187e+08
3.26248e+08
3.27309e+08
3.2837e+08
3.29432e+08
3.30493e+08
3.31553e+08
3.32614e+08
3.33675e+08
3.34735e+08
3.35796e+08
3.36856e+08
3.37916e+08
3.38976e+08
3.40036e+08
3.41095e+08
3.42154e+08
3.43214e+08
3.44272e+08
3.45331e+08
3.46389e+08
3.47447e+08
3.48505e+08
3.49563e+08
3.5062e+08
3.51677e+08
3.52733e+08
3.5379e+08
3.54846e+08
3.55901e+08
3.56957e+08
3.58012e+08
3.59066e+08
3.6012e+08
3.61174e+08
3.62227e+08
3.6328e+08
3.64333e+08
3.65385e+08
3.66436e+08
3.67488e+08
3.68538e+08
3.69588e+08
3.70638e+08
3.71687e+08
3.72736e+08
3.73784e+08
3.74832e+08
3.75879e+08
3.76926e+08
3.77972e+08
3.79017e+08
3.80062e+08
3.81107e+08
3.8215e+08
3.83194e+08
3.84236e+08
3.85278e+08
3.86319e+08
3.8736e+08
3.884e+08
3.89439e+08
3.90478e+08
3.91516e+08
3.92553e+08
3.93589e+08
3.94625e+08
3.9566e+08
3.96695e+08
3.97728e+08
3.98761e+08
3.99793e+08
4.00825e+08
4.01855e+08
4.02885e+08
4.03914e+08
4.04942e+08
4.0597e+08
4.06996e+08
4.08022e+08
4.09047e+08
4.10071e+08
4.11094e+08
4.12116e+08
4.13137e+08
4.14158e+08
4.15178e+08
4.16196e+08
4.17214e+08
4.18231e+08
4.19247e+08
4.20262e+08
4.21276e+08
4.22289e+08
4.23301e+08
4.24312e+08
4.25322e+08
4.26331e+08
4.27339e+08
4.28346e+08
4.29352e+08
4.30357e+08
4.31361e+08
4.32363e+08
4.33365e+08
4.34366e+08
4.35365e+08
4.36364e+08
4.37361e+08
4.38358e+08
4.39353e+08
4.40347e+08
4.4134e+08
4.42332e+08
4.43322e+08
4.44312e+08
4.453e+08
4.46287e+08
4.47273e+08
4.48258e+08
4.49241e+08
4.50224e+08
4.51205e+08
4.52184e+08
4.53163e+08
4.5414e+08
4.55117e+08
4.56091e+08
4.57065e+08
4.58037e+08
4.59008e+08
4.59978e+08
4.60946e+08
4.61913e+08
4.62879e+08
4.63843e+08
4.64806e+08
4.65768e+08
4.66728e+08
4.67687e+08
4.68645e+08
4.69601e+08
4.70556e+08
4.7151e+08
4.72462e+08
4.73412e+08
4.74361e+08
4.75309e+08
4.76255e+08
4.772e+08
4.78144e+08
4.79086e+08
4.80026e+08
4.80965e+08
4.81903e+08
4.82839e+08
4.83773e+08
4.84706e+08
4.85638e+08
4.86568e+08
4.87496e+08
4.88423e+08
4.89348e+08
4.90272e+08
4.91194e+08
4.92115e+08
4.93034e+08
4.93952e+08
4.94867e+08
4.95782e+08
4.96694e+08
4.97606e+08
4.98515e+08
4.99423e+08
5.00329e+08
5.01233e+08
5.02136e+08
5.03038e+08
5.03937e+08
5.04835e+08
5.05731e+08
5.06626e+08
5.07518e+08
5.08409e+08
5.09299e+08
5.10186e+08
5.11072e+08
5.11957e+08
5.12839e+08
5.1372e+08
5.14599e+08
5.15476e+08
5.16351e+08
5.17225e+08
5.18097e+08
5.18967e+08
5.19835e+08
5.20702e+08
5.21566e+08
5.22429e+08
5.2329e+08
5.24149e+08
5.25007e+08
5.25862e+08
5.26716e+08
5.27568e+08
5.28417e+08
5.29266e+08
5.30112e+08
5.30956e+08
5.31798e+08
5.32639e+08
5.33478e+08
5.34314e+08
5.35149e+08
5.35982e+08
5.36813e+08
5.37642e+08
5.38469e+08
5.39294e+08
5.40117e+08
5.40938e+08
5.41757e+08
5.42575e+08
5.4339e+08
5.44203e+08
5.45014e+08
5.45824e+08
5.46631e+08
5.47436e+08
5.4824e+08
5.49041e+08
5.4984e+08
5.50637e+08
5.51432e+08
5.52225e+08
5.53016e+08
5.53805e+08
5.54592e+08
5.55377e+08
5.5616e+08
5.5694e+08
5.57719e+08
5.58495e+08
5.5927e+08
5.60042e+08
5.60812e+08
5.6158e+08
5.62346e+08
5.6311e+08
5.63872e+08
5.64631e+08
5.65388e+08
5.66144e+08
5.66897e+08
5.67648e+08
5.68396e+08
5.69143e+08
5.69887e+08
5.70629e+08
5.71369e+08
5.72107e+08
5.72843e+08
5.73576e+08
5.74307e+08
5.75036e+08
5.75763e+08
5.76488e+08
5.7721e+08
5.7793e+08
5.78648e+08
5.79363e+08
5.80077e+08
5.80788e+08
5.81497e+08
5.82203e+08
5.82907e+08
5.83609e+08
5.84309e+08
5.85007e+08
5.85702e+08
5.86394e+08
5.87085e+08
5.87773e+08
5.88459e+08
5.89143e+08
5.89824e+08
5.90503e+08
5.91179e+08
5.91854e+08
5.92526e+08
5.93195e+08
5.93862e+08
5.94527e+08
5.9519e+08
5.9585e+08
5.96508e+08
5.97163e+08
5.97816e+08
5.98467e+08
5.99115e+08
5.99761e+08
6.00404e+08
6.01046e+08
6.01684e+08
6.0232e+08
6.02954e+08
6.03586e+08
6.04215e+08
6.04841e+08
6.05466e+08
6.06087e+08
6.06707e+08
6.07323e+08
6.07938e+08
6.0855e+08
6.09159e+08
6.09766e+08
6.10371e+08
6.10973e+08
6.11573e+08
6.1217e+08
6.12764e+08
6.13357e+08
6.13946e+08
6.14534e+08
6.15118e+08
6.15701e+08
6.1628e+08
6.16858e+08
6.17432e+08
6.18004e+08
6.18574e+08
6.19141e+08
6.19706e+08
6.20268e+08
6.20828e+08
6.21385e+08
6.21939e+08
6.22491e+08
6.23041e+08
6.23587e+08
6.24132e+08
6.24673e+08
6.25213e+08
6.25749e+08
6.26283e+08
6.26815e+08
6.27344e+08
6.2787e+08
6.28394e+08
6.28915e+08
6.29434e+08
6.2995e+08
6.30463e+08
6.30974e+08
6.31482e+08
6.31988e+08
6.32491e+08
6.32991e+08
6.33489e+08
6.33984e+08
6.34476e+08
6.34966e+08
6.35454e+08
6.35938e+08
6.3642e+08
6.369e+08
6.37376e+08
6.3785e+08
6.38322e+08
6.38791e+08
6.39257e+08
6.3972e+08
6.40181e+08
6.4064e+08
6.41095e+08
6.41548e+08
6.41998e+08
6.42446e+08
6.42891e+08
6.43333e+08
6.43772e+08
6.44209e+08
6.44643e+08
6.45075e+08
6.45504e+08
6.4593e+08
6.46353e+08
6.46774e+08
6.47192e+08
6.47607e+08
6.4802e+08
6.4843e+08
6.48837e+08
6.49241e+08
6.49643e+08
6.50042e+08
6.50439e+08
6.50832e+08
6.51223e+08
6.51611e+08
6.51997e+08
6.52379e+08
6.52759e+08
6.53137e+08
6.53511e+08
6.53883e+08
6.54252e+08
6.54618e+08
6.54982e+08
6.55343e+08
6.55701e+08
6.56056e+08
6.56409e+08
6.56759e+08
6.57106e+08
6.5745e+08
6.57792e+08
6.5813e+08
6.58466e+08
6.588e+08
6.5913e+08
6.59458e+08
6.59783e+08
6.60105e+08
6.60424e+08
6.60741e+08
6.61055e+08
6.61366e+08
6.61674e+08
6.6198e+08
6.62283e+08
6.62583e+08
6.6288e+08
6.63174e+08
6.63466e+08
6.63755e+08
6.64041e+08
6.64324e+08
6.64604e+08
6.64882e+08
6.65157e+08
6.65429e+08
6.65698e+08
6.65964e+08
6.66228e+08
6.66489e+08
6.66747e+08
6.67002e+08
6.67254e+08
6.67504e+08
6.6775e+08
6.67994e+08
6.68235e+08
6.68474e+08
6.68709e+08
6.68942e+08
6.69172e+08
6.69399e+08
6.69623e+08
6.69844e+08
6.70063e+08
6.70279e+08
6.70491e+08
6.70702e+08
6.70909e+08
6.71113e+08
6.71315e+08
6.71514e+08
6.71709e+08
6.71903e+08
6.72093e+08
6.7228e+08
6.72465e+08
6.72647e+08
6.72825e+08
6.73002e+08
6.73175e+08
6.73345e+08
6.73513e+08
6.73677e+08
6.73839e+08
6.73998e+08
6.74154e+08
6.74308e+08
6.74458e+08
6.74606e+08
6.74751e+08
6.74893e+08
6.75032e+08
6.75168e+08
6.75301e+08
6.75432e+08
6.7556e+08
6.75685e+08
6.75807e+08
6.75926e+08
6.76042e+08
6.76156e+08
6.76266e+08
6.76374e+08
6.76479e+08
6.76581e+08
6.7668e+08
6.76776e+08
6.7687e+08
6.76961e+08
6.77048e+08
6.77133e+08
6.77215e+08
6.77295e+08
6.77371e+08
6.77444e+08
6.77515e+08
6.77583e+08
6.77648e+08
6.7771e+08
6.77769e+08
6.77826e+08
6.77879e+08
6.7793e+08
6.77978e+08
6.78023e+08
6.78065e+08
6.78105e+08
6.78141e+08
-1798.79
27118.4
-3971.55
39758.7
35375.3
56006.2
77338.3
102345
131014
163344
199333
238983
282291
329258
379883
434165
492103
553697
618946
687848
760404
836612
916471
999980
1.08714e+06
1.17794e+06
1.2724e+06
1.3705e+06
1.47224e+06
1.57762e+06
1.68665e+06
1.79932e+06
1.91563e+06
2.03557e+06
2.15915e+06
2.28636e+06
2.41721e+06
2.55169e+06
2.68979e+06
2.83153e+06
2.97689e+06
3.12587e+06
3.27848e+06
3.43471e+06
3.59455e+06
3.75801e+06
3.92508e+06
4.09577e+06
4.27007e+06
4.44797e+06
4.62948e+06
4.81459e+06
5.0033e+06
5.19561e+06
5.39151e+06
5.59101e+06
5.7941e+06
6.00078e+06
6.21104e+06
6.42489e+06
6.64232e+06
6.86332e+06
7.0879e+06
7.31605e+06
7.54776e+06
7.78305e+06
8.0219e+06
8.2643e+06
8.51027e+06
8.75979e+06
9.01285e+06
9.26947e+06
9.52963e+06
9.79333e+06
1.00606e+07
1.03313e+07
1.06056e+07
1.08835e+07
1.11648e+07
1.14497e+07
1.17381e+07
1.203e+07
1.23254e+07
1.26243e+07
1.29267e+07
1.32327e+07
1.35421e+07
1.3855e+07
1.41714e+07
1.44912e+07
1.48146e+07
1.51414e+07
1.54717e+07
1.58055e+07
1.61427e+07
1.64834e+07
1.68275e+07
1.71751e+07
1.75261e+07
1.78806e+07
1.82385e+07
1.85998e+07
1.89646e+07
1.93327e+07
1.97043e+07
2.00793e+07
2.04578e+07
2.08396e+07
2.12248e+07
2.16134e+07
2.20054e+07
2.24008e+07
2.27995e+07
2.32017e+07
2.36072e+07
2.40161e+07
2.44283e+07
2.48439e+07
2.52628e+07
2.56851e+07
2.61107e+07
2.65396e+07
2.69719e+07
2.74075e+07
2.78464e+07
2.82886e+07
2.87341e+07
2.91829e+07
2.96351e+07
3.00905e+07
3.05491e+07
3.10111e+07
3.14763e+07
3.19448e+07
3.24166e+07
3.28916e+07
3.33699e+07
3.38514e+07
3.43361e+07
3.48241e+07
3.53153e+07
3.58097e+07
3.63073e+07
3.68081e+07
3.73121e+07
3.78193e+07
3.83297e+07
3.88433e+07
3.93601e+07
3.988e+07
4.04031e+07
4.09293e+07
4.14587e+07
4.19912e+07
4.25269e+07
4.30656e+07
4.36076e+07
4.41526e+07
4.47007e+07
4.52519e+07
4.58063e+07
4.63637e+07
4.69242e+07
4.74877e+07
4.80543e+07
4.8624e+07
4.91968e+07
4.97726e+07
5.03514e+07
5.09332e+07
5.15181e+07
5.2106e+07
5.26969e+07
5.32908e+07
5.38877e+07
5.44876e+07
5.50905e+07
5.56963e+07
5.63052e+07
5.69169e+07
5.75316e+07
5.81493e+07
5.87699e+07
5.93934e+07
6.00198e+07
6.06492e+07
6.12815e+07
6.19166e+07
6.25547e+07
6.31956e+07
6.38394e+07
6.4486e+07
6.51356e+07
6.57879e+07
6.64431e+07
6.71012e+07
6.77621e+07
6.84257e+07
6.90922e+07
6.97615e+07
7.04336e+07
7.11085e+07
7.17862e+07
7.24666e+07
7.31498e+07
7.38357e+07
7.45244e+07
7.52158e+07
7.59099e+07
7.66068e+07
7.73063e+07
7.80086e+07
7.87136e+07
7.94212e+07
8.01315e+07
8.08445e+07
8.15601e+07
8.22784e+07
8.29994e+07
8.37229e+07
8.44491e+07
8.51779e+07
8.59093e+07
8.66434e+07
8.738e+07
8.81191e+07
8.88609e+07
8.96052e+07
9.03521e+07
9.11015e+07
9.18534e+07
9.26079e+07
9.33648e+07
9.41243e+07
9.48863e+07
9.56508e+07
9.64178e+07
9.71872e+07
9.79591e+07
9.87334e+07
9.95102e+07
1.00289e+08
1.01071e+08
1.01855e+08
1.02642e+08
1.0343e+08
1.04222e+08
1.05015e+08
1.05811e+08
1.0661e+08
1.0741e+08
1.08213e+08
1.09019e+08
1.09826e+08
1.10636e+08
1.11449e+08
1.12263e+08
1.1308e+08
1.13899e+08
1.14721e+08
1.15544e+08
1.1637e+08
1.17199e+08
1.18029e+08
1.18861e+08
1.19696e+08
1.20533e+08
1.21372e+08
1.22214e+08
1.23057e+08
1.23903e+08
1.24751e+08
1.25601e+08
1.26453e+08
1.27307e+08
1.28163e+08
1.29022e+08
1.29882e+08
1.30745e+08
1.31609e+08
1.32476e+08
1.33344e+08
1.34215e+08
1.35088e+08
1.35963e+08
1.36839e+08
1.37718e+08
1.38599e+08
1.39482e+08
1.40366e+08
1.41253e+08
1.42142e+08
1.43032e+08
1.43925e+08
1.44819e+08
1.45715e+08
1.46613e+08
1.47513e+08
1.48415e+08
1.49319e+08
1.50224e+08
1.51132e+08
1.52041e+08
1.52952e+08
1.53865e+08
1.5478e+08
1.55696e+08
1.56614e+08
1.57534e+08
1.58456e+08
1.5938e+08
1.60305e+08
1.61232e+08
1.6216e+08
1.63091e+08
1.64023e+08
1.64957e+08
1.65892e+08
1.66829e+08
1.67768e+08
1.68708e+08
1.6965e+08
1.70593e+08
1.71539e+08
1.72485e+08
1.73434e+08
1.74384e+08
1.75335e+08
1.76288e+08
1.77243e+08
1.78199e+08
1.79157e+08
1.80116e+08
1.81076e+08
1.82038e+08
1.83002e+08
1.83967e+08
1.84934e+08
1.85901e+08
1.86871e+08
1.87842e+08
1.88814e+08
1.89787e+08
1.90762e+08
1.91739e+08
1.92717e+08
1.93696e+08
1.94676e+08
1.95658e+08
1.96641e+08
1.97625e+08
1.98611e+08
1.99598e+08
2.00586e+08
2.01576e+08
2.02567e+08
2.03559e+08
2.04552e+08
2.05546e+08
2.06542e+08
2.07539e+08
2.08537e+08
2.09536e+08
2.10537e+08
2.11538e+08
2.12541e+08
2.13545e+08
2.1455e+08
2.15556e+08
2.16563e+08
2.17571e+08
2.18581e+08
2.19591e+08
2.20603e+08
2.21615e+08
2.22629e+08
2.23643e+08
2.24659e+08
2.25676e+08
2.26693e+08
2.27712e+08
2.28731e+08
2.29752e+08
2.30773e+08
2.31796e+08
2.32819e+08
2.33843e+08
2.34868e+08
2.35894e+08
2.36921e+08
2.37949e+08
2.38978e+08
2.40007e+08
2.41037e+08
2.42069e+08
2.43101e+08
2.44133e+08
2.45167e+08
2.46201e+08
2.47236e+08
2.48272e+08
2.49309e+08
2.50346e+08
2.51384e+08
2.52423e+08
2.53462e+08
2.54502e+08
2.55543e+08
2.56585e+08
2.57627e+08
2.58669e+08
2.59713e+08
2.60757e+08
2.61802e+08
2.62847e+08
2.63893e+08
2.64939e+08
2.65986e+08
2.67034e+08
2.68082e+08
2.6913e+08
2.7018e+08
2.71229e+08
2.72279e+08
2.7333e+08
2.74381e+08
2.75433e+08
2.76485e+08
2.77538e+08
2.7859e+08
2.79644e+08
2.80698e+08
2.81752e+08
2.82806e+08
2.83861e+08
2.84917e+08
2.85973e+08
2.87029e+08
2.88085e+08
2.89142e+08
2.90199e+08
2.91256e+08
2.92314e+08
2.93372e+08
2.9443e+08
2.95488e+08
2.96547e+08
2.97606e+08
2.98665e+08
2.99724e+08
3.00784e+08
3.01844e+08
3.02904e+08
3.03964e+08
3.05024e+08
3.06085e+08
3.07145e+08
3.08206e+08
3.09267e+08
3.10328e+08
3.11389e+08
3.1245e+08
3.13511e+08
3.14573e+08
3.15634e+08
3.16695e+08
3.17757e+08
3.18818e+08
3.1988e+08
3.20941e+08
3.22003e+08
3.23064e+08
3.24125e+08
3.25187e+08
3.26248e+08
3.27309e+08
3.28371e+08
3.29432e+08
3.30493e+08
3.31554e+08
3.32614e+08
3.33675e+08
3.34736e+08
3.35796e+08
3.36856e+08
3.37916e+08
3.38976e+08
3.40036e+08
3.41095e+08
3.42155e+08
3.43214e+08
3.44272e+08
3.45331e+08
3.46389e+08
3.47448e+08
3.48505e+08
3.49563e+08
3.5062e+08
3.51677e+08
3.52734e+08
3.5379e+08
3.54846e+08
3.55902e+08
3.56957e+08
3.58012e+08
3.59066e+08
3.6012e+08
3.61174e+08
3.62227e+08
3.6328e+08
3.64333e+08
3.65385e+08
3.66437e+08
3.67488e+08
3.68538e+08
3.69589e+08
3.70638e+08
3.71688e+08
3.72736e+08
3.73785e+08
3.74832e+08
3.7588e+08
3.76926e+08
3.77972e+08
3.79018e+08
3.80063e+08
3.81107e+08
3.82151e+08
3.83194e+08
3.84236e+08
3.85278e+08
3.86319e+08
3.8736e+08
3.884e+08
3.89439e+08
3.90478e+08
3.91516e+08
3.92553e+08
3.9359e+08
3.94626e+08
3.95661e+08
3.96695e+08
3.97729e+08
3.98762e+08
3.99794e+08
4.00825e+08
4.01856e+08
4.02885e+08
4.03914e+08
4.04943e+08
4.0597e+08
4.06996e+08
4.08022e+08
4.09047e+08
4.10071e+08
4.11094e+08
4.12116e+08
4.13138e+08
4.14158e+08
4.15178e+08
4.16197e+08
4.17214e+08
4.18231e+08
4.19247e+08
4.20262e+08
4.21276e+08
4.22289e+08
4.23301e+08
4.24312e+08
4.25322e+08
4.26331e+08
4.27339e+08
4.28346e+08
4.29352e+08
4.30357e+08
4.31361e+08
4.32364e+08
4.33366e+08
4.34366e+08
4.35366e+08
4.36364e+08
4.37362e+08
4.38358e+08
4.39353e+08
4.40347e+08
4.4134e+08
4.42332e+08
4.43323e+08
4.44312e+08
4.453e+08
4.46288e+08
4.47274e+08
4.48258e+08
4.49242e+08
4.50224e+08
4.51205e+08
4.52185e+08
4.53164e+08
4.54141e+08
4.55117e+08
4.56092e+08
4.57065e+08
4.58038e+08
4.59009e+08
4.59978e+08
4.60947e+08
4.61914e+08
4.6288e+08
4.63844e+08
4.64807e+08
4.65769e+08
4.66729e+08
4.67688e+08
4.68646e+08
4.69602e+08
4.70557e+08
4.7151e+08
4.72462e+08
4.73413e+08
4.74362e+08
4.7531e+08
4.76256e+08
4.77201e+08
4.78144e+08
4.79086e+08
4.80027e+08
4.80966e+08
4.81903e+08
4.82839e+08
4.83774e+08
4.84707e+08
4.85638e+08
4.86568e+08
4.87497e+08
4.88424e+08
4.89349e+08
4.90273e+08
4.91195e+08
4.92116e+08
4.93035e+08
4.93952e+08
4.94868e+08
4.95782e+08
4.96695e+08
4.97606e+08
4.98516e+08
4.99423e+08
5.0033e+08
5.01234e+08
5.02137e+08
5.03038e+08
5.03938e+08
5.04836e+08
5.05732e+08
5.06626e+08
5.07519e+08
5.0841e+08
5.09299e+08
5.10187e+08
5.11073e+08
5.11957e+08
5.1284e+08
5.1372e+08
5.14599e+08
5.15476e+08
5.16352e+08
5.17226e+08
5.18097e+08
5.18967e+08
5.19836e+08
5.20702e+08
5.21567e+08
5.2243e+08
5.23291e+08
5.2415e+08
5.25007e+08
5.25863e+08
5.26716e+08
5.27568e+08
5.28418e+08
5.29266e+08
5.30112e+08
5.30957e+08
5.31799e+08
5.3264e+08
5.33478e+08
5.34315e+08
5.3515e+08
5.35983e+08
5.36813e+08
5.37642e+08
5.3847e+08
5.39295e+08
5.40118e+08
5.40939e+08
5.41758e+08
5.42575e+08
5.43391e+08
5.44204e+08
5.45015e+08
5.45824e+08
5.46632e+08
5.47437e+08
5.4824e+08
5.49041e+08
5.49841e+08
5.50638e+08
5.51433e+08
5.52226e+08
5.53017e+08
5.53806e+08
5.54593e+08
5.55378e+08
5.5616e+08
5.56941e+08
5.5772e+08
5.58496e+08
5.59271e+08
5.60043e+08
5.60813e+08
5.61581e+08
5.62347e+08
5.63111e+08
5.63872e+08
5.64632e+08
5.65389e+08
5.66144e+08
5.66898e+08
5.67648e+08
5.68397e+08
5.69144e+08
5.69888e+08
5.7063e+08
5.7137e+08
5.72108e+08
5.72844e+08
5.73577e+08
5.74308e+08
5.75037e+08
5.75764e+08
5.76489e+08
5.77211e+08
5.77931e+08
5.78649e+08
5.79364e+08
5.80078e+08
5.80789e+08
5.81497e+08
5.82204e+08
5.82908e+08
5.8361e+08
5.8431e+08
5.85007e+08
5.85702e+08
5.86395e+08
5.87086e+08
5.87774e+08
5.8846e+08
5.89143e+08
5.89825e+08
5.90504e+08
5.9118e+08
5.91855e+08
5.92526e+08
5.93196e+08
5.93863e+08
5.94528e+08
5.95191e+08
5.95851e+08
5.96509e+08
5.97164e+08
5.97817e+08
5.98468e+08
5.99116e+08
5.99762e+08
6.00405e+08
6.01046e+08
6.01685e+08
6.02321e+08
6.02955e+08
6.03587e+08
6.04216e+08
6.04842e+08
6.05466e+08
6.06088e+08
6.06707e+08
6.07324e+08
6.07939e+08
6.08551e+08
6.0916e+08
6.09767e+08
6.10372e+08
6.10974e+08
6.11574e+08
6.12171e+08
6.12765e+08
6.13358e+08
6.13947e+08
6.14535e+08
6.15119e+08
6.15701e+08
6.16281e+08
6.16858e+08
6.17433e+08
6.18005e+08
6.18575e+08
6.19142e+08
6.19707e+08
6.20269e+08
6.20829e+08
6.21386e+08
6.2194e+08
6.22492e+08
6.23041e+08
6.23588e+08
6.24133e+08
6.24674e+08
6.25214e+08
6.2575e+08
6.26284e+08
6.26816e+08
6.27345e+08
6.27871e+08
6.28395e+08
6.28916e+08
6.29434e+08
6.2995e+08
6.30464e+08
6.30975e+08
6.31483e+08
6.31988e+08
6.32491e+08
6.32992e+08
6.3349e+08
6.33985e+08
6.34477e+08
6.34967e+08
6.35454e+08
6.35939e+08
6.36421e+08
6.36901e+08
6.37377e+08
6.37851e+08
6.38323e+08
6.38792e+08
6.39258e+08
6.39721e+08
6.40182e+08
6.4064e+08
6.41096e+08
6.41549e+08
6.41999e+08
6.42447e+08
6.42892e+08
6.43334e+08
6.43773e+08
6.4421e+08
6.44644e+08
6.45076e+08
6.45505e+08
6.45931e+08
6.46354e+08
6.46775e+08
6.47193e+08
6.47608e+08
6.48021e+08
6.48431e+08
6.48838e+08
6.49242e+08
6.49644e+08
6.50043e+08
6.5044e+08
6.50833e+08
6.51224e+08
6.51612e+08
6.51998e+08
6.5238e+08
6.5276e+08
6.53138e+08
6.53512e+08
6.53884e+08
6.54253e+08
6.54619e+08
6.54983e+08
6.55344e+08
6.55702e+08
6.56057e+08
6.5641e+08
6.5676e+08
6.57107e+08
6.57451e+08
6.57793e+08
6.58131e+08
6.58467e+08
6.58801e+08
6.59131e+08
6.59459e+08
6.59784e+08
6.60106e+08
6.60426e+08
6.60742e+08
6.61056e+08
6.61367e+08
6.61675e+08
6.61981e+08
6.62284e+08
6.62584e+08
6.62881e+08
6.63175e+08
6.63467e+08
6.63756e+08
6.64042e+08
6.64325e+08
6.64605e+08
6.64883e+08
6.65158e+08
6.6543e+08
6.65699e+08
6.65965e+08
6.66229e+08
6.6649e+08
6.66748e+08
6.67003e+08
6.67255e+08
6.67505e+08
6.67751e+08
6.67995e+08
6.68236e+08
6.68475e+08
6.6871e+08
6.68943e+08
6.69173e+08
6.694e+08
6.69624e+08
6.69845e+08
6.70064e+08
6.7028e+08
6.70493e+08
6.70703e+08
6.7091e+08
6.71114e+08
6.71316e+08
6.71515e+08
6.71711e+08
6.71904e+08
6.72094e+08
6.72281e+08
6.72466e+08
6.72648e+08
6.72827e+08
6.73003e+08
6.73176e+08
6.73346e+08
6.73514e+08
6.73678e+08
6.7384e+08
6.73999e+08
6.74156e+08
6.74309e+08
6.74459e+08
6.74607e+08
6.74752e+08
6.74894e+08
6.75033e+08
6.75169e+08
6.75303e+08
6.75433e+08
6.75561e+08
6.75686e+08
6.75808e+08
6.75927e+08
6.76043e+08
6.76157e+08
6.76267e+08
6.76375e+08
6.7648e+08
6.76582e+08
6.76681e+08
6.76778e+08
6.76871e+08
6.76962e+08
6.77049e+08
6.77134e+08
6.77216e+08
6.77296e+08
6.77372e+08
6.77446e+08
6.77516e+08
6.77584e+08
6.77649e+08
6.77711e+08
6.7777e+08
6.77827e+08
6.7788e+08
6.77931e+08
6.77979e+08
6.78024e+08
6.78066e+08
6.78106e+08
6.78142e+08
-2490.68
26406.3
-4694.72
39041.8
34668.9
55305.9
76642.6
101653
130323
162654
198645
238296
281605
328572
379198
433480
491419
553013
618262
687165
759721
835929
915788
999298
1.08646e+06
1.17726e+06
1.27172e+06
1.36981e+06
1.47156e+06
1.57694e+06
1.68597e+06
1.79864e+06
1.91495e+06
2.03489e+06
2.15847e+06
2.28569e+06
2.41653e+06
2.55101e+06
2.68912e+06
2.83085e+06
2.97621e+06
3.1252e+06
3.2778e+06
3.43403e+06
3.59387e+06
3.75734e+06
3.92441e+06
4.0951e+06
4.26939e+06
4.4473e+06
4.6288e+06
4.81392e+06
5.00263e+06
5.19494e+06
5.39084e+06
5.59034e+06
5.79343e+06
6.00011e+06
6.21038e+06
6.42422e+06
6.64165e+06
6.86265e+06
7.08723e+06
7.31538e+06
7.5471e+06
7.78239e+06
8.02123e+06
8.26364e+06
8.50961e+06
8.75912e+06
9.01219e+06
9.26881e+06
9.52897e+06
9.79267e+06
1.00599e+07
1.03307e+07
1.0605e+07
1.08828e+07
1.11642e+07
1.1449e+07
1.17374e+07
1.20293e+07
1.23248e+07
1.26237e+07
1.29261e+07
1.3232e+07
1.35414e+07
1.38543e+07
1.41707e+07
1.44906e+07
1.48139e+07
1.51408e+07
1.54711e+07
1.58048e+07
1.6142e+07
1.64827e+07
1.68269e+07
1.71744e+07
1.75255e+07
1.78799e+07
1.82378e+07
1.85992e+07
1.89639e+07
1.93321e+07
1.97037e+07
2.00787e+07
2.04571e+07
2.08389e+07
2.12242e+07
2.16128e+07
2.20048e+07
2.24002e+07
2.27989e+07
2.32011e+07
2.36066e+07
2.40154e+07
2.44277e+07
2.48433e+07
2.52622e+07
2.56845e+07
2.61101e+07
2.6539e+07
2.69713e+07
2.74069e+07
2.78458e+07
2.8288e+07
2.87335e+07
2.91823e+07
2.96345e+07
3.00899e+07
3.05485e+07
3.10105e+07
3.14757e+07
3.19442e+07
3.2416e+07
3.2891e+07
3.33693e+07
3.38508e+07
3.43355e+07
3.48235e+07
3.53147e+07
3.58091e+07
3.63067e+07
3.68075e+07
3.73115e+07
3.78187e+07
3.83291e+07
3.88427e+07
3.93595e+07
3.98794e+07
4.04025e+07
4.09287e+07
4.14581e+07
4.19906e+07
4.25263e+07
4.30651e+07
4.3607e+07
4.4152e+07
4.47001e+07
4.52514e+07
4.58057e+07
4.63631e+07
4.69236e+07
4.74872e+07
4.80538e+07
4.86235e+07
4.91962e+07
4.9772e+07
5.03508e+07
5.09327e+07
5.15176e+07
5.21055e+07
5.26964e+07
5.32903e+07
5.38872e+07
5.44871e+07
5.509e+07
5.56958e+07
5.63046e+07
5.69164e+07
5.75311e+07
5.81488e+07
5.87694e+07
5.93929e+07
6.00193e+07
6.06487e+07
6.12809e+07
6.19161e+07
6.25541e+07
6.31951e+07
6.38389e+07
6.44855e+07
6.5135e+07
6.57874e+07
6.64426e+07
6.71007e+07
6.77615e+07
6.84252e+07
6.90917e+07
6.9761e+07
7.04331e+07
7.1108e+07
7.17857e+07
7.24661e+07
7.31493e+07
7.38352e+07
7.45239e+07
7.52153e+07
7.59094e+07
7.66063e+07
7.73058e+07
7.80081e+07
7.87131e+07
7.94207e+07
8.0131e+07
8.0844e+07
8.15597e+07
8.2278e+07
8.29989e+07
8.37225e+07
8.44487e+07
8.51775e+07
8.59089e+07
8.66429e+07
8.73795e+07
8.81187e+07
8.88604e+07
8.96047e+07
9.03516e+07
9.1101e+07
9.18529e+07
9.26074e+07
9.33644e+07
9.41239e+07
9.48859e+07
9.56504e+07
9.64173e+07
9.71867e+07
9.79586e+07
9.8733e+07
9.95098e+07
1.00289e+08
1.01071e+08
1.01855e+08
1.02641e+08
1.0343e+08
1.04221e+08
1.05015e+08
1.05811e+08
1.06609e+08
1.0741e+08
1.08213e+08
1.09018e+08
1.09826e+08
1.10636e+08
1.11448e+08
1.12263e+08
1.1308e+08
1.13899e+08
1.1472e+08
1.15544e+08
1.1637e+08
1.17198e+08
1.18029e+08
1.18861e+08
1.19696e+08
1.20533e+08
1.21372e+08
1.22213e+08
1.23057e+08
1.23903e+08
1.2475e+08
1.256e+08
1.26452e+08
1.27307e+08
1.28163e+08
1.29021e+08
1.29882e+08
1.30744e+08
1.31609e+08
1.32475e+08
1.33344e+08
1.34215e+08
1.35088e+08
1.35962e+08
1.36839e+08
1.37718e+08
1.38599e+08
1.39481e+08
1.40366e+08
1.41253e+08
1.42141e+08
1.43032e+08
1.43924e+08
1.44819e+08
1.45715e+08
1.46613e+08
1.47513e+08
1.48415e+08
1.49319e+08
1.50224e+08
1.51132e+08
1.52041e+08
1.52952e+08
1.53865e+08
1.54779e+08
1.55696e+08
1.56614e+08
1.57534e+08
1.58456e+08
1.59379e+08
1.60305e+08
1.61231e+08
1.6216e+08
1.6309e+08
1.64023e+08
1.64956e+08
1.65892e+08
1.66829e+08
1.67767e+08
1.68708e+08
1.6965e+08
1.70593e+08
1.71538e+08
1.72485e+08
1.73434e+08
1.74383e+08
1.75335e+08
1.76288e+08
1.77243e+08
1.78199e+08
1.79156e+08
1.80115e+08
1.81076e+08
1.82038e+08
1.83002e+08
1.83967e+08
1.84933e+08
1.85901e+08
1.86871e+08
1.87841e+08
1.88814e+08
1.89787e+08
1.90762e+08
1.91739e+08
1.92716e+08
1.93695e+08
1.94676e+08
1.95658e+08
1.96641e+08
1.97625e+08
1.98611e+08
1.99598e+08
2.00586e+08
2.01576e+08
2.02566e+08
2.03558e+08
2.04552e+08
2.05546e+08
2.06542e+08
2.07539e+08
2.08537e+08
2.09536e+08
2.10536e+08
2.11538e+08
2.12541e+08
2.13545e+08
2.1455e+08
2.15556e+08
2.16563e+08
2.17571e+08
2.18581e+08
2.19591e+08
2.20603e+08
2.21615e+08
2.22629e+08
2.23643e+08
2.24659e+08
2.25676e+08
2.26693e+08
2.27712e+08
2.28731e+08
2.29752e+08
2.30773e+08
2.31796e+08
2.32819e+08
2.33843e+08
2.34868e+08
2.35894e+08
2.36921e+08
2.37949e+08
2.38978e+08
2.40007e+08
2.41037e+08
2.42068e+08
2.431e+08
2.44133e+08
2.45167e+08
2.46201e+08
2.47236e+08
2.48272e+08
2.49308e+08
2.50346e+08
2.51384e+08
2.52423e+08
2.53462e+08
2.54502e+08
2.55543e+08
2.56584e+08
2.57627e+08
2.58669e+08
2.59713e+08
2.60757e+08
2.61802e+08
2.62847e+08
2.63893e+08
2.64939e+08
2.65986e+08
2.67034e+08
2.68082e+08
2.6913e+08
2.7018e+08
2.71229e+08
2.72279e+08
2.7333e+08
2.74381e+08
2.75433e+08
2.76485e+08
2.77537e+08
2.7859e+08
2.79644e+08
2.80698e+08
2.81752e+08
2.82806e+08
2.83861e+08
2.84917e+08
2.85972e+08
2.87029e+08
2.88085e+08
2.89142e+08
2.90199e+08
2.91256e+08
2.92314e+08
2.93372e+08
2.9443e+08
2.95488e+08
2.96547e+08
2.97606e+08
2.98665e+08
2.99724e+08
3.00784e+08
3.01844e+08
3.02904e+08
3.03964e+08
3.05024e+08
3.06085e+08
3.07145e+08
3.08206e+08
3.09267e+08
3.10328e+08
3.11389e+08
3.1245e+08
3.13511e+08
3.14573e+08
3.15634e+08
3.16695e+08
3.17757e+08
3.18818e+08
3.1988e+08
3.20941e+08
3.22003e+08
3.23064e+08