/*--------------------------------*- C++ -*----------------------------------*\
| =========                 |                                                 |
| \\      /  F ield         | OpenFOAM: The Open Source CFD Toolbox           |
|  \\    /   O peration     | Version:  2512                                  |
|   \\  /    A nd           | Website:  www.openfoam.com                      |
|    \\/     M anipulation  |                                                 |
\*---------------------------------------------------------------------------*/
FoamFile
{
    version     2.0;
    format      ascii;
    arch        "LSB;label=32;scalar=64";
    class       volScalarField;
    location    "2e-05";
    object      p_rgh;
}
// * * * * * * * * * * * * * * * * * * * * * * * * * * * * * * * * * * * * * //

dimensions      [1 -1 -2 0 0 0 0];

internalField   nonuniform List<scalar> 
100000
(
-1.12303e+10
-1.12303e+10
-1.12303e+10
-1.12302e+10
-1.12302e+10
-1.12302e+10
-1.12302e+10
-1.12302e+10
-1.12301e+10
-1.12301e+10
-1.12301e+10
-1.123e+10
-1.123e+10
-1.12299e+10
-1.12299e+10
-1.12298e+10
-1.12298e+10
-1.12297e+10
-1.12297e+10
-1.12296e+10
-1.12295e+10
-1.12294e+10
-1.12294e+10
-1.12293e+10
-1.12292e+10
-1.12291e+10
-1.1229e+10
-1.12289e+10
-1.12288e+10
-1.12287e+10
-1.12286e+10
-1.12285e+10
-1.12284e+10
-1.12282e+10
-1.12281e+10
-1.1228e+10
-1.12279e+10
-1.12277e+10
-1.12276e+10
-1.12274e+10
-1.12273e+10
-1.12272e+10
-1.1227e+10
-1.12268e+10
-1.12267e+10
-1.12265e+10
-1.12264e+10
-1.12262e+10
-1.1226e+10
-1.12258e+10
-1.12256e+10
-1.12255e+10
-1.12253e+10
-1.12251e+10
-1.12249e+10
-1.12247e+10
-1.12245e+10
-1.12243e+10
-1.12241e+10
-1.12239e+10
-1.12236e+10
-1.12234e+10
-1.12232e+10
-1.1223e+10
-1.12227e+10
-1.12225e+10
-1.12223e+10
-1.1222e+10
-1.12218e+10
-1.12215e+10
-1.12213e+10
-1.1221e+10
-1.12207e+10
-1.12205e+10
-1.12202e+10
-1.12199e+10
-1.12197e+10
-1.12194e+10
-1.12191e+10
-1.12188e+10
-1.12185e+10
-1.12182e+10
-1.1218e+10
-1.12177e+10
-1.12174e+10
-1.1217e+10
-1.12167e+10
-1.12164e+10
-1.12161e+10
-1.12158e+10
-1.12155e+10
-1.12151e+10
-1.12148e+10
-1.12145e+10
-1.12141e+10
-1.12138e+10
-1.12135e+10
-1.12131e+10
-1.12128e+10
-1.12124e+10
-1.1212e+10
-1.12117e+10
-1.12113e+10
-1.12109e+10
-1.12106e+10
-1.12102e+10
-1.12098e+10
-1.12094e+10
-1.12091e+10
-1.12087e+10
-1.12083e+10
-1.12079e+10
-1.12075e+10
-1.12071e+10
-1.12067e+10
-1.12063e+10
-1.12058e+10
-1.12054e+10
-1.1205e+10
-1.12046e+10
-1.12042e+10
-1.12037e+10
-1.12033e+10
-1.12029e+10
-1.12024e+10
-1.1202e+10
-1.12015e+10
-1.12011e+10
-1.12006e+10
-1.12002e+10
-1.11997e+10
-1.11993e+10
-1.11988e+10
-1.11983e+10
-1.11979e+10
-1.11974e+10
-1.11969e+10
-1.11964e+10
-1.11959e+10
-1.11955e+10
-1.1195e+10
-1.11945e+10
-1.1194e+10
-1.11935e+10
-1.1193e+10
-1.11925e+10
-1.11919e+10
-1.11914e+10
-1.11909e+10
-1.11904e+10
-1.11899e+10
-1.11893e+10
-1.11888e+10
-1.11883e+10
-1.11878e+10
-1.11872e+10
-1.11867e+10
-1.11861e+10
-1.11856e+10
-1.1185e+10
-1.11845e+10
-1.11839e+10
-1.11834e+10
-1.11828e+10
-1.11822e+10
-1.11817e+10
-1.11811e+10
-1.11805e+10
-1.11799e+10
-1.11793e+10
-1.11788e+10
-1.11782e+10
-1.11776e+10
-1.1177e+10
-1.11764e+10
-1.11758e+10
-1.11752e+10
-1.11746e+10
-1.1174e+10
-1.11734e+10
-1.11727e+10
-1.11721e+10
-1.11715e+10
-1.11709e+10
-1.11703e+10
-1.11696e+10
-1.1169e+10
-1.11684e+10
-1.11677e+10
-1.11671e+10
-1.11664e+10
-1.11658e+10
-1.11651e+10
-1.11645e+10
-1.11638e+10
-1.11632e+10
-1.11625e+10
-1.11619e+10
-1.11612e+10
-1.11605e+10
-1.11598e+10
-1.11592e+10
-1.11585e+10
-1.11578e+10
-1.11571e+10
-1.11564e+10
-1.11558e+10
-1.11551e+10
-1.11544e+10
-1.11537e+10
-1.1153e+10
-1.11523e+10
-1.11516e+10
-1.11509e+10
-1.11501e+10
-1.11494e+10
-1.11487e+10
-1.1148e+10
-1.11473e+10
-1.11466e+10
-1.11458e+10
-1.11451e+10
-1.11444e+10
-1.11436e+10
-1.11429e+10
-1.11422e+10
-1.11414e+10
-1.11407e+10
-1.11399e+10
-1.11392e+10
-1.11384e+10
-1.11377e+10
-1.11369e+10
-1.11362e+10
-1.11354e+10
-1.11346e+10
-1.11339e+10
-1.11331e+10
-1.11323e+10
-1.11315e+10
-1.11308e+10
-1.113e+10
-1.11292e+10
-1.11284e+10
-1.11276e+10
-1.11268e+10
-1.11261e+10
-1.11253e+10
-1.11245e+10
-1.11237e+10
-1.11229e+10
-1.11221e+10
-1.11213e+10
-1.11205e+10
-1.11196e+10
-1.11188e+10
-1.1118e+10
-1.11172e+10
-1.11164e+10
-1.11156e+10
-1.11147e+10
-1.11139e+10
-1.11131e+10
-1.11122e+10
-1.11114e+10
-1.11106e+10
-1.11097e+10
-1.11089e+10
-1.11081e+10
-1.11072e+10
-1.11064e+10
-1.11055e+10
-1.11047e+10
-1.11038e+10
-1.1103e+10
-1.11021e+10
-1.11013e+10
-1.11004e+10
-1.10995e+10
-1.10987e+10
-1.10978e+10
-1.10969e+10
-1.10961e+10
-1.10952e+10
-1.10943e+10
-1.10934e+10
-1.10926e+10
-1.10917e+10
-1.10908e+10
-1.10899e+10
-1.1089e+10
-1.10881e+10
-1.10872e+10
-1.10864e+10
-1.10855e+10
-1.10846e+10
-1.10837e+10
-1.10828e+10
-1.10819e+10
-1.1081e+10
-1.10801e+10
-1.10791e+10
-1.10782e+10
-1.10773e+10
-1.10764e+10
-1.10755e+10
-1.10746e+10
-1.10737e+10
-1.10727e+10
-1.10718e+10
-1.10709e+10
-1.107e+10
-1.1069e+10
-1.10681e+10
-1.10672e+10
-1.10663e+10
-1.10653e+10
-1.10644e+10
-1.10634e+10
-1.10625e+10
-1.10616e+10
-1.10606e+10
-1.10597e+10
-1.10587e+10
-1.10578e+10
-1.10568e+10
-1.10559e+10
-1.10549e+10
-1.1054e+10
-1.1053e+10
-1.10521e+10
-1.10511e+10
-1.10502e+10
-1.10492e+10
-1.10482e+10
-1.10473e+10
-1.10463e+10
-1.10453e+10
-1.10444e+10
-1.10434e+10
-1.10424e+10
-1.10415e+10
-1.10405e+10
-1.10395e+10
-1.10385e+10
-1.10376e+10
-1.10366e+10
-1.10356e+10
-1.10346e+10
-1.10336e+10
-1.10327e+10
-1.10317e+10
-1.10307e+10
-1.10297e+10
-1.10287e+10
-1.10277e+10
-1.10267e+10
-1.10257e+10
-1.10247e+10
-1.10237e+10
-1.10227e+10
-1.10217e+10
-1.10207e+10
-1.10197e+10
-1.10187e+10
-1.10177e+10
-1.10167e+10
-1.10157e+10
-1.10147e+10
-1.10137e+10
-1.10127e+10
-1.10117e+10
-1.10107e+10
-1.10097e+10
-1.10087e+10
-1.10076e+10
-1.10066e+10
-1.10056e+10
-1.10046e+10
-1.10036e+10
-1.10026e+10
-1.10015e+10
-1.10005e+10
-1.09995e+10
-1.09985e+10
-1.09975e+10
-1.09964e+10
-1.09954e+10
-1.09944e+10
-1.09934e+10
-1.09923e+10
-1.09913e+10
-1.09903e+10
-1.09892e+10
-1.09882e+10
-1.09872e+10
-1.09861e+10
-1.09851e+10
-1.09841e+10
-1.0983e+10
-1.0982e+10
-1.0981e+10
-1.09799e+10
-1.09789e+10
-1.09779e+10
-1.09768e+10
-1.09758e+10
-1.09747e+10
-1.09737e+10
-1.09727e+10
-1.09716e+10
-1.09706e+10
-1.09695e+10
-1.09685e+10
-1.09674e+10
-1.09664e+10
-1.09653e+10
-1.09643e+10
-1.09632e+10
-1.09622e+10
-1.09611e+10
-1.09601e+10
-1.0959e+10
-1.0958e+10
-1.09569e+10
-1.09559e+10
-1.09548e+10
-1.09538e+10
-1.09527e+10
-1.09517e+10
-1.09506e+10
-1.09496e+10
-1.09485e+10
-1.09475e+10
-1.09464e+10
-1.09454e+10
-1.09443e+10
-1.09433e+10
-1.09422e+10
-1.09411e+10
-1.09401e+10
-1.0939e+10
-1.0938e+10
-1.09369e+10
-1.09358e+10
-1.09348e+10
-1.09337e+10
-1.09327e+10
-1.09316e+10
-1.09306e+10
-1.09295e+10
-1.09284e+10
-1.09274e+10
-1.09263e+10
-1.09253e+10
-1.09242e+10
-1.09231e+10
-1.09221e+10
-1.0921e+10
-1.092e+10
-1.09189e+10
-1.09178e+10
-1.09168e+10
-1.09157e+10
-1.09146e+10
-1.09136e+10
-1.09125e+10
-1.09115e+10
-1.09104e+10
-1.09093e+10
-1.09083e+10
-1.09072e+10
-1.09062e+10
-1.09051e+10
-1.0904e+10
-1.0903e+10
-1.09019e+10
-1.09008e+10
-1.08998e+10
-1.08987e+10
-1.08977e+10
-1.08966e+10
-1.08955e+10
-1.08945e+10
-1.08934e+10
-1.08924e+10
-1.08913e+10
-1.08902e+10
-1.08892e+10
-1.08881e+10
-1.08871e+10
-1.0886e+10
-1.08849e+10
-1.08839e+10
-1.08828e+10
-1.08818e+10
-1.08807e+10
-1.08797e+10
-1.08786e+10
-1.08775e+10
-1.08765e+10
-1.08754e+10
-1.08744e+10
-1.08733e+10
-1.08723e+10
-1.08712e+10
-1.08702e+10
-1.08691e+10
-1.08681e+10
-1.0867e+10
-1.08659e+10
-1.08649e+10
-1.08638e+10
-1.08628e+10
-1.08617e+10
-1.08607e+10
-1.08596e+10
-1.08586e+10
-1.08575e+10
-1.08565e+10
-1.08554e+10
-1.08544e+10
-1.08534e+10
-1.08523e+10
-1.08513e+10
-1.08502e+10
-1.08492e+10
-1.08481e+10
-1.08471e+10
-1.0846e+10
-1.0845e+10
-1.0844e+10
-1.08429e+10
-1.08419e+10
-1.08408e+10
-1.08398e+10
-1.08388e+10
-1.08377e+10
-1.08367e+10
-1.08357e+10
-1.08346e+10
-1.08336e+10
-1.08326e+10
-1.08315e+10
-1.08305e+10
-1.08295e+10
-1.08284e+10
-1.08274e+10
-1.08264e+10
-1.08253e+10
-1.08243e+10
-1.08233e+10
-1.08223e+10
-1.08212e+10
-1.08202e+10
-1.08192e+10
-1.08182e+10
-1.08171e+10
-1.08161e+10
-1.08151e+10
-1.08141e+10
-1.08131e+10
-1.0812e+10
-1.0811e+10
-1.081e+10
-1.0809e+10
-1.0808e+10
-1.0807e+10
-1.0806e+10
-1.0805e+10
-1.08039e+10
-1.08029e+10
-1.08019e+10
-1.08009e+10
-1.07999e+10
-1.07989e+10
-1.07979e+10
-1.07969e+10
-1.07959e+10
-1.07949e+10
-1.07939e+10
-1.07929e+10
-1.07919e+10
-1.07909e+10
-1.07899e+10
-1.07889e+10
-1.07879e+10
-1.0787e+10
-1.0786e+10
-1.0785e+10
-1.0784e+10
-1.0783e+10
-1.0782e+10
-1.0781e+10
-1.07801e+10
-1.07791e+10
-1.07781e+10
-1.07771e+10
-1.07761e+10
-1.07752e+10
-1.07742e+10
-1.07732e+10
-1.07722e+10
-1.07713e+10
-1.07703e+10
-1.07693e+10
-1.07684e+10
-1.07674e+10
-1.07664e+10
-1.07655e+10
-1.07645e+10
-1.07636e+10
-1.07626e+10
-1.07616e+10
-1.07607e+10
-1.07597e+10
-1.07588e+10
-1.07578e+10
-1.07569e+10
-1.07559e+10
-1.0755e+10
-1.0754e+10
-1.07531e+10
-1.07521e+10
-1.07512e+10
-1.07503e+10
-1.07493e+10
-1.07484e+10
-1.07474e+10
-1.07465e+10
-1.07456e+10
-1.07446e+10
-1.07437e+10
-1.07428e+10
-1.07419e+10
-1.07409e+10
-1.074e+10
-1.07391e+10
-1.07382e+10
-1.07372e+10
-1.07363e+10
-1.07354e+10
-1.07345e+10
-1.07336e+10
-1.07327e+10
-1.07318e+10
-1.07309e+10
-1.073e+10
-1.0729e+10
-1.07281e+10
-1.07272e+10
-1.07263e+10
-1.07254e+10
-1.07245e+10
-1.07237e+10
-1.07228e+10
-1.07219e+10
-1.0721e+10
-1.07201e+10
-1.07192e+10
-1.07183e+10
-1.07174e+10
-1.07166e+10
-1.07157e+10
-1.07148e+10
-1.07139e+10
-1.07131e+10
-1.07122e+10
-1.07113e+10
-1.07104e+10
-1.07096e+10
-1.07087e+10
-1.07078e+10
-1.0707e+10
-1.07061e+10
-1.07053e+10
-1.07044e+10
-1.07036e+10
-1.07027e+10
-1.07019e+10
-1.0701e+10
-1.07002e+10
-1.06993e+10
-1.06985e+10
-1.06976e+10
-1.06968e+10
-1.0696e+10
-1.06951e+10
-1.06943e+10
-1.06935e+10
-1.06926e+10
-1.06918e+10
-1.0691e+10
-1.06902e+10
-1.06893e+10
-1.06885e+10
-1.06877e+10
-1.06869e+10
-1.06861e+10
-1.06853e+10
-1.06845e+10
-1.06836e+10
-1.06828e+10
-1.0682e+10
-1.06812e+10
-1.06804e+10
-1.06796e+10
-1.06788e+10
-1.06781e+10
-1.06773e+10
-1.06765e+10
-1.06757e+10
-1.06749e+10
-1.06741e+10
-1.06733e+10
-1.06726e+10
-1.06718e+10
-1.0671e+10
-1.06702e+10
-1.06695e+10
-1.06687e+10
-1.06679e+10
-1.06672e+10
-1.06664e+10
-1.06656e+10
-1.06649e+10
-1.06641e+10
-1.06634e+10
-1.06626e+10
-1.06619e+10
-1.06611e+10
-1.06604e+10
-1.06596e+10
-1.06589e+10
-1.06582e+10
-1.06574e+10
-1.06567e+10
-1.0656e+10
-1.06552e+10
-1.06545e+10
-1.06538e+10
-1.06531e+10
-1.06523e+10
-1.06516e+10
-1.06509e+10
-1.06502e+10
-1.06495e+10
-1.06488e+10
-1.06481e+10
-1.06474e+10
-1.06467e+10
-1.0646e+10
-1.06453e+10
-1.06446e+10
-1.06439e+10
-1.06432e+10
-1.06425e+10
-1.06418e+10
-1.06411e+10
-1.06405e+10
-1.06398e+10
-1.06391e+10
-1.06384e+10
-1.06378e+10
-1.06371e+10
-1.06364e+10
-1.06358e+10
-1.06351e+10
-1.06344e+10
-1.06338e+10
-1.06331e+10
-1.06325e+10
-1.06318e+10
-1.06312e+10
-1.06305e+10
-1.06299e+10
-1.06292e+10
-1.06286e+10
-1.0628e+10
-1.06273e+10
-1.06267e+10
-1.06261e+10
-1.06254e+10
-1.06248e+10
-1.06242e+10
-1.06236e+10
-1.0623e+10
-1.06223e+10
-1.06217e+10
-1.06211e+10
-1.06205e+10
-1.06199e+10
-1.06193e+10
-1.06187e+10
-1.06181e+10
-1.06175e+10
-1.06169e+10
-1.06163e+10
-1.06157e+10
-1.06152e+10
-1.06146e+10
-1.0614e+10
-1.06134e+10
-1.06128e+10
-1.06123e+10
-1.06117e+10
-1.06111e+10
-1.06106e+10
-1.061e+10
-1.06095e+10
-1.06089e+10
-1.06083e+10
-1.06078e+10
-1.06072e+10
-1.06067e+10
-1.06061e+10
-1.06056e+10
-1.06051e+10
-1.06045e+10
-1.0604e+10
-1.06035e+10
-1.06029e+10
-1.06024e+10
-1.06019e+10
-1.06014e+10
-1.06008e+10
-1.06003e+10
-1.05998e+10
-1.05993e+10
-1.05988e+10
-1.05983e+10
-1.05978e+10
-1.05973e+10
-1.05968e+10
-1.05963e+10
-1.05958e+10
-1.05953e+10
-1.05948e+10
-1.05943e+10
-1.05939e+10
-1.05934e+10
-1.05929e+10
-1.05924e+10
-1.0592e+10
-1.05915e+10
-1.0591e+10
-1.05906e+10
-1.05901e+10
-1.05896e+10
-1.05892e+10
-1.05887e+10
-1.05883e+10
-1.05878e+10
-1.05874e+10
-1.05869e+10
-1.05865e+10
-1.05861e+10
-1.05856e+10
-1.05852e+10
-1.05848e+10
-1.05843e+10
-1.05839e+10
-1.05835e+10
-1.05831e+10
-1.05827e+10
-1.05823e+10
-1.05818e+10
-1.05814e+10
-1.0581e+10
-1.05806e+10
-1.05802e+10
-1.05798e+10
-1.05794e+10
-1.05791e+10
-1.05787e+10
-1.05783e+10
-1.05779e+10
-1.05775e+10
-1.05771e+10
-1.05768e+10
-1.05764e+10
-1.0576e+10
-1.05757e+10
-1.05753e+10
-1.05749e+10
-1.05746e+10
-1.05742e+10
-1.05739e+10
-1.05735e+10
-1.05732e+10
-1.05728e+10
-1.05725e+10
-1.05721e+10
-1.05718e+10
-1.05715e+10
-1.05711e+10
-1.05708e+10
-1.05705e+10
-1.05702e+10
-1.05699e+10
-1.05695e+10
-1.05692e+10
-1.05689e+10
-1.05686e+10
-1.05683e+10
-1.0568e+10
-1.05677e+10
-1.05674e+10
-1.05671e+10
-1.05668e+10
-1.05665e+10
-1.05662e+10
-1.0566e+10
-1.05657e+10
-1.05654e+10
-1.05651e+10
-1.05649e+10
-1.05646e+10
-1.05643e+10
-1.05641e+10
-1.05638e+10
-1.05635e+10
-1.05633e+10
-1.0563e+10
-1.05628e+10
-1.05625e+10
-1.05623e+10
-1.0562e+10
-1.05618e+10
-1.05616e+10
-1.05613e+10
-1.05611e+10
-1.05609e+10
-1.05607e+10
-1.05604e+10
-1.05602e+10
-1.056e+10
-1.05598e+10
-1.05596e+10
-1.05594e+10
-1.05592e+10
-1.0559e+10
-1.05588e+10
-1.05586e+10
-1.05584e+10
-1.05582e+10
-1.0558e+10
-1.05578e+10
-1.05576e+10
-1.05575e+10
-1.05573e+10
-1.05571e+10
-1.05569e+10
-1.05568e+10
-1.05566e+10
-1.05564e+10
-1.05563e+10
-1.05561e+10
-1.0556e+10
-1.05558e+10
-1.05557e+10
-1.05555e+10
-1.05554e+10
-1.05552e+10
-1.05551e+10
-1.0555e+10
-1.05548e+10
-1.05547e+10
-1.05546e+10
-1.05545e+10
-1.05544e+10
-1.05542e+10
-1.05541e+10
-1.0554e+10
-1.05539e+10
-1.05538e+10
-1.05537e+10
-1.05536e+10
-1.05535e+10
-1.05534e+10
-1.05533e+10
-1.05532e+10
-1.05531e+10
-1.05531e+10
-1.0553e+10
-1.05529e+10
-1.05528e+10
-1.05528e+10
-1.05527e+10
-1.05526e+10
-1.05526e+10
-1.05525e+10
-1.05525e+10
-1.05524e+10
-1.05523e+10
-1.05523e+10
-1.05523e+10
-1.05522e+10
-1.05522e+10
-1.05521e+10
-1.12303e+10
-1.12303e+10
-1.12303e+10
-1.12302e+10
-1.12302e+10
-1.12302e+10
-1.12302e+10
-1.12302e+10
-1.12301e+10
-1.12301e+10
-1.12301e+10
-1.123e+10
-1.123e+10
-1.12299e+10
-1.12299e+10
-1.12298e+10
-1.12298e+10
-1.12297e+10
-1.12297e+10
-1.12296e+10
-1.12295e+10
-1.12294e+10
-1.12294e+10
-1.12293e+10
-1.12292e+10
-1.12291e+10
-1.1229e+10
-1.12289e+10
-1.12288e+10
-1.12287e+10
-1.12286e+10
-1.12285e+10
-1.12284e+10
-1.12282e+10
-1.12281e+10
-1.1228e+10
-1.12279e+10
-1.12277e+10
-1.12276e+10
-1.12274e+10
-1.12273e+10
-1.12272e+10
-1.1227e+10
-1.12268e+10
-1.12267e+10
-1.12265e+10
-1.12264e+10
-1.12262e+10
-1.1226e+10
-1.12258e+10
-1.12256e+10
-1.12255e+10
-1.12253e+10
-1.12251e+10
-1.12249e+10
-1.12247e+10
-1.12245e+10
-1.12243e+10
-1.12241e+10
-1.12239e+10
-1.12236e+10
-1.12234e+10
-1.12232e+10
-1.1223e+10
-1.12227e+10
-1.12225e+10
-1.12223e+10
-1.1222e+10
-1.12218e+10
-1.12215e+10
-1.12213e+10
-1.1221e+10
-1.12207e+10
-1.12205e+10
-1.12202e+10
-1.12199e+10
-1.12197e+10
-1.12194e+10
-1.12191e+10
-1.12188e+10
-1.12185e+10
-1.12182e+10
-1.1218e+10
-1.12177e+10
-1.12174e+10
-1.1217e+10
-1.12167e+10
-1.12164e+10
-1.12161e+10
-1.12158e+10
-1.12155e+10
-1.12151e+10
-1.12148e+10
-1.12145e+10
-1.12141e+10
-1.12138e+10
-1.12135e+10
-1.12131e+10
-1.12128e+10
-1.12124e+10
-1.1212e+10
-1.12117e+10
-1.12113e+10
-1.12109e+10
-1.12106e+10
-1.12102e+10
-1.12098e+10
-1.12094e+10
-1.12091e+10
-1.12087e+10
-1.12083e+10
-1.12079e+10
-1.12075e+10
-1.12071e+10
-1.12067e+10
-1.12063e+10
-1.12059e+10
-1.12054e+10
-1.1205e+10
-1.12046e+10
-1.12042e+10
-1.12037e+10
-1.12033e+10
-1.12029e+10
-1.12024e+10
-1.1202e+10
-1.12015e+10
-1.12011e+10
-1.12006e+10
-1.12002e+10
-1.11997e+10
-1.11993e+10
-1.11988e+10
-1.11983e+10
-1.11979e+10
-1.11974e+10
-1.11969e+10
-1.11964e+10
-1.11959e+10
-1.11955e+10
-1.1195e+10
-1.11945e+10
-1.1194e+10
-1.11935e+10
-1.1193e+10
-1.11925e+10
-1.11919e+10
-1.11914e+10
-1.11909e+10
-1.11904e+10
-1.11899e+10
-1.11893e+10
-1.11888e+10
-1.11883e+10
-1.11878e+10
-1.11872e+10
-1.11867e+10
-1.11861e+10
-1.11856e+10
-1.1185e+10
-1.11845e+10
-1.11839e+10
-1.11834e+10
-1.11828e+10
-1.11822e+10
-1.11817e+10
-1.11811e+10
-1.11805e+10
-1.11799e+10
-1.11793e+10
-1.11788e+10
-1.11782e+10
-1.11776e+10
-1.1177e+10
-1.11764e+10
-1.11758e+10
-1.11752e+10
-1.11746e+10
-1.1174e+10
-1.11734e+10
-1.11727e+10
-1.11721e+10
-1.11715e+10
-1.11709e+10
-1.11703e+10
-1.11696e+10
-1.1169e+10
-1.11684e+10
-1.11677e+10
-1.11671e+10
-1.11664e+10
-1.11658e+10
-1.11651e+10
-1.11645e+10
-1.11638e+10
-1.11632e+10
-1.11625e+10
-1.11619e+10
-1.11612e+10
-1.11605e+10
-1.11598e+10
-1.11592e+10
-1.11585e+10
-1.11578e+10
-1.11571e+10
-1.11564e+10
-1.11558e+10
-1.11551e+10
-1.11544e+10
-1.11537e+10
-1.1153e+10
-1.11523e+10
-1.11516e+10
-1.11509e+10
-1.11501e+10
-1.11494e+10
-1.11487e+10
-1.1148e+10
-1.11473e+10
-1.11466e+10
-1.11458e+10
-1.11451e+10
-1.11444e+10
-1.11436e+10
-1.11429e+10
-1.11422e+10
-1.11414e+10
-1.11407e+10
-1.11399e+10
-1.11392e+10
-1.11384e+10
-1.11377e+10
-1.11369e+10
-1.11362e+10
-1.11354e+10
-1.11346e+10
-1.11339e+10
-1.11331e+10
-1.11323e+10
-1.11315e+10
-1.11308e+10
-1.113e+10
-1.11292e+10
-1.11284e+10
-1.11276e+10
-1.11268e+10
-1.11261e+10
-1.11253e+10
-1.11245e+10
-1.11237e+10
-1.11229e+10
-1.11221e+10
-1.11213e+10
-1.11205e+10
-1.11196e+10
-1.11188e+10
-1.1118e+10
-1.11172e+10
-1.11164e+10
-1.11156e+10
-1.11147e+10
-1.11139e+10
-1.11131e+10
-1.11123e+10
-1.11114e+10
-1.11106e+10
-1.11097e+10
-1.11089e+10
-1.11081e+10
-1.11072e+10
-1.11064e+10
-1.11055e+10
-1.11047e+10
-1.11038e+10
-1.1103e+10
-1.11021e+10
-1.11013e+10
-1.11004e+10
-1.10995e+10
-1.10987e+10
-1.10978e+10
-1.10969e+10
-1.10961e+10
-1.10952e+10
-1.10943e+10
-1.10934e+10
-1.10926e+10
-1.10917e+10
-1.10908e+10
-1.10899e+10
-1.1089e+10
-1.10881e+10
-1.10872e+10
-1.10864e+10
-1.10855e+10
-1.10846e+10
-1.10837e+10
-1.10828e+10
-1.10819e+10
-1.1081e+10
-1.10801e+10
-1.10791e+10
-1.10782e+10
-1.10773e+10
-1.10764e+10
-1.10755e+10
-1.10746e+10
-1.10737e+10
-1.10727e+10
-1.10718e+10
-1.10709e+10
-1.107e+10
-1.1069e+10
-1.10681e+10
-1.10672e+10
-1.10663e+10
-1.10653e+10
-1.10644e+10
-1.10635e+10
-1.10625e+10
-1.10616e+10
-1.10606e+10
-1.10597e+10
-1.10587e+10
-1.10578e+10
-1.10568e+10
-1.10559e+10
-1.10549e+10
-1.1054e+10
-1.1053e+10
-1.10521e+10
-1.10511e+10
-1.10502e+10
-1.10492e+10
-1.10482e+10
-1.10473e+10
-1.10463e+10
-1.10453e+10
-1.10444e+10
-1.10434e+10
-1.10424e+10
-1.10415e+10
-1.10405e+10
-1.10395e+10
-1.10385e+10
-1.10376e+10
-1.10366e+10
-1.10356e+10
-1.10346e+10
-1.10336e+10
-1.10327e+10
-1.10317e+10
-1.10307e+10
-1.10297e+10
-1.10287e+10
-1.10277e+10
-1.10267e+10
-1.10257e+10
-1.10247e+10
-1.10237e+10
-1.10227e+10
-1.10217e+10
-1.10207e+10
-1.10197e+10
-1.10187e+10
-1.10177e+10
-1.10167e+10
-1.10157e+10
-1.10147e+10
-1.10137e+10
-1.10127e+10
-1.10117e+10
-1.10107e+10
-1.10097e+10
-1.10087e+10
-1.10077e+10
-1.10066e+10
-1.10056e+10
-1.10046e+10
-1.10036e+10
-1.10026e+10
-1.10015e+10
-1.10005e+10
-1.09995e+10
-1.09985e+10
-1.09975e+10
-1.09964e+10
-1.09954e+10
-1.09944e+10
-1.09934e+10
-1.09923e+10
-1.09913e+10
-1.09903e+10
-1.09892e+10
-1.09882e+10
-1.09872e+10
-1.09861e+10
-1.09851e+10
-1.09841e+10
-1.0983e+10
-1.0982e+10
-1.0981e+10
-1.09799e+10
-1.09789e+10
-1.09779e+10
-1.09768e+10
-1.09758e+10
-1.09747e+10
-1.09737e+10
-1.09727e+10
-1.09716e+10
-1.09706e+10
-1.09695e+10
-1.09685e+10
-1.09674e+10
-1.09664e+10
-1.09653e+10
-1.09643e+10
-1.09632e+10
-1.09622e+10
-1.09611e+10
-1.09601e+10
-1.0959e+10
-1.0958e+10
-1.09569e+10
-1.09559e+10
-1.09548e+10
-1.09538e+10
-1.09527e+10
-1.09517e+10
-1.09506e+10
-1.09496e+10
-1.09485e+10
-1.09475e+10
-1.09464e+10
-1.09454e+10
-1.09443e+10
-1.09433e+10
-1.09422e+10
-1.09411e+10
-1.09401e+10
-1.0939e+10
-1.0938e+10
-1.09369e+10
-1.09358e+10
-1.09348e+10
-1.09337e+10
-1.09327e+10
-1.09316e+10
-1.09306e+10
-1.09295e+10
-1.09284e+10
-1.09274e+10
-1.09263e+10
-1.09253e+10
-1.09242e+10
-1.09231e+10
-1.09221e+10
-1.0921e+10
-1.092e+10
-1.09189e+10
-1.09178e+10
-1.09168e+10
-1.09157e+10
-1.09146e+10
-1.09136e+10
-1.09125e+10
-1.09115e+10
-1.09104e+10
-1.09093e+10
-1.09083e+10
-1.09072e+10
-1.09062e+10
-1.09051e+10
-1.0904e+10
-1.0903e+10
-1.09019e+10
-1.09008e+10
-1.08998e+10
-1.08987e+10
-1.08977e+10
-1.08966e+10
-1.08955e+10
-1.08945e+10
-1.08934e+10
-1.08924e+10
-1.08913e+10
-1.08902e+10
-1.08892e+10
-1.08881e+10
-1.08871e+10
-1.0886e+10
-1.08849e+10
-1.08839e+10
-1.08828e+10
-1.08818e+10
-1.08807e+10
-1.08797e+10
-1.08786e+10
-1.08775e+10
-1.08765e+10
-1.08754e+10
-1.08744e+10
-1.08733e+10
-1.08723e+10
-1.08712e+10
-1.08702e+10
-1.08691e+10
-1.08681e+10
-1.0867e+10
-1.08659e+10
-1.08649e+10
-1.08638e+10
-1.08628e+10
-1.08617e+10
-1.08607e+10
-1.08596e+10
-1.08586e+10
-1.08575e+10
-1.08565e+10
-1.08554e+10
-1.08544e+10
-1.08534e+10
-1.08523e+10
-1.08513e+10
-1.08502e+10
-1.08492e+10
-1.08481e+10
-1.08471e+10
-1.0846e+10
-1.0845e+10
-1.0844e+10
-1.08429e+10
-1.08419e+10
-1.08408e+10
-1.08398e+10
-1.08388e+10
-1.08377e+10
-1.08367e+10
-1.08357e+10
-1.08346e+10
-1.08336e+10
-1.08326e+10
-1.08315e+10
-1.08305e+10
-1.08295e+10
-1.08284e+10
-1.08274e+10
-1.08264e+10
-1.08253e+10
-1.08243e+10
-1.08233e+10
-1.08223e+10
-1.08212e+10
-1.08202e+10
-1.08192e+10
-1.08182e+10
-1.08171e+10
-1.08161e+10
-1.08151e+10
-1.08141e+10
-1.08131e+10
-1.0812e+10
-1.0811e+10
-1.081e+10
-1.0809e+10
-1.0808e+10
-1.0807e+10
-1.0806e+10
-1.0805e+10
-1.08039e+10
-1.08029e+10
-1.08019e+10
-1.08009e+10
-1.07999e+10
-1.07989e+10
-1.07979e+10
-1.07969e+10
-1.07959e+10
-1.07949e+10
-1.07939e+10
-1.07929e+10
-1.07919e+10
-1.07909e+10
-1.07899e+10
-1.07889e+10
-1.07879e+10
-1.0787e+10
-1.0786e+10
-1.0785e+10
-1.0784e+10
-1.0783e+10
-1.0782e+10
-1.0781e+10
-1.07801e+10
-1.07791e+10
-1.07781e+10
-1.07771e+10
-1.07761e+10
-1.07752e+10
-1.07742e+10
-1.07732e+10
-1.07722e+10
-1.07713e+10
-1.07703e+10
-1.07693e+10
-1.07684e+10
-1.07674e+10
-1.07664e+10
-1.07655e+10
-1.07645e+10
-1.07635e+10
-1.07626e+10
-1.07616e+10
-1.07607e+10
-1.07597e+10
-1.07588e+10
-1.07578e+10
-1.07569e+10
-1.07559e+10
-1.0755e+10
-1.0754e+10
-1.07531e+10
-1.07521e+10
-1.07512e+10
-1.07503e+10
-1.07493e+10
-1.07484e+10
-1.07474e+10
-1.07465e+10
-1.07456e+10
-1.07446e+10
-1.07437e+10
-1.07428e+10
-1.07419e+10
-1.07409e+10
-1.074e+10
-1.07391e+10
-1.07382e+10
-1.07372e+10
-1.07363e+10
-1.07354e+10
-1.07345e+10
-1.07336e+10
-1.07327e+10
-1.07318e+10
-1.07309e+10
-1.07299e+10
-1.0729e+10
-1.07281e+10
-1.07272e+10
-1.07263e+10
-1.07254e+10
-1.07245e+10
-1.07237e+10
-1.07228e+10
-1.07219e+10
-1.0721e+10
-1.07201e+10
-1.07192e+10
-1.07183e+10
-1.07174e+10
-1.07166e+10
-1.07157e+10
-1.07148e+10
-1.07139e+10
-1.07131e+10
-1.07122e+10
-1.07113e+10
-1.07104e+10
-1.07096e+10
-1.07087e+10
-1.07078e+10
-1.0707e+10
-1.07061e+10
-1.07053e+10
-1.07044e+10
-1.07036e+10
-1.07027e+10
-1.07019e+10
-1.0701e+10
-1.07002e+10
-1.06993e+10
-1.06985e+10
-1.06976e+10
-1.06968e+10
-1.0696e+10
-1.06951e+10
-1.06943e+10
-1.06935e+10
-1.06926e+10
-1.06918e+10
-1.0691e+10
-1.06902e+10
-1.06893e+10
-1.06885e+10
-1.06877e+10
-1.06869e+10
-1.06861e+10
-1.06853e+10
-1.06845e+10
-1.06836e+10
-1.06828e+10
-1.0682e+10
-1.06812e+10
-1.06804e+10
-1.06796e+10
-1.06788e+10
-1.06781e+10
-1.06773e+10
-1.06765e+10
-1.06757e+10
-1.06749e+10
-1.06741e+10
-1.06733e+10
-1.06726e+10
-1.06718e+10
-1.0671e+10
-1.06702e+10
-1.06695e+10
-1.06687e+10
-1.06679e+10
-1.06672e+10
-1.06664e+10
-1.06656e+10
-1.06649e+10
-1.06641e+10
-1.06634e+10
-1.06626e+10
-1.06619e+10
-1.06611e+10
-1.06604e+10
-1.06596e+10
-1.06589e+10
-1.06582e+10
-1.06574e+10
-1.06567e+10
-1.0656e+10
-1.06552e+10
-1.06545e+10
-1.06538e+10
-1.06531e+10
-1.06523e+10
-1.06516e+10
-1.06509e+10
-1.06502e+10
-1.06495e+10
-1.06488e+10
-1.06481e+10
-1.06474e+10
-1.06467e+10
-1.0646e+10
-1.06453e+10
-1.06446e+10
-1.06439e+10
-1.06432e+10
-1.06425e+10
-1.06418e+10
-1.06411e+10
-1.06405e+10
-1.06398e+10
-1.06391e+10
-1.06384e+10
-1.06378e+10
-1.06371e+10
-1.06364e+10
-1.06358e+10
-1.06351e+10
-1.06344e+10
-1.06338e+10
-1.06331e+10
-1.06325e+10
-1.06318e+10
-1.06312e+10
-1.06305e+10
-1.06299e+10
-1.06292e+10
-1.06286e+10
-1.0628e+10
-1.06273e+10
-1.06267e+10
-1.06261e+10
-1.06254e+10
-1.06248e+10
-1.06242e+10
-1.06236e+10
-1.0623e+10
-1.06223e+10
-1.06217e+10
-1.06211e+10
-1.06205e+10
-1.06199e+10
-1.06193e+10
-1.06187e+10
-1.06181e+10
-1.06175e+10
-1.06169e+10
-1.06163e+10
-1.06157e+10
-1.06152e+10
-1.06146e+10
-1.0614e+10
-1.06134e+10
-1.06128e+10
-1.06123e+10
-1.06117e+10
-1.06111e+10
-1.06106e+10
-1.061e+10
-1.06095e+10
-1.06089e+10
-1.06083e+10
-1.06078e+10
-1.06072e+10
-1.06067e+10
-1.06061e+10
-1.06056e+10
-1.06051e+10
-1.06045e+10
-1.0604e+10
-1.06035e+10
-1.06029e+10
-1.06024e+10
-1.06019e+10
-1.06014e+10
-1.06008e+10
-1.06003e+10
-1.05998e+10
-1.05993e+10
-1.05988e+10
-1.05983e+10
-1.05978e+10
-1.05973e+10
-1.05968e+10
-1.05963e+10
-1.05958e+10
-1.05953e+10
-1.05948e+10
-1.05943e+10
-1.05939e+10
-1.05934e+10
-1.05929e+10
-1.05924e+10
-1.0592e+10
-1.05915e+10
-1.0591e+10
-1.05906e+10
-1.05901e+10
-1.05896e+10
-1.05892e+10
-1.05887e+10
-1.05883e+10
-1.05878e+10
-1.05874e+10
-1.05869e+10
-1.05865e+10
-1.05861e+10
-1.05856e+10
-1.05852e+10
-1.05848e+10
-1.05843e+10
-1.05839e+10
-1.05835e+10
-1.05831e+10
-1.05827e+10
-1.05823e+10
-1.05818e+10
-1.05814e+10
-1.0581e+10
-1.05806e+10
-1.05802e+10
-1.05798e+10
-1.05794e+10
-1.05791e+10
-1.05787e+10
-1.05783e+10
-1.05779e+10
-1.05775e+10
-1.05771e+10
-1.05768e+10
-1.05764e+10
-1.0576e+10
-1.05757e+10
-1.05753e+10
-1.05749e+10
-1.05746e+10
-1.05742e+10
-1.05739e+10
-1.05735e+10
-1.05732e+10
-1.05728e+10
-1.05725e+10
-1.05721e+10
-1.05718e+10
-1.05715e+10
-1.05711e+10
-1.05708e+10
-1.05705e+10
-1.05702e+10
-1.05699e+10
-1.05695e+10
-1.05692e+10
-1.05689e+10
-1.05686e+10
-1.05683e+10
-1.0568e+10
-1.05677e+10
-1.05674e+10
-1.05671e+10
-1.05668e+10
-1.05665e+10
-1.05662e+10
-1.0566e+10
-1.05657e+10
-1.05654e+10
-1.05651e+10
-1.05648e+10
-1.05646e+10
-1.05643e+10
-1.05641e+10
-1.05638e+10
-1.05635e+10
-1.05633e+10
-1.0563e+10
-1.05628e+10
-1.05625e+10
-1.05623e+10
-1.0562e+10
-1.05618e+10
-1.05616e+10
-1.05613e+10
-1.05611e+10
-1.05609e+10
-1.05607e+10
-1.05604e+10
-1.05602e+10
-1.056e+10
-1.05598e+10
-1.05596e+10
-1.05594e+10
-1.05592e+10
-1.0559e+10
-1.05588e+10
-1.05586e+10
-1.05584e+10
-1.05582e+10
-1.0558e+10
-1.05578e+10
-1.05576e+10
-1.05575e+10
-1.05573e+10
-1.05571e+10
-1.05569e+10
-1.05568e+10
-1.05566e+10
-1.05564e+10
-1.05563e+10
-1.05561e+10
-1.0556e+10
-1.05558e+10
-1.05557e+10
-1.05555e+10
-1.05554e+10
-1.05552e+10
-1.05551e+10
-1.0555e+10
-1.05548e+10
-1.05547e+10
-1.05546e+10
-1.05545e+10
-1.05544e+10
-1.05542e+10
-1.05541e+10
-1.0554e+10
-1.05539e+10
-1.05538e+10
-1.05537e+10
-1.05536e+10
-1.05535e+10
-1.05534e+10
-1.05533e+10
-1.05532e+10
-1.05531e+10
-1.05531e+10
-1.0553e+10
-1.05529e+10
-1.05528e+10
-1.05528e+10
-1.05527e+10
-1.05526e+10
-1.05526e+10
-1.05525e+10
-1.05525e+10
-1.05524e+10
-1.05523e+10
-1.05523e+10
-1.05523e+10
-1.05522e+10
-1.05522e+10
-1.05521e+10
-1.12303e+10
-1.12303e+10
-1.12303e+10
-1.12302e+10
-1.12302e+10
-1.12302e+10
-1.12302e+10
-1.12302e+10
-1.12301e+10
-1.12301e+10
-1.12301e+10
-1.123e+10
-1.123e+10
-1.123e+10
-1.12299e+10
-1.12298e+10
-1.12298e+10
-1.12297e+10
-1.12297e+10
-1.12296e+10
-1.12295e+10
-1.12294e+10
-1.12294e+10
-1.12293e+10
-1.12292e+10
-1.12291e+10
-1.1229e+10
-1.12289e+10
-1.12288e+10
-1.12287e+10
-1.12286e+10
-1.12285e+10
-1.12284e+10
-1.12282e+10
-1.12281e+10
-1.1228e+10
-1.12279e+10
-1.12277e+10
-1.12276e+10
-1.12274e+10
-1.12273e+10
-1.12272e+10
-1.1227e+10
-1.12268e+10
-1.12267e+10
-1.12265e+10
-1.12264e+10
-1.12262e+10
-1.1226e+10
-1.12258e+10
-1.12257e+10
-1.12255e+10
-1.12253e+10
-1.12251e+10
-1.12249e+10
-1.12247e+10
-1.12245e+10
-1.12243e+10
-1.12241e+10
-1.12239e+10
-1.12236e+10
-1.12234e+10
-1.12232e+10
-1.1223e+10
-1.12227e+10
-1.12225e+10
-1.12223e+10
-1.1222e+10
-1.12218e+10
-1.12215e+10
-1.12213e+10
-1.1221e+10
-1.12208e+10
-1.12205e+10
-1.12202e+10
-1.12199e+10
-1.12197e+10
-1.12194e+10
-1.12191e+10
-1.12188e+10
-1.12185e+10
-1.12182e+10
-1.1218e+10
-1.12177e+10
-1.12174e+10
-1.1217e+10
-1.12167e+10
-1.12164e+10
-1.12161e+10
-1.12158e+10
-1.12155e+10
-1.12151e+10
-1.12148e+10
-1.12145e+10
-1.12141e+10
-1.12138e+10
-1.12135e+10
-1.12131e+10
-1.12128e+10
-1.12124e+10
-1.1212e+10
-1.12117e+10
-1.12113e+10
-1.12109e+10
-1.12106e+10
-1.12102e+10
-1.12098e+10
-1.12094e+10
-1.12091e+10
-1.12087e+10
-1.12083e+10
-1.12079e+10
-1.12075e+10
-1.12071e+10
-1.12067e+10
-1.12063e+10
-1.12059e+10
-1.12054e+10
-1.1205e+10
-1.12046e+10
-1.12042e+10
-1.12037e+10
-1.12033e+10
-1.12029e+10
-1.12024e+10
-1.1202e+10
-1.12015e+10
-1.12011e+10
-1.12006e+10
-1.12002e+10
-1.11997e+10
-1.11993e+10
-1.11988e+10
-1.11983e+10
-1.11979e+10
-1.11974e+10
-1.11969e+10
-1.11964e+10
-1.11959e+10
-1.11955e+10
-1.1195e+10
-1.11945e+10
-1.1194e+10
-1.11935e+10
-1.1193e+10
-1.11925e+10
-1.11919e+10
-1.11914e+10
-1.11909e+10
-1.11904e+10
-1.11899e+10
-1.11894e+10
-1.11888e+10
-1.11883e+10
-1.11878e+10
-1.11872e+10
-1.11867e+10
-1.11861e+10
-1.11856e+10
-1.1185e+10
-1.11845e+10
-1.11839e+10
-1.11834e+10
-1.11828e+10
-1.11822e+10
-1.11817e+10
-1.11811e+10
-1.11805e+10
-1.11799e+10
-1.11793e+10
-1.11788e+10
-1.11782e+10
-1.11776e+10
-1.1177e+10
-1.11764e+10
-1.11758e+10
-1.11752e+10
-1.11746e+10
-1.1174e+10
-1.11734e+10
-1.11727e+10
-1.11721e+10
-1.11715e+10
-1.11709e+10
-1.11703e+10
-1.11696e+10
-1.1169e+10
-1.11684e+10
-1.11677e+10
-1.11671e+10
-1.11664e+10
-1.11658e+10
-1.11651e+10
-1.11645e+10
-1.11638e+10
-1.11632e+10
-1.11625e+10
-1.11619e+10
-1.11612e+10
-1.11605e+10
-1.11598e+10
-1.11592e+10
-1.11585e+10
-1.11578e+10
-1.11571e+10
-1.11564e+10
-1.11558e+10
-1.11551e+10
-1.11544e+10
-1.11537e+10
-1.1153e+10
-1.11523e+10
-1.11516e+10
-1.11509e+10
-1.11501e+10
-1.11494e+10
-1.11487e+10
-1.1148e+10
-1.11473e+10
-1.11466e+10
-1.11458e+10
-1.11451e+10
-1.11444e+10
-1.11436e+10
-1.11429e+10
-1.11422e+10
-1.11414e+10
-1.11407e+10
-1.11399e+10
-1.11392e+10
-1.11384e+10
-1.11377e+10
-1.11369e+10
-1.11362e+10
-1.11354e+10
-1.11346e+10
-1.11339e+10
-1.11331e+10
-1.11323e+10
-1.11315e+10
-1.11308e+10
-1.113e+10
-1.11292e+10
-1.11284e+10
-1.11276e+10
-1.11268e+10
-1.11261e+10
-1.11253e+10
-1.11245e+10
-1.11237e+10
-1.11229e+10
-1.11221e+10
-1.11213e+10
-1.11205e+10
-1.11196e+10
-1.11188e+10