/*--------------------------------*- C++ -*----------------------------------*\
| =========                 |                                                 |
| \\      /  F ield         | OpenFOAM: The Open Source CFD Toolbox           |
|  \\    /   O peration     | Version:  2512                                  |
|   \\  /    A nd           | Website:  www.openfoam.com                      |
|    \\/     M anipulation  |                                                 |
\*---------------------------------------------------------------------------*/
FoamFile
{
    version     2.0;
    format      ascii;
    arch        "LSB;label=32;scalar=64";
    class       volScalarField;
    location    "2e-05";
    object      pB;
}
// * * * * * * * * * * * * * * * * * * * * * * * * * * * * * * * * * * * * * //

dimensions      [1 1 -3 0 0 -1 0];

internalField   nonuniform List<scalar> 
100000
(
-291.885
-85.7478
-165.507
-72.5254
-99.3889
-88.7223
-88.2458
-88.888
-90.331
-92.2649
-94.5001
-96.9167
-99.4363
-102.007
-104.592
-107.169
-109.719
-112.23
-114.696
-117.109
-119.465
-121.764
-124.003
-126.182
-128.3
-130.358
-132.357
-134.297
-136.18
-138.007
-139.779
-141.498
-143.164
-144.779
-146.345
-147.862
-149.333
-150.759
-152.14
-153.479
-154.776
-156.033
-157.251
-158.431
-159.574
-160.682
-161.755
-162.795
-163.803
-164.779
-165.725
-166.641
-167.529
-168.389
-169.222
-170.029
-170.811
-171.568
-172.302
-173.013
-173.702
-174.369
-175.016
-175.642
-176.248
-176.836
-177.405
-177.957
-178.491
-179.008
-179.509
-179.995
-180.465
-180.92
-181.361
-181.789
-182.203
-182.603
-182.992
-183.368
-183.732
-184.084
-184.426
-184.756
-185.077
-185.387
-185.687
-185.978
-186.259
-186.532
-186.796
-187.052
-187.299
-187.539
-187.77
-187.995
-188.212
-188.422
-188.626
-188.823
-189.014
-189.198
-189.377
-189.549
-189.716
-189.878
-190.035
-190.186
-190.332
-190.474
-190.611
-190.743
-190.872
-190.995
-191.115
-191.231
-191.343
-191.451
-191.556
-191.657
-191.754
-191.849
-191.94
-192.028
-192.113
-192.195
-192.274
-192.351
-192.425
-192.496
-192.565
-192.631
-192.695
-192.757
-192.817
-192.874
-192.929
-192.983
-193.034
-193.083
-193.131
-193.177
-193.221
-193.263
-193.304
-193.343
-193.381
-193.417
-193.452
-193.485
-193.517
-193.548
-193.577
-193.605
-193.632
-193.658
-193.683
-193.706
-193.729
-193.75
-193.771
-193.79
-193.809
-193.826
-193.843
-193.859
-193.874
-193.888
-193.902
-193.914
-193.926
-193.937
-193.948
-193.958
-193.967
-193.975
-193.983
-193.99
-193.997
-194.003
-194.009
-194.014
-194.018
-194.022
-194.026
-194.029
-194.031
-194.033
-194.035
-194.036
-194.037
-194.037
-194.037
-194.036
-194.035
-194.034
-194.033
-194.031
-194.028
-194.026
-194.023
-194.02
-194.016
-194.012
-194.008
-194.004
-193.999
-193.994
-193.989
-193.984
-193.978
-193.972
-193.966
-193.96
-193.953
-193.947
-193.94
-193.933
-193.925
-193.918
-193.91
-193.902
-193.894
-193.886
-193.877
-193.869
-193.86
-193.851
-193.842
-193.833
-193.824
-193.814
-193.804
-193.795
-193.785
-193.775
-193.765
-193.754
-193.744
-193.733
-193.723
-193.712
-193.701
-193.69
-193.679
-193.668
-193.657
-193.645
-193.634
-193.622
-193.611
-193.599
-193.587
-193.575
-193.563
-193.551
-193.539
-193.527
-193.514
-193.502
-193.489
-193.477
-193.464
-193.451
-193.439
-193.426
-193.413
-193.4
-193.387
-193.374
-193.36
-193.347
-193.334
-193.32
-193.307
-193.294
-193.28
-193.266
-193.253
-193.239
-193.225
-193.211
-193.197
-193.184
-193.17
-193.156
-193.141
-193.127
-193.113
-193.099
-193.085
-193.07
-193.056
-193.041
-193.027
-193.013
-192.998
-192.983
-192.969
-192.954
-192.939
-192.925
-192.91
-192.895
-192.88
-192.865
-192.85
-192.835
-192.82
-192.805
-192.79
-192.775
-192.76
-192.745
-192.729
-192.714
-192.699
-192.683
-192.668
-192.653
-192.637
-192.622
-192.606
-192.591
-192.575
-192.56
-192.544
-192.528
-192.513
-192.497
-192.481
-192.466
-192.45
-192.434
-192.418
-192.402
-192.386
-192.37
-192.354
-192.339
-192.323
-192.306
-192.29
-192.274
-192.258
-192.242
-192.226
-192.21
-192.194
-192.177
-192.161
-192.145
-192.129
-192.112
-192.096
-192.08
-192.063
-192.047
-192.031
-192.014
-191.998
-191.981
-191.965
-191.948
-191.932
-191.915
-191.899
-191.882
-191.865
-191.849
-191.832
-191.816
-191.799
-191.782
-191.766
-191.749
-191.732
-191.715
-191.699
-191.682
-191.665
-191.648
-191.631
-191.615
-191.598
-191.581
-191.564
-191.547
-191.53
-191.513
-191.496
-191.479
-191.462
-191.445
-191.428
-191.411
-191.394
-191.377
-191.36
-191.343
-191.326
-191.309
-191.292
-191.275
-191.258
-191.24
-191.223
-191.206
-191.189
-191.172
-191.155
-191.137
-191.12
-191.103
-191.086
-191.068
-191.051
-191.034
-191.017
-190.999
-190.982
-190.965
-190.947
-190.93
-190.913
-190.895
-190.878
-190.861
-190.843
-190.826
-190.809
-190.791
-190.774
-190.756
-190.739
-190.722
-190.704
-190.687
-190.669
-190.652
-190.634
-190.617
-190.599
-190.582
-190.565
-190.547
-190.53
-190.512
-190.495
-190.477
-190.46
-190.442
-190.425
-190.407
-190.39
-190.372
-190.355
-190.337
-190.32
-190.302
-190.285
-190.267
-190.25
-190.232
-190.215
-190.197
-190.18
-190.162
-190.145
-190.127
-190.11
-190.092
-190.075
-190.057
-190.04
-190.022
-190.005
-189.987
-189.97
-189.952
-189.935
-189.917
-189.9
-189.882
-189.865
-189.847
-189.83
-189.812
-189.795
-189.777
-189.76
-189.742
-189.725
-189.707
-189.69
-189.672
-189.655
-189.637
-189.62
-189.602
-189.585
-189.567
-189.55
-189.532
-189.515
-189.497
-189.48
-189.462
-189.445
-189.427
-189.41
-189.393
-189.375
-189.358
-189.34
-189.323
-189.305
-189.288
-189.27
-189.253
-189.236
-189.218
-189.201
-189.183
-189.166
-189.149
-189.131
-189.114
-189.097
-189.079
-189.062
-189.045
-189.027
-189.01
-188.993
-188.976
-188.958
-188.941
-188.924
-188.907
-188.889
-188.872
-188.855
-188.838
-188.821
-188.804
-188.786
-188.769
-188.752
-188.735
-188.718
-188.701
-188.684
-188.667
-188.65
-188.633
-188.616
-188.599
-188.582
-188.565
-188.548
-188.531
-188.514
-188.497
-188.48
-188.463
-188.447
-188.43
-188.413
-188.396
-188.379
-188.363
-188.346
-188.329
-188.313
-188.296
-188.279
-188.263
-188.246
-188.229
-188.213
-188.196
-188.18
-188.163
-188.147
-188.13
-188.114
-188.097
-188.081
-188.064
-188.048
-188.032
-188.015
-187.999
-187.983
-187.966
-187.95
-187.934
-187.917
-187.901
-187.885
-187.869
-187.853
-187.837
-187.821
-187.804
-187.788
-187.772
-187.756
-187.74
-187.724
-187.708
-187.692
-187.677
-187.661
-187.645
-187.629
-187.613
-187.597
-187.582
-187.566
-187.55
-187.534
-187.519
-187.503
-187.487
-187.472
-187.456
-187.441
-187.425
-187.41
-187.394
-187.379
-187.363
-187.348
-187.332
-187.317
-187.302
-187.286
-187.271
-187.256
-187.241
-187.225
-187.21
-187.195
-187.18
-187.165
-187.15
-187.134
-187.119
-187.104
-187.089
-187.074
-187.059
-187.044
-187.03
-187.015
-187
-186.985
-186.97
-186.955
-186.941
-186.926
-186.911
-186.896
-186.882
-186.867
-186.852
-186.838
-186.823
-186.809
-186.794
-186.78
-186.765
-186.751
-186.736
-186.722
-186.708
-186.693
-186.679
-186.665
-186.65
-186.636
-186.622
-186.607
-186.593
-186.579
-186.565
-186.551
-186.537
-186.523
-186.508
-186.494
-186.48
-186.466
-186.452
-186.438
-186.424
-186.41
-186.397
-186.383
-186.369
-186.355
-186.341
-186.327
-186.314
-186.3
-186.286
-186.272
-186.259
-186.245
-186.231
-186.217
-186.204
-186.19
-186.177
-186.163
-186.149
-186.136
-186.122
-186.109
-186.095
-186.082
-186.068
-186.055
-186.041
-186.028
-186.014
-186.001
-185.987
-185.974
-185.96
-185.947
-185.933
-185.92
-185.907
-185.893
-185.88
-185.866
-185.853
-185.839
-185.826
-185.813
-185.799
-185.786
-185.772
-185.759
-185.745
-185.732
-185.718
-185.705
-185.691
-185.678
-185.664
-185.65
-185.637
-185.623
-185.609
-185.595
-185.582
-185.568
-185.554
-185.54
-185.526
-185.512
-185.498
-185.484
-185.47
-185.456
-185.441
-185.427
-185.412
-185.398
-185.383
-185.369
-185.354
-185.339
-185.324
-185.309
-185.294
-185.279
-185.263
-185.248
-185.232
-185.217
-185.201
-185.185
-185.169
-185.153
-185.136
-185.12
-185.103
-185.086
-185.069
-185.052
-185.034
-185.017
-184.999
-184.981
-184.962
-184.944
-184.925
-184.906
-184.887
-184.867
-184.847
-184.827
-184.807
-184.786
-184.765
-184.743
-184.722
-184.7
-184.677
-184.654
-184.631
-184.607
-184.583
-184.559
-184.534
-184.508
-184.482
-184.456
-184.429
-184.401
-184.373
-184.345
-184.315
-184.286
-184.255
-184.224
-184.192
-184.159
-184.126
-184.092
-184.057
-184.022
-183.985
-183.948
-183.91
-183.871
-183.83
-183.789
-183.747
-183.704
-183.66
-183.615
-183.568
-183.521
-183.472
-183.422
-183.37
-183.317
-183.263
-183.207
-183.15
-183.091
-183.031
-182.969
-182.905
-182.84
-182.773
-182.704
-182.633
-182.559
-182.484
-182.407
-182.328
-182.246
-182.162
-182.075
-181.986
-181.895
-181.8
-181.703
-181.603
-181.501
-181.395
-181.286
-181.173
-181.058
-180.939
-180.816
-180.69
-180.56
-180.426
-180.288
-180.146
-180
-179.849
-179.693
-179.533
-179.368
-179.198
-179.023
-178.842
-178.656
-178.464
-178.266
-178.062
-177.851
-177.634
-177.411
-177.18
-176.943
-176.698
-176.445
-176.185
-175.916
-175.639
-175.353
-175.059
-174.755
-174.441
-174.118
-173.785
-173.441
-173.086
-172.72
-172.343
-171.954
-171.552
-171.138
-170.71
-170.27
-169.815
-169.345
-168.861
-168.361
-167.846
-167.314
-166.765
-166.199
-165.614
-165.011
-164.389
-163.747
-163.084
-162.399
-161.693
-160.964
-160.212
-159.435
-158.633
-157.805
-156.951
-156.068
-155.157
-154.217
-153.245
-152.242
-151.206
-150.136
-149.031
-147.889
-146.709
-145.491
-144.231
-142.93
-141.585
-140.195
-138.757
-137.272
-135.735
-134.146
-132.502
-130.801
-129.042
-127.22
-125.335
-123.382
-121.36
-119.264
-117.093
-114.841
-112.506
-110.083
-107.568
-104.955
-102.241
-99.4186
-96.482
-93.4243
-90.2378
-86.914
-83.4432
-79.8147
-76.0158
-72.0324
-67.8475
-63.4413
-58.7898
-53.8636
-48.6255
-43.0275
-37.0048
-30.4654
-23.2689
-15.3448
-5.67405
-86.4408
-79.8132
-100.604
-81.6226
-84.7412
-83.1534
-83.3961
-84.567
-86.3207
-88.4441
-90.7991
-93.2938
-95.8656
-98.4716
-101.082
-103.675
-106.237
-108.757
-111.228
-113.645
-116.004
-118.304
-120.544
-122.722
-124.84
-126.898
-128.896
-130.835
-132.717
-134.542
-136.313
-138.03
-139.695
-141.309
-142.873
-144.389
-145.859
-147.283
-148.663
-150.001
-151.297
-152.552
-153.769
-154.948
-156.091
-157.197
-158.27
-159.308
-160.315
-161.29
-162.235
-163.15
-164.037
-164.896
-165.729
-166.535
-167.316
-168.073
-168.807
-169.517
-170.205
-170.872
-171.517
-172.143
-172.749
-173.336
-173.905
-174.456
-174.989
-175.506
-176.007
-176.492
-176.962
-177.417
-177.857
-178.284
-178.698
-179.098
-179.486
-179.862
-180.226
-180.578
-180.919
-181.25
-181.57
-181.88
-182.18
-182.47
-182.752
-183.024
-183.288
-183.543
-183.79
-184.03
-184.261
-184.486
-184.703
-184.913
-185.116
-185.313
-185.504
-185.688
-185.867
-186.039
-186.206
-186.368
-186.524
-186.676
-186.822
-186.963
-187.1
-187.233
-187.361
-187.485
-187.604
-187.72
-187.832
-187.94
-188.045
-188.146
-188.244
-188.338
-188.429
-188.517
-188.602
-188.684
-188.764
-188.84
-188.914
-188.985
-189.054
-189.121
-189.185
-189.247
-189.306
-189.364
-189.419
-189.472
-189.524
-189.573
-189.621
-189.667
-189.711
-189.753
-189.794
-189.834
-189.871
-189.908
-189.942
-189.976
-190.008
-190.039
-190.068
-190.096
-190.123
-190.149
-190.174
-190.198
-190.22
-190.242
-190.262
-190.282
-190.3
-190.318
-190.335
-190.351
-190.366
-190.38
-190.394
-190.407
-190.419
-190.43
-190.441
-190.451
-190.46
-190.469
-190.477
-190.484
-190.491
-190.497
-190.503
-190.508
-190.512
-190.516
-190.52
-190.523
-190.526
-190.528
-190.53
-190.531
-190.532
-190.532
-190.532
-190.532
-190.531
-190.53
-190.529
-190.527
-190.525
-190.522
-190.52
-190.517
-190.513
-190.51
-190.506
-190.501
-190.497
-190.492
-190.487
-190.482
-190.477
-190.471
-190.465
-190.459
-190.452
-190.446
-190.439
-190.432
-190.425
-190.418
-190.41
-190.402
-190.394
-190.386
-190.378
-190.37
-190.361
-190.352
-190.343
-190.334
-190.325
-190.316
-190.307
-190.297
-190.287
-190.277
-190.267
-190.257
-190.247
-190.237
-190.226
-190.216
-190.205
-190.194
-190.183
-190.172
-190.161
-190.15
-190.139
-190.128
-190.116
-190.105
-190.093
-190.081
-190.069
-190.057
-190.045
-190.033
-190.021
-190.009
-189.997
-189.984
-189.972
-189.959
-189.947
-189.934
-189.921
-189.909
-189.896
-189.883
-189.87
-189.857
-189.844
-189.83
-189.817
-189.804
-189.79
-189.777
-189.764
-189.75
-189.737
-189.723
-189.709
-189.695
-189.682
-189.668
-189.654
-189.64
-189.626
-189.612
-189.598
-189.584
-189.57
-189.556
-189.541
-189.527
-189.513
-189.498
-189.484
-189.469
-189.455
-189.44
-189.426
-189.411
-189.397
-189.382
-189.367
-189.352
-189.338
-189.323
-189.308
-189.293
-189.278
-189.263
-189.248
-189.233
-189.218
-189.203
-189.188
-189.173
-189.157
-189.142
-189.127
-189.112
-189.096
-189.081
-189.066
-189.05
-189.035
-189.019
-189.004
-188.988
-188.973
-188.957
-188.941
-188.926
-188.91
-188.895
-188.879
-188.863
-188.847
-188.832
-188.816
-188.8
-188.784
-188.768
-188.752
-188.736
-188.72
-188.704
-188.689
-188.672
-188.656
-188.64
-188.624
-188.608
-188.592
-188.576
-188.56
-188.544
-188.527
-188.511
-188.495
-188.479
-188.463
-188.446
-188.43
-188.414
-188.397
-188.381
-188.365
-188.348
-188.332
-188.315
-188.299
-188.282
-188.266
-188.249
-188.233
-188.216
-188.2
-188.183
-188.167
-188.15
-188.134
-188.117
-188.1
-188.084
-188.067
-188.05
-188.034
-188.017
-188
-187.984
-187.967
-187.95
-187.933
-187.917
-187.9
-187.883
-187.866
-187.849
-187.833
-187.816
-187.799
-187.782
-187.765
-187.748
-187.731
-187.714
-187.697
-187.681
-187.664
-187.647
-187.63
-187.613
-187.596
-187.579
-187.562
-187.545
-187.528
-187.511
-187.494
-187.477
-187.46
-187.442
-187.425
-187.408
-187.391
-187.374
-187.357
-187.34
-187.323
-187.306
-187.289
-187.271
-187.254
-187.237
-187.22
-187.203
-187.186
-187.169
-187.151
-187.134
-187.117
-187.1
-187.083
-187.066
-187.048
-187.031
-187.014
-186.997
-186.98
-186.962
-186.945
-186.928
-186.911
-186.894
-186.876
-186.859
-186.842
-186.825
-186.808
-186.79
-186.773
-186.756
-186.739
-186.721
-186.704
-186.687
-186.67
-186.653
-186.635
-186.618
-186.601
-186.584
-186.567
-186.549
-186.532
-186.515
-186.498
-186.481
-186.464
-186.446
-186.429
-186.412
-186.395
-186.378
-186.36
-186.343
-186.326
-186.309
-186.292
-186.274
-186.257
-186.24
-186.223
-186.206
-186.189
-186.171
-186.154
-186.137
-186.12
-186.103
-186.086
-186.068
-186.051
-186.034
-186.017
-186
-185.983
-185.965
-185.948
-185.931
-185.914
-185.897
-185.88
-185.863
-185.846
-185.828
-185.811
-185.794
-185.777
-185.76
-185.743
-185.726
-185.709
-185.692
-185.675
-185.658
-185.641
-185.624
-185.607
-185.59
-185.573
-185.556
-185.539
-185.522
-185.505
-185.488
-185.471
-185.454
-185.437
-185.42
-185.403
-185.387
-185.37
-185.353
-185.336
-185.319
-185.302
-185.286
-185.269
-185.252
-185.235
-185.219
-185.202
-185.185
-185.169
-185.152
-185.135
-185.119
-185.102
-185.086
-185.069
-185.052
-185.036
-185.019
-185.003
-184.986
-184.97
-184.953
-184.937
-184.921
-184.904
-184.888
-184.871
-184.855
-184.839
-184.823
-184.806
-184.79
-184.774
-184.757
-184.741
-184.725
-184.709
-184.693
-184.677
-184.661
-184.644
-184.628
-184.612
-184.596
-184.58
-184.564
-184.548
-184.533
-184.517
-184.501
-184.485
-184.469
-184.453
-184.437
-184.422
-184.406
-184.39
-184.374
-184.359
-184.343
-184.327
-184.312
-184.296
-184.281
-184.265
-184.25
-184.234
-184.219
-184.203
-184.188
-184.172
-184.157
-184.142
-184.126
-184.111
-184.096
-184.08
-184.065
-184.05
-184.035
-184.02
-184.004
-183.989
-183.974
-183.959
-183.944
-183.929
-183.914
-183.899
-183.884
-183.869
-183.854
-183.839
-183.825
-183.81
-183.795
-183.78
-183.765
-183.751
-183.736
-183.721
-183.707
-183.692
-183.677
-183.663
-183.648
-183.634
-183.619
-183.604
-183.59
-183.576
-183.561
-183.547
-183.532
-183.518
-183.504
-183.489
-183.475
-183.461
-183.446
-183.432
-183.418
-183.404
-183.39
-183.375
-183.361
-183.347
-183.333
-183.319
-183.305
-183.291
-183.277
-183.263
-183.249
-183.235
-183.221
-183.207
-183.193
-183.18
-183.166
-183.152
-183.138
-183.124
-183.111
-183.097
-183.083
-183.07
-183.056
-183.042
-183.029
-183.015
-183.002
-182.988
-182.974
-182.961
-182.947
-182.934
-182.92
-182.907
-182.893
-182.88
-182.867
-182.853
-182.84
-182.827
-182.813
-182.8
-182.787
-182.773
-182.76
-182.747
-182.733
-182.72
-182.707
-182.694
-182.68
-182.667
-182.654
-182.641
-182.628
-182.615
-182.601
-182.588
-182.575
-182.562
-182.549
-182.536
-182.522
-182.509
-182.496
-182.483
-182.47
-182.457
-182.443
-182.43
-182.417
-182.404
-182.391
-182.377
-182.364
-182.351
-182.337
-182.324
-182.311
-182.297
-182.284
-182.271
-182.257
-182.244
-182.23
-182.216
-182.203
-182.189
-182.175
-182.162
-182.148
-182.134
-182.12
-182.106
-182.092
-182.078
-182.064
-182.049
-182.035
-182.021
-182.006
-181.992
-181.977
-181.962
-181.947
-181.932
-181.917
-181.902
-181.887
-181.871
-181.856
-181.84
-181.824
-181.808
-181.792
-181.775
-181.759
-181.742
-181.725
-181.708
-181.691
-181.674
-181.656
-181.638
-181.62
-181.602
-181.583
-181.565
-181.546
-181.526
-181.507
-181.487
-181.466
-181.446
-181.425
-181.404
-181.382
-181.361
-181.338
-181.316
-181.293
-181.269
-181.245
-181.221
-181.196
-181.171
-181.145
-181.119
-181.092
-181.065
-181.037
-181.009
-180.98
-180.95
-180.92
-180.889
-180.857
-180.825
-180.792
-180.758
-180.723
-180.688
-180.652
-180.614
-180.576
-180.538
-180.498
-180.457
-180.415
-180.372
-180.328
-180.283
-180.237
-180.189
-180.141
-180.091
-180.04
-179.987
-179.933
-179.877
-179.82
-179.762
-179.702
-179.64
-179.577
-179.511
-179.444
-179.375
-179.305
-179.232
-179.157
-179.08
-179.001
-178.919
-178.835
-178.749
-178.66
-178.569
-178.475
-178.378
-178.278
-178.176
-178.07
-177.961
-177.849
-177.734
-177.615
-177.493
-177.367
-177.237
-177.104
-176.966
-176.824
-176.678
-176.527
-176.372
-176.212
-176.047
-175.878
-175.703
-175.522
-175.336
-175.145
-174.947
-174.743
-174.533
-174.317
-174.094
-173.863
-173.626
-173.381
-173.129
-172.869
-172.601
-172.324
-172.039
-171.745
-171.441
-171.128
-170.805
-170.472
-170.129
-169.775
-169.409
-169.032
-168.644
-168.243
-167.829
-167.402
-166.962
-166.507
-166.039
-165.555
-165.056
-164.541
-164.01
-163.462
-162.896
-162.312
-161.71
-161.088
-160.446
-159.784
-159.101
-158.395
-157.667
-156.916
-156.14
-155.339
-154.512
-153.659
-152.777
-151.867
-150.928
-149.957
-148.955
-147.921
-146.852
-145.748
-144.607
-143.429
-142.212
-140.954
-139.655
-138.311
-136.923
-135.487
-134.003
-132.469
-130.882
-129.241
-127.542
-125.785
-123.966
-122.083
-120.134
-118.115
-116.023
-113.854
-111.607
-109.276
-106.857
-104.347
-101.74
-99.0313
-96.2152
-93.2856
-90.2356
-87.0577
-83.7436
-80.2838
-76.6677
-72.8833
-68.9167
-64.7518
-60.3697
-55.7477
-50.8586
-45.6686
-40.1354
-34.2044
-27.8041
-20.8416
-13.1892
-4.59756
-31.2306
-54.1281
-69.0166
-70.5389
-73.4253
-75.1416
-76.9356
-78.981
-81.2585
-83.7095
-86.2764
-88.9116
-91.5788
-94.2503
-96.9061
-99.5314
-102.116
-104.651
-107.132
-109.556
-111.92
-114.222
-116.463
-118.641
-120.758
-122.815
-124.811
-126.748
-128.627
-130.45
-132.218
-133.933
-135.595
-137.206
-138.767
-140.281
-141.748
-143.169
-144.547
-145.882
-147.175
-148.429
-149.643
-150.82
-151.96
-153.064
-154.135
-155.172
-156.176
-157.149
-158.092
-159.006
-159.891
-160.749
-161.579
-162.384
-163.164
-163.919
-164.651
-165.36
-166.047
-166.712
-167.357
-167.981
-168.586
-169.172
-169.74
-170.289
-170.822
-171.338
-171.838
-172.322
-172.791
-173.245
-173.685
-174.111
-174.524
-174.923
-175.311
-175.686
-176.049
-176.4
-176.741
-177.071
-177.39
-177.7
-177.999
-178.289
-178.57
-178.842
-179.106
-179.36
-179.607
-179.846
-180.077
-180.301
-180.518
-180.728
-180.931
-181.128
-181.318
-181.502
-181.68
-181.853
-182.019
-182.181
-182.337
-182.488
-182.634
-182.776
-182.912
-183.045
-183.172
-183.296
-183.416
-183.531
-183.643
-183.751
-183.856
-183.957
-184.054
-184.149
-184.24
-184.328
-184.413
-184.495
-184.574
-184.651
-184.724
-184.796
-184.865
-184.931
-184.995
-185.057
-185.116
-185.174
-185.229
-185.283
-185.334
-185.384
-185.431
-185.477
-185.521
-185.564
-185.605
-185.644
-185.682
-185.718
-185.753
-185.787
-185.819
-185.85
-185.879
-185.907
-185.935
-185.961
-185.985
-186.009
-186.032
-186.054
-186.074
-186.094
-186.113
-186.13
-186.147
-186.163
-186.179
-186.193
-186.207
-186.22
-186.232
-186.243
-186.254
-186.264
-186.274
-186.282
-186.291
-186.298
-186.305
-186.311
-186.317
-186.323
-186.327
-186.332
-186.335
-186.339
-186.341
-186.344
-186.346
-186.347
-186.348
-186.349
-186.349
-186.349
-186.348
-186.347
-186.346
-186.345
-186.343
-186.34
-186.338
-186.335
-186.332
-186.328
-186.325
-186.321
-186.316
-186.312
-186.307
-186.302
-186.297
-186.291
-186.285
-186.28
-186.273
-186.267
-186.26
-186.254
-186.247
-186.24
-186.232
-186.225
-186.217
-186.209
-186.201
-186.193
-186.185
-186.176
-186.167
-186.159
-186.15
-186.141
-186.131
-186.122
-186.113
-186.103
-186.093
-186.083
-186.073
-186.063
-186.053
-186.043
-186.032
-186.022
-186.011
-186
-185.99
-185.979
-185.968
-185.956
-185.945
-185.934
-185.923
-185.911
-185.899
-185.888
-185.876
-185.864
-185.852
-185.84
-185.828
-185.816
-185.804
-185.792
-185.779
-185.767
-185.754
-185.742
-185.729
-185.717
-185.704
-185.691
-185.678
-185.665
-185.652
-185.639
-185.626
-185.613
-185.6
-185.587
-185.573
-185.56
-185.547
-185.533
-185.52
-185.506
-185.492
-185.479
-185.465
-185.451
-185.437
-185.424
-185.41
-185.396
-185.382
-185.368
-185.354
-185.34
-185.325
-185.311
-185.297
-185.283
-185.268
-185.254
-185.24
-185.225
-185.211
-185.196
-185.182
-185.167
-185.153
-185.138
-185.123
-185.108
-185.094
-185.079
-185.064
-185.049
-185.034
-185.019
-185.005
-184.99
-184.975
-184.96
-184.944
-184.929
-184.914
-184.899
-184.884
-184.869
-184.853
-184.838
-184.823
-184.808
-184.792
-184.777
-184.761
-184.746
-184.731
-184.715
-184.7
-184.684
-184.668
-184.653
-184.637
-184.622
-184.606
-184.59
-184.575
-184.559
-184.543
-184.527
-184.512
-184.496
-184.48
-184.464
-184.448
-184.432
-184.416
-184.401
-184.385
-184.369
-184.353
-184.337
-184.321
-184.305
-184.289
-184.272
-184.256
-184.24
-184.224
-184.208
-184.192
-184.176
-184.159
-184.143
-184.127
-184.111
-184.094
-184.078
-184.062
-184.045
-184.029
-184.013
-183.996
-183.98
-183.964
-183.947
-183.931
-183.914
-183.898
-183.881
-183.865
-183.848
-183.832
-183.815
-183.799
-183.782
-183.766
-183.749
-183.733
-183.716
-183.699
-183.683
-183.666
-183.65
-183.633
-183.616
-183.6
-183.583
-183.566
-183.55
-183.533
-183.516
-183.5
-183.483
-183.466
-183.449
-183.433
-183.416
-183.399
-183.382
-183.366
-183.349
-183.332
-183.315
-183.298
-183.282
-183.265
-183.248
-183.231
-183.214
-183.198
-183.181
-183.164
-183.147
-183.13
-183.113
-183.096
-183.08
-183.063
-183.046
-183.029
-183.012
-182.995
-182.978
-182.961
-182.945
-182.928
-182.911
-182.894
-182.877
-182.86
-182.843
-182.826
-182.809
-182.792
-182.775
-182.759
-182.742
-182.725
-182.708
-182.691
-182.674
-182.657
-182.64
-182.623
-182.606
-182.589
-182.572
-182.556
-182.539
-182.522
-182.505
-182.488
-182.471
-182.454
-182.437
-182.42
-182.403
-182.386
-182.37
-182.353
-182.336
-182.319
-182.302
-182.285
-182.268
-182.252
-182.235
-182.218
-182.201
-182.184
-182.167
-182.15
-182.134
-182.117
-182.1
-182.083
-182.066
-182.05
-182.033
-182.016
-181.999
-181.982
-181.966
-181.949
-181.932
-181.915
-181.899
-181.882
-181.865
-181.848
-181.832
-181.815
-181.798
-181.782
-181.765
-181.748
-181.732
-181.715
-181.698
-181.682
-181.665
-181.648
-181.632
-181.615
-181.598
-181.582
-181.565
-181.549
-181.532
-181.516
-181.499
-181.483
-181.466
-181.449
-181.433
-181.416
-181.4
-181.384
-181.367
-181.351
-181.334
-181.318
-181.301
-181.285
-181.269
-181.252
-181.236
-181.219
-181.203
-181.187
-181.17
-181.154
-181.138
-181.122
-181.105
-181.089
-181.073
-181.057
-181.04
-181.024
-181.008
-180.992
-180.976
-180.96
-180.943
-180.927
-180.911
-180.895
-180.879
-180.863
-180.847
-180.831
-180.815
-180.799
-180.783
-180.767
-180.751
-180.735
-180.72
-180.704
-180.688
-180.672
-180.656
-180.64
-180.625
-180.609
-180.593
-180.577
-180.562
-180.546
-180.53
-180.515
-180.499
-180.483
-180.468
-180.452
-180.437
-180.421
-180.406
-180.39
-180.375
-180.359
-180.344
-180.329
-180.313
-180.298
-180.283
-180.267
-180.252
-180.237
-180.221
-180.206
-180.191
-180.176
-180.161
-180.146
-180.131
-180.115
-180.1
-180.085
-180.07
-180.055
-180.04
-180.025
-180.011
-179.996
-179.981
-179.966
-179.951
-179.936
-179.922
-179.907
-179.892
-179.877
-179.863
-179.848
-179.834
-179.819
-179.804
-179.79
-179.775
-179.761
-179.746
-179.732
-179.717
-179.703
-179.689
-179.674
-179.66
-179.646
-179.631
-179.617
-179.603
-179.589
-179.574
-179.56
-179.546
-179.532
-179.518
-179.504
-179.49
-179.476
-179.462
-179.448
-179.434
-179.42
-179.406
-179.392
-179.378
-179.364
-179.35
-179.337
-179.323
-179.309
-179.295
-179.282
-179.268
-179.254
-179.241
-179.227
-179.213
-179.2
-179.186
-179.173
-179.159
-179.146
-179.132
-179.119
-179.105
-179.092
-179.079
-179.065
-179.052
-179.039
-179.025
-179.012
-178.999
-178.986
-178.973
-178.959
-178.946
-178.933
-178.92
-178.907
-178.894
-178.881
-178.868
-178.854
-178.841
-178.828
-178.815
-178.802
-178.789
-178.777
-178.764
-178.751
-178.738
-178.725
-178.712
-178.699
-178.686
-178.673
-178.66
-178.648
-178.635
-178.622
-178.609
-178.596
-178.583
-178.571
-178.558
-178.545
-178.532
-178.519
-178.506
-178.494
-178.481
-178.468
-178.455
-178.442
-178.429
-178.417
-178.404
-178.391
-178.378
-178.365
-178.352
-178.339
-178.326
-178.313
-178.3
-178.287
-178.274
-178.261
-178.247
-178.234
-178.221
-178.208
-178.194
-178.181
-178.167
-178.154
-178.141
-178.127
-178.113
-178.1
-178.086
-178.072
-178.058
-178.044
-178.03
-178.016
-178.002
-177.987
-177.973
-177.958
-177.944
-177.929
-177.914
-177.899
-177.884
-177.869
-177.854
-177.838
-177.823
-177.807
-177.791
-177.775
-177.759
-177.742
-177.726
-177.709
-177.692
-177.675
-177.657
-177.64
-177.622
-177.604
-177.586
-177.567
-177.548
-177.529
-177.51
-177.49
-177.47
-177.45
-177.429
-177.409
-177.387
-177.366
-177.344
-177.321
-177.298
-177.275
-177.252
-177.228
-177.203
-177.178
-177.153
-177.127
-177.1
-177.073
-177.045
-177.017
-176.988
-176.959
-176.929
-176.898
-176.867
-176.835
-176.802
-176.769
-176.734
-176.699
-176.663
-176.626
-176.589
-176.55
-176.51
-176.47
-176.428
-176.386
-176.342
-176.297
-176.251
-176.204
-176.156
-176.106
-176.055
-176.003
-175.949
-175.894
-175.837
-175.779
-175.719
-175.657
-175.594
-175.529
-175.463
-175.394
-175.324
-175.251
-175.176
-175.1
-175.021
-174.94
-174.856
-174.77
-174.682
-174.591
-174.497
-174.401
-174.301
-174.199
-174.094
-173.985
-173.874
-173.759
-173.641
-173.519
-173.393
-173.264
-173.131
-172.993
-172.852
-172.706
-172.556
-172.401
-172.242
-172.077
-171.908
-171.734
-171.554
-171.368
-171.177
-170.98
-170.777
-170.567
-170.351
-170.129
-169.899
-169.663
-169.419
-169.167
-168.907
-168.64
-168.364
-168.079
-167.786
-167.483
-167.171
-166.849
-166.517
-166.174
-165.821
-165.456
-165.08
-164.692
-164.292
-163.879
-163.453
-163.014
-162.561
-162.093
-161.61
-161.112
-160.599
-160.069
-159.522
-158.957
-158.375
-157.774
-157.153
-156.513
-155.853
-155.171
-154.467
-153.74
-152.99
-152.216
-151.417
-150.592
-149.741
-148.861
-147.953
-147.016
-146.048
-145.048
-144.016
-142.949
-141.848
-140.71
-139.535
-138.321
-137.066
-135.769
-134.429
-133.045
-131.613
-130.133
-128.602
-127.02
-125.383
-123.689
-121.937
-120.123
-118.246
-116.302
-114.289
-112.204
-110.043
-107.803
-105.481
-103.071
-100.571
-97.9742
-95.2771
-92.4738
-89.5581
-86.5236
-83.363
-80.0682
-76.6304
-73.0394
-69.284
-65.3511
-61.226
-56.8916
-52.3279
-47.5115
-42.4144
-37.0035
-31.2394
-25.077
-18.4695
-11.3777
-3.8323
-15.5922
-36.8334
-50.9078
-58.3249
-63.4787
-67.2548
-70.4271
-73.3662
-76.2262
-79.0627
-81.8888
-84.7013
-87.4911
-90.2484
-92.9645
-95.6324
-98.2464
-100.803
-103.298
-105.731
-108.101
-110.406
-112.648
-114.826
-116.942
-118.996
-120.989
-122.923
-124.799
-126.618
-128.382
-130.092
-131.75
-133.357
-134.914
-136.424
-137.887
-139.304
-140.678
-142.009
-143.299
-144.549
-145.76
-146.933
-148.07
-149.171
-150.238
-151.272
-152.274
-153.244
-154.185
-155.096
-155.978
-156.833
-157.662
-158.464
-159.242
-159.995
-160.724
-161.431
-162.116
-162.78
-163.422
-164.045
-164.648
-165.232
-165.798
-166.347
-166.878
-167.392
-167.891
-168.374
-168.841
-169.294
-169.733
-170.158
-170.569
-170.968
-171.354
-171.728
-172.09
-172.441
-172.781
-173.11
-173.429
-173.737
-174.036
-174.325
-174.605
-174.877
-175.139
-175.394
-175.64
-175.878
-176.109
-176.332
-176.549
-176.758
-176.961
-177.157
-177.347
-177.53
-177.708
-177.88
-178.047
-178.208
-178.363
-178.514
-178.66
-178.801
-178.938
-179.07
-179.197
-179.321
-179.44
-179.556
-179.667
-179.775
-179.88
-179.981
-180.078
-180.172
-180.263
-180.351
-180.436
-180.518
-180.597
-180.674
-180.748
-180.819
-180.888
-180.954
-181.018
-181.08
-181.139
-181.197
-181.252
-181.306
-181.357
-181.407
-181.454
-181.5
-181.545
-181.587
-181.628
-181.668
-181.706
-181.742
-181.777
-181.811
-181.843
-181.874
-181.903
-181.932
-181.959
-181.985
-182.01
-182.034
-182.057
-182.079
-182.1
-182.119
-182.138
-182.156
-182.173
-182.19
-182.205
-182.22
-182.234
-182.247
-182.259
-182.271
-182.282
-182.292
-182.301
-182.31
-182.319
-182.327
-182.334
-182.34
-182.346
-182.352
-182.357
-182.361
-182.365
-182.369
-182.372
-182.375
-182.377
-182.378
-182.38
-182.381
-182.381
-182.381
-182.381
-182.38
-182.379
-182.378
-182.376
-182.374
-182.372
-182.369
-182.366
-182.363
-182.36
-182.356
-182.352
-182.348
-182.343
-182.339
-182.334
-182.328
-182.323
-182.317
-182.311
-182.305
-182.299
-182.293
-182.286
-182.279
-182.272
-182.265
-182.257
-182.25
-182.242
-182.234
-182.226
-182.218
-182.21
-182.201
-182.193
-182.184
-182.175
-182.166
-182.157
-182.148
-182.138
-182.129
-182.119
-182.109
-182.099
-182.089
-182.079
-182.069
-182.059
-182.048
-182.038
-182.027
-182.017
-182.006
-181.995
-181.984
-181.973
-181.962
-181.951
-181.939
-181.928
-181.916
-181.905
-181.893
-181.882
-181.87
-181.858
-181.846
-181.834
-181.822
-181.81
-181.798
-181.786
-181.773
-181.761
-181.749
-181.736
-181.724
-181.711
-181.698