/*--------------------------------*- C++ -*----------------------------------*\
| =========                 |                                                 |
| \\      /  F ield         | OpenFOAM: The Open Source CFD Toolbox           |
|  \\    /   O peration     | Version:  2512                                  |
|   \\  /    A nd           | Website:  www.openfoam.com                      |
|    \\/     M anipulation  |                                                 |
\*---------------------------------------------------------------------------*/
FoamFile
{
    version     2.0;
    format      ascii;
    arch        "LSB;label=32;scalar=64";
    class       surfaceScalarField;
    location    "2e-05";
    object      phi;
}
// * * * * * * * * * * * * * * * * * * * * * * * * * * * * * * * * * * * * * //

dimensions      [1 0 -1 0 0 0 0];

oriented        oriented;

internalField   nonuniform List<scalar> 
198900
(
-0.595774
-0.000226025
-0.594935
-0.000168961
-0.594264
-0.000224293
-0.593611
-0.000206921
-0.592946
-0.000217383
-0.592282
-0.000217331
-0.591617
-0.000218469
-0.590952
-0.000219152
-0.590285
-0.000219628
-0.589619
-0.000219966
-0.588952
-0.000220212
-0.588285
-0.000220394
-0.587618
-0.000220533
-0.586951
-0.00022064
-0.586283
-0.000220724
-0.585616
-0.00022079
-0.584949
-0.000220843
-0.584281
-0.000220884
-0.583614
-0.000220918
-0.582946
-0.000220944
-0.582279
-0.000220965
-0.581611
-0.000220981
-0.580944
-0.000220993
-0.580277
-0.000221001
-0.579609
-0.000221007
-0.578942
-0.00022101
-0.578275
-0.00022101
-0.577607
-0.000221009
-0.57694
-0.000221006
-0.576273
-0.000221001
-0.575605
-0.000220994
-0.574938
-0.000220986
-0.574271
-0.000220977
-0.573604
-0.000220967
-0.572937
-0.000220956
-0.57227
-0.000220943
-0.571603
-0.00022093
-0.570936
-0.000220916
-0.570269
-0.000220901
-0.569602
-0.000220885
-0.568936
-0.000220868
-0.568269
-0.00022085
-0.567602
-0.000220832
-0.566936
-0.000220813
-0.566269
-0.000220793
-0.565603
-0.000220773
-0.564937
-0.000220752
-0.56427
-0.00022073
-0.563604
-0.000220708
-0.562938
-0.000220685
-0.562272
-0.000220661
-0.561606
-0.000220637
-0.56094
-0.000220612
-0.560274
-0.000220587
-0.559608
-0.000220561
-0.558942
-0.000220534
-0.558277
-0.000220507
-0.557611
-0.00022048
-0.556946
-0.000220451
-0.55628
-0.000220423
-0.555615
-0.000220393
-0.55495
-0.000220364
-0.554285
-0.000220333
-0.55362
-0.000220302
-0.552955
-0.000220271
-0.55229
-0.000220239
-0.551625
-0.000220207
-0.550961
-0.000220174
-0.550296
-0.00022014
-0.549632
-0.000220106
-0.548967
-0.000220072
-0.548303
-0.000220036
-0.547639
-0.000220001
-0.546975
-0.000219965
-0.546311
-0.000219928
-0.545647
-0.000219891
-0.544984
-0.000219853
-0.54432
-0.000219815
-0.543657
-0.000219777
-0.542993
-0.000219738
-0.54233
-0.000219698
-0.541667
-0.000219658
-0.541004
-0.000219618
-0.540341
-0.000219576
-0.539679
-0.000219535
-0.539016
-0.000219493
-0.538354
-0.00021945
-0.537691
-0.000219407
-0.537029
-0.000219364
-0.536367
-0.00021932
-0.535705
-0.000219275
-0.535043
-0.00021923
-0.534382
-0.000219185
-0.53372
-0.000219139
-0.533059
-0.000219092
-0.532397
-0.000219045
-0.531736
-0.000218998
-0.531075
-0.00021895
-0.530414
-0.000218901
-0.529754
-0.000218852
-0.529093
-0.000218803
-0.528433
-0.000218753
-0.527773
-0.000218703
-0.527113
-0.000218652
-0.526453
-0.000218601
-0.525793
-0.000218549
-0.525133
-0.000218497
-0.524474
-0.000218444
-0.523814
-0.00021839
-0.523155
-0.000218337
-0.522496
-0.000218282
-0.521838
-0.000218228
-0.521179
-0.000218172
-0.52052
-0.000218117
-0.519862
-0.000218061
-0.519204
-0.000218004
-0.518546
-0.000217947
-0.517888
-0.000217889
-0.517231
-0.000217831
-0.516573
-0.000217772
-0.515916
-0.000217713
-0.515259
-0.000217654
-0.514602
-0.000217594
-0.513945
-0.000217533
-0.513288
-0.000217472
-0.512632
-0.000217411
-0.511976
-0.000217349
-0.51132
-0.000217286
-0.510664
-0.000217224
-0.510009
-0.00021716
-0.509353
-0.000217096
-0.508698
-0.000217032
-0.508043
-0.000216967
-0.507388
-0.000216902
-0.506733
-0.000216836
-0.506079
-0.00021677
-0.505425
-0.000216703
-0.504771
-0.000216636
-0.504117
-0.000216568
-0.503463
-0.0002165
-0.50281
-0.000216431
-0.502156
-0.000216362
-0.501503
-0.000216292
-0.500851
-0.000216222
-0.500198
-0.000216152
-0.499546
-0.000216081
-0.498893
-0.000216009
-0.498241
-0.000215937
-0.49759
-0.000215865
-0.496938
-0.000215792
-0.496287
-0.000215719
-0.495636
-0.000215645
-0.494985
-0.00021557
-0.494334
-0.000215496
-0.493684
-0.00021542
-0.493034
-0.000215345
-0.492384
-0.000215268
-0.491734
-0.000215192
-0.491085
-0.000215114
-0.490435
-0.000215037
-0.489786
-0.000214959
-0.489137
-0.00021488
-0.488489
-0.000214801
-0.487841
-0.000214721
-0.487193
-0.000214641
-0.486545
-0.000214561
-0.485897
-0.00021448
-0.48525
-0.000214398
-0.484603
-0.000214317
-0.483956
-0.000214234
-0.483309
-0.000214151
-0.482663
-0.000214068
-0.482017
-0.000213984
-0.481371
-0.0002139
-0.480725
-0.000213815
-0.48008
-0.00021373
-0.479435
-0.000213645
-0.47879
-0.000213559
-0.478146
-0.000213472
-0.477501
-0.000213385
-0.476857
-0.000213297
-0.476213
-0.000213209
-0.47557
-0.000213121
-0.474927
-0.000213032
-0.474284
-0.000212943
-0.473641
-0.000212853
-0.472999
-0.000212763
-0.472356
-0.000212672
-0.471715
-0.000212581
-0.471073
-0.000212489
-0.470432
-0.000212397
-0.469791
-0.000212304
-0.46915
-0.000212211
-0.468509
-0.000212118
-0.467869
-0.000212024
-0.467229
-0.00021193
-0.466589
-0.000211835
-0.46595
-0.000211739
-0.465311
-0.000211644
-0.464672
-0.000211547
-0.464034
-0.000211451
-0.463396
-0.000211353
-0.462758
-0.000211256
-0.46212
-0.000211158
-0.461483
-0.000211059
-0.460846
-0.00021096
-0.460209
-0.000210861
-0.459573
-0.000210761
-0.458936
-0.00021066
-0.458301
-0.00021056
-0.457665
-0.000210458
-0.45703
-0.000210357
-0.456395
-0.000210254
-0.45576
-0.000210152
-0.455126
-0.000210049
-0.454492
-0.000209945
-0.453859
-0.000209841
-0.453225
-0.000209737
-0.452592
-0.000209632
-0.451959
-0.000209527
-0.451327
-0.000209421
-0.450695
-0.000209315
-0.450063
-0.000209208
-0.449432
-0.000209101
-0.448801
-0.000208993
-0.44817
-0.000208885
-0.447539
-0.000208777
-0.446909
-0.000208668
-0.44628
-0.000208559
-0.44565
-0.000208449
-0.445021
-0.000208339
-0.444392
-0.000208228
-0.443764
-0.000208117
-0.443136
-0.000208005
-0.442508
-0.000207893
-0.44188
-0.000207781
-0.441253
-0.000207668
-0.440626
-0.000207554
-0.44
-0.000207441
-0.439374
-0.000207326
-0.438748
-0.000207212
-0.438123
-0.000207097
-0.437498
-0.000206981
-0.436873
-0.000206865
-0.436249
-0.000206749
-0.435625
-0.000206632
-0.435001
-0.000206515
-0.434378
-0.000206397
-0.433755
-0.000206279
-0.433132
-0.000206161
-0.43251
-0.000206042
-0.431888
-0.000205922
-0.431266
-0.000205802
-0.430645
-0.000205682
-0.430024
-0.000205561
-0.429404
-0.00020544
-0.428784
-0.000205319
-0.428164
-0.000205197
-0.427545
-0.000205074
-0.426926
-0.000204951
-0.426307
-0.000204828
-0.425689
-0.000204704
-0.425071
-0.00020458
-0.424454
-0.000204456
-0.423837
-0.000204331
-0.42322
-0.000204205
-0.422604
-0.00020408
-0.421988
-0.000203953
-0.421372
-0.000203827
-0.420757
-0.0002037
-0.420142
-0.000203572
-0.419528
-0.000203445
-0.418914
-0.000203316
-0.4183
-0.000203187
-0.417687
-0.000203058
-0.417074
-0.000202929
-0.416462
-0.000202799
-0.41585
-0.000202668
-0.415238
-0.000202537
-0.414627
-0.000202406
-0.414016
-0.000202275
-0.413405
-0.000202142
-0.412795
-0.00020201
-0.412185
-0.000201877
-0.411576
-0.000201744
-0.410967
-0.00020161
-0.410359
-0.000201476
-0.409751
-0.000201342
-0.409143
-0.000201207
-0.408536
-0.000201071
-0.407929
-0.000200936
-0.407322
-0.0002008
-0.406716
-0.000200663
-0.406111
-0.000200526
-0.405505
-0.000200389
-0.404901
-0.000200251
-0.404296
-0.000200113
-0.403692
-0.000199975
-0.403089
-0.000199836
-0.402486
-0.000199697
-0.401883
-0.000199557
-0.401281
-0.000199417
-0.400679
-0.000199276
-0.400077
-0.000199135
-0.399476
-0.000198994
-0.398876
-0.000198852
-0.398275
-0.00019871
-0.397676
-0.000198568
-0.397076
-0.000198425
-0.396478
-0.000198282
-0.395879
-0.000198138
-0.395281
-0.000197994
-0.394683
-0.00019785
-0.394086
-0.000197705
-0.39349
-0.00019756
-0.392893
-0.000197414
-0.392298
-0.000197269
-0.391702
-0.000197122
-0.391107
-0.000196976
-0.390513
-0.000196829
-0.389919
-0.000196681
-0.389325
-0.000196534
-0.388732
-0.000196385
-0.388139
-0.000196237
-0.387547
-0.000196088
-0.386955
-0.000195938
-0.386364
-0.000195789
-0.385773
-0.000195639
-0.385182
-0.000195488
-0.384592
-0.000195337
-0.384003
-0.000195186
-0.383414
-0.000195035
-0.382825
-0.000194883
-0.382237
-0.000194731
-0.381649
-0.000194578
-0.381062
-0.000194425
-0.380475
-0.000194272
-0.379889
-0.000194118
-0.379303
-0.000193965
-0.378717
-0.00019381
-0.378132
-0.000193656
-0.377548
-0.0001935
-0.376964
-0.000193345
-0.37638
-0.000193189
-0.375797
-0.000193033
-0.375215
-0.000192876
-0.374633
-0.00019272
-0.374051
-0.000192562
-0.37347
-0.000192405
-0.372889
-0.000192247
-0.372309
-0.000192088
-0.371729
-0.00019193
-0.37115
-0.000191771
-0.370571
-0.000191611
-0.369993
-0.000191452
-0.369415
-0.000191292
-0.368838
-0.000191132
-0.368261
-0.000190971
-0.367684
-0.00019081
-0.367108
-0.000190649
-0.366533
-0.000190487
-0.365958
-0.000190325
-0.365384
-0.000190163
-0.36481
-0.00019
-0.364236
-0.000189837
-0.363663
-0.000189674
-0.363091
-0.00018951
-0.362519
-0.000189346
-0.361948
-0.000189182
-0.361377
-0.000189017
-0.360806
-0.000188853
-0.360236
-0.000188687
-0.359667
-0.000188522
-0.359098
-0.000188356
-0.358529
-0.000188189
-0.357961
-0.000188023
-0.357394
-0.000187856
-0.356827
-0.000187689
-0.35626
-0.000187521
-0.355694
-0.000187354
-0.355129
-0.000187186
-0.354564
-0.000187017
-0.354
-0.000186848
-0.353436
-0.000186679
-0.352872
-0.00018651
-0.352309
-0.00018634
-0.351747
-0.000186171
-0.351185
-0.000186
-0.350624
-0.00018583
-0.350063
-0.000185659
-0.349502
-0.000185488
-0.348943
-0.000185317
-0.348383
-0.000185145
-0.347825
-0.000184973
-0.347266
-0.000184801
-0.346709
-0.000184628
-0.346151
-0.000184455
-0.345595
-0.000184282
-0.345038
-0.000184109
-0.344483
-0.000183935
-0.343928
-0.000183761
-0.343373
-0.000183587
-0.342819
-0.000183412
-0.342265
-0.000183237
-0.341712
-0.000183062
-0.34116
-0.000182887
-0.340608
-0.000182711
-0.340057
-0.000182535
-0.339506
-0.000182359
-0.338955
-0.000182183
-0.338405
-0.000182006
-0.337856
-0.000181829
-0.337307
-0.000181652
-0.336759
-0.000181474
-0.336211
-0.000181296
-0.335664
-0.000181118
-0.335118
-0.00018094
-0.334572
-0.000180762
-0.334026
-0.000180583
-0.333481
-0.000180404
-0.332937
-0.000180224
-0.332393
-0.000180045
-0.331849
-0.000179865
-0.331306
-0.000179685
-0.330764
-0.000179504
-0.330222
-0.000179324
-0.329681
-0.000179143
-0.329141
-0.000178962
-0.3286
-0.000178781
-0.328061
-0.000178599
-0.327522
-0.000178417
-0.326983
-0.000178235
-0.326445
-0.000178053
-0.325908
-0.000177871
-0.325371
-0.000177688
-0.324835
-0.000177505
-0.324299
-0.000177322
-0.323764
-0.000177139
-0.32323
-0.000176955
-0.322695
-0.000176771
-0.322162
-0.000176587
-0.321629
-0.000176403
-0.321097
-0.000176219
-0.320565
-0.000176034
-0.320034
-0.000175849
-0.319503
-0.000175664
-0.318973
-0.000175479
-0.318443
-0.000175293
-0.317914
-0.000175107
-0.317386
-0.000174921
-0.316858
-0.000174735
-0.31633
-0.000174549
-0.315804
-0.000174362
-0.315277
-0.000174176
-0.314752
-0.000173989
-0.314227
-0.000173801
-0.313702
-0.000173614
-0.313178
-0.000173427
-0.312655
-0.000173239
-0.312132
-0.000173051
-0.31161
-0.000172863
-0.311088
-0.000172675
-0.310567
-0.000172486
-0.310046
-0.000172298
-0.309526
-0.000172109
-0.309007
-0.00017192
-0.308488
-0.00017173
-0.30797
-0.000171541
-0.307452
-0.000171351
-0.306935
-0.000171162
-0.306418
-0.000170972
-0.305902
-0.000170782
-0.305387
-0.000170591
-0.304872
-0.000170401
-0.304358
-0.00017021
-0.303844
-0.000170019
-0.303331
-0.000169828
-0.302819
-0.000169637
-0.302307
-0.000169445
-0.301795
-0.000169252
-0.301285
-0.000169059
-0.300774
-0.000168866
-0.300265
-0.000168673
-0.299756
-0.00016848
-0.299247
-0.000168287
-0.298739
-0.000168094
-0.298232
-0.000167901
-0.297725
-0.000167707
-0.297219
-0.000167514
-0.296714
-0.000167321
-0.296209
-0.000167128
-0.295704
-0.000166935
-0.2952
-0.000166741
-0.294697
-0.000166548
-0.294195
-0.000166354
-0.293692
-0.000166161
-0.293191
-0.000165967
-0.29269
-0.000165773
-0.29219
-0.000165579
-0.29169
-0.000165385
-0.291191
-0.000165191
-0.290692
-0.000164996
-0.290194
-0.000164802
-0.289697
-0.000164607
-0.2892
-0.000164413
-0.288704
-0.000164218
-0.288208
-0.000164024
-0.287713
-0.000163829
-0.287219
-0.000163634
-0.286725
-0.000163439
-0.286232
-0.000163244
-0.285739
-0.000163049
-0.285247
-0.000162853
-0.284756
-0.000162658
-0.284265
-0.000162462
-0.283775
-0.000162267
-0.283285
-0.000162071
-0.282796
-0.000161876
-0.282307
-0.00016168
-0.281819
-0.000161484
-0.281332
-0.000161288
-0.280845
-0.000161092
-0.280359
-0.000160896
-0.279873
-0.0001607
-0.279388
-0.000160504
-0.278904
-0.000160308
-0.27842
-0.000160111
-0.277937
-0.000159915
-0.277454
-0.000159718
-0.276972
-0.000159521
-0.276491
-0.000159325
-0.27601
-0.000159128
-0.27553
-0.000158931
-0.27505
-0.000158734
-0.274571
-0.000158537
-0.274093
-0.00015834
-0.273615
-0.000158143
-0.273138
-0.000157946
-0.272661
-0.000157748
-0.272185
-0.000157551
-0.27171
-0.000157354
-0.271235
-0.000157156
-0.270761
-0.000156959
-0.270287
-0.000156762
-0.269814
-0.000156564
-0.269341
-0.000156367
-0.268869
-0.000156169
-0.268398
-0.000155972
-0.267927
-0.000155774
-0.267457
-0.000155577
-0.266988
-0.000155379
-0.266519
-0.000155182
-0.266051
-0.000154984
-0.265583
-0.000154787
-0.265116
-0.000154589
-0.264649
-0.000154392
-0.264183
-0.000154194
-0.263718
-0.000153997
-0.263253
-0.000153799
-0.262789
-0.000153602
-0.262326
-0.000153404
-0.261863
-0.000153206
-0.2614
-0.000153009
-0.260939
-0.000152811
-0.260477
-0.000152614
-0.260017
-0.000152416
-0.259557
-0.000152219
-0.259098
-0.000152022
-0.258639
-0.000151824
-0.258181
-0.000151627
-0.257723
-0.000151429
-0.257266
-0.000151232
-0.25681
-0.000151035
-0.256354
-0.000150837
-0.255899
-0.00015064
-0.255444
-0.000150443
-0.25499
-0.000150246
-0.254537
-0.000150048
-0.254084
-0.000149851
-0.253632
-0.000149654
-0.25318
-0.000149457
-0.252729
-0.00014926
-0.252279
-0.000149063
-0.251829
-0.000148867
-0.25138
-0.00014867
-0.250931
-0.000148473
-0.250483
-0.000148276
-0.250035
-0.00014808
-0.249589
-0.000147883
-0.249142
-0.000147687
-0.248697
-0.000147491
-0.248252
-0.000147294
-0.247807
-0.000147098
-0.247363
-0.000146902
-0.24692
-0.000146706
-0.246477
-0.00014651
-0.246035
-0.000146314
-0.245593
-0.000146118
-0.245153
-0.000145922
-0.244712
-0.000145727
-0.244272
-0.000145531
-0.243833
-0.000145335
-0.243395
-0.00014514
-0.242957
-0.000144945
-0.242519
-0.00014475
-0.242083
-0.000144555
-0.241646
-0.00014436
-0.241211
-0.000144165
-0.240776
-0.00014397
-0.240341
-0.000143775
-0.239907
-0.000143581
-0.239474
-0.000143387
-0.239041
-0.000143192
-0.238609
-0.000142998
-0.238178
-0.000142804
-0.237747
-0.00014261
-0.237316
-0.000142416
-0.236887
-0.000142223
-0.236458
-0.000142029
-0.236029
-0.000141836
-0.235601
-0.000141643
-0.235173
-0.00014145
-0.234747
-0.000141257
-0.23432
-0.000141064
-0.233895
-0.000140871
-0.23347
-0.000140679
-0.233045
-0.000140486
-0.232621
-0.000140294
-0.232198
-0.000140102
-0.231775
-0.00013991
-0.231353
-0.000139718
-0.230931
-0.000139527
-0.23051
-0.000139335
-0.23009
-0.000139144
-0.22967
-0.000138953
-0.229251
-0.000138762
-0.228832
-0.000138571
-0.228414
-0.000138381
-0.227996
-0.00013819
-0.227579
-0.000138
-0.227163
-0.00013781
-0.226747
-0.00013762
-0.226332
-0.000137431
-0.225917
-0.000137241
-0.225503
-0.000137052
-0.225089
-0.000136863
-0.224676
-0.000136674
-0.224264
-0.000136485
-0.223852
-0.000136296
-0.223441
-0.000136108
-0.22303
-0.00013592
-0.22262
-0.000135732
-0.22221
-0.000135545
-0.221801
-0.000135357
-0.221393
-0.00013517
-0.220985
-0.000134983
-0.220578
-0.000134796
-0.220171
-0.000134609
-0.219765
-0.000134423
-0.219359
-0.000134237
-0.218954
-0.000134051
-0.218549
-0.000133865
-0.218146
-0.00013368
-0.217742
-0.000133494
-0.217339
-0.000133309
-0.216937
-0.000133124
-0.216535
-0.00013294
-0.216134
-0.000132756
-0.215734
-0.000132572
-0.215334
-0.000132388
-0.214934
-0.000132204
-0.214535
-0.000132021
-0.214137
-0.000131838
-0.213739
-0.000131655
-0.213342
-0.000131473
-0.212945
-0.00013129
-0.212549
-0.000131108
-0.212153
-0.000130926
-0.211758
-0.000130745
-0.211364
-0.000130564
-0.21097
-0.000130383
-0.210576
-0.000130202
-0.210183
-0.000130021
-0.209791
-0.000129841
-0.209399
-0.000129661
-0.209008
-0.000129482
-0.208617
-0.000129303
-0.208227
-0.000129124
-0.207838
-0.000128945
-0.207449
-0.000128766
-0.20706
-0.000128588
-0.206672
-0.00012841
-0.206285
-0.000128233
-0.205898
-0.000128056
-0.205511
-0.000127879
-0.205125
-0.000127702
-0.20474
-0.000127526
-0.204355
-0.00012735
-0.203971
-0.000127174
-0.203587
-0.000126999
-0.203204
-0.000126824
-0.202821
-0.000126649
-0.202439
-0.000126474
-0.202058
-0.0001263
-0.201676
-0.000126127
-0.201296
-0.000125953
-0.200916
-0.00012578
-0.200536
-0.000125607
-0.200157
-0.000125435
-0.199779
-0.000125262
-0.199401
-0.000125091
-0.199023
-0.000124919
-0.198646
-0.000124748
-0.19827
-0.000124577
-0.197894
-0.000124407
-0.197519
-0.000124237
-0.197144
-0.000124067
-0.19677
-0.000123898
-0.196396
-0.000123729
-0.196022
-0.00012356
-0.19565
-0.000123392
-0.195277
-0.000123224
-0.194905
-0.000123056
-0.194534
-0.000122889
-0.194163
-0.000122722
-0.193793
-0.000122555
-0.193423
-0.000122389
-0.193054
-0.000122223
-0.192685
-0.000122058
-0.192317
-0.000121893
-0.191949
-0.000121728
-0.191582
-0.000121564
-0.191215
-0.0001214
-0.190849
-0.000121236
-0.190483
-0.000121073
-0.190118
-0.000120911
-0.189753
-0.000120748
-0.189389
-0.000120586
-0.189025
-0.000120425
-0.188661
-0.000120264
-0.188298
-0.000120103
-0.187936
-0.000119942
-0.187574
-0.000119782
-0.187213
-0.000119623
-0.186852
-0.000119464
-0.186491
-0.000119305
-0.186131
-0.000119147
-0.185772
-0.000118989
-0.185413
-0.000118831
-0.185054
-0.000118674
-0.184696
-0.000118517
-0.184339
-0.000118361
-0.183982
-0.000118205
-0.183625
-0.00011805
-0.183269
-0.000117895
-0.182913
-0.00011774
-0.182558
-0.000117586
-0.182203
-0.000117432
-0.181849
-0.000117279
-0.181495
-0.000117126
-0.181141
-0.000116974
-0.180789
-0.000116822
-0.180436
-0.00011667
-0.180084
-0.000116519
-0.179732
-0.000116368
-0.179381
-0.000116218
-0.179031
-0.000116069
-0.178681
-0.000115919
-0.178331
-0.00011577
-0.177981
-0.000115622
-0.177633
-0.000115474
-0.177284
-0.000115327
-0.176936
-0.000115179
-0.176589
-0.000115033
-0.176242
-0.000114887
-0.175895
-0.000114741
-0.175549
-0.000114596
-0.175203
-0.000114451
-0.174858
-0.000114307
-0.174513
-0.000114163
-0.174168
-0.00011402
-0.173824
-0.000113877
-0.173481
-0.000113735
-0.173138
-0.000113593
-0.172795
-0.000113452
-0.172453
-0.000113311
-0.172111
-0.00011317
-0.171769
-0.00011303
-0.171428
-0.000112891
-0.171088
-0.000112752
-0.170747
-0.000112613
-0.170408
-0.000112475
-0.170068
-0.000112338
-0.169729
-0.000112201
-0.169391
-0.000112065
-0.169053
-0.000111928
-0.168715
-0.000111793
-0.168378
-0.000111658
-0.168041
-0.000111523
-0.167704
-0.000111389
-0.167368
-0.000111256
-0.167033
-0.000111123
-0.166697
-0.000110991
-0.166363
-0.000110859
-0.166028
-0.000110727
-0.165694
-0.000110596
-0.16536
-0.000110466
-0.165027
-0.000110336
-0.164694
-0.000110206
-0.164362
-0.000110078
-0.164029
-0.000109949
-0.163698
-0.000109821
-0.163366
-0.000109694
-0.163035
-0.000109567
-0.162705
-0.000109441
-0.162375
-0.000109315
-0.162045
-0.00010919
-0.161715
-0.000109066
-0.161386
-0.000108942
-0.161058
-0.000108818
-0.160729
-0.000108695
-0.160401
-0.000108572
-0.160074
-0.00010845
-0.159747
-0.000108329
-0.15942
-0.000108208
-0.159093
-0.000108088
-0.158767
-0.000107968
-0.158441
-0.000107848
-0.158116
-0.00010773
-0.157791
-0.000107611
-0.157466
-0.000107494
-0.157142
-0.000107377
-0.156818
-0.00010726
-0.156494
-0.000107144
-0.156171
-0.000107029
-0.155848
-0.000106914
-0.155526
-0.0001068
-0.155203
-0.000106686
-0.154881
-0.000106572
-0.15456
-0.00010646
-0.154239
-0.000106348
-0.153918
-0.000106236
-0.153597
-0.000106125
-0.153277
-0.000106015
-0.152957
-0.000105905
-0.152638
-0.000105795
-0.152318
-0.000105687
-0.151999
-0.000105578
-0.151681
-0.000105471
-0.151363
-0.000105363
-0.151045
-0.000105257
-0.150727
-0.000105151
-0.15041
-0.000105045
-0.150093
-0.000104941
-0.149776
-0.000104836
-0.14946
-0.000104733
-0.149144
-0.000104629
-0.148828
-0.000104527
-0.148513
-0.000104425
-0.148198
-0.000104323
-0.147883
-0.000104222
-0.147568
-0.000104122
-0.147254
-0.000104022
-0.14694
-0.000103923
-0.146627
-0.000103825
-0.146313
-0.000103727
-0.146
-0.000103629
-0.145688
-0.000103532
-0.145375
-0.000103436
-0.145063
-0.00010334
-0.144751
-0.000103245
-0.14444
-0.00010315
-0.144128
-0.000103056
-0.143817
-0.000102962
-0.143507
-0.000102869
-0.143196
-0.000102777
-0.142886
-0.000102685
-0.142576
-0.000102593
-0.142266
-0.000102503
-0.141957
-0.000102412
-0.141648
-0.000102323
-0.141339
-0.000102234
-0.141031
-0.000102145
-0.140722
-0.000102057
-0.140414
-0.000101969
-0.140106
-0.000101882
-0.139799
-0.000101796
-0.139492
-0.00010171
-0.139185
-0.000101625
-0.138878
-0.00010154
-0.138571
-0.000101456
-0.138265
-0.000101372
-0.137959
-0.000101289
-0.137653
-0.000101206
-0.137348
-0.000101124
-0.137042
-0.000101042
-0.136737
-0.000100961
-0.136433
-0.000100881
-0.136128
-0.000100801
-0.135824
-0.000100721
-0.13552
-0.000100642
-0.135216
-0.000100563
-0.134912
-0.000100485
-0.134609
-0.000100408
-0.134305
-0.00010033
-0.134002
-0.000100254
-0.1337
-0.000100177
-0.133397
-0.000100102
-0.133095
-0.000100026
-0.132793
-9.99517e-05
-0.132491
-9.98773e-05
-0.132189
-9.98034e-05
-0.131888
-9.97299e-05
-0.131586
-9.96569e-05
-0.131285
-9.95843e-05
-0.130984
-9.9512e-05
-0.130684
-9.94402e-05
-0.130383
-9.93688e-05
-0.130083
-9.92977e-05
-0.129783
-9.9227e-05
-0.129483
-9.91567e-05
-0.129184
-9.90868e-05
-0.128884
-9.90172e-05
-0.128585
-9.89479e-05
-0.128286
-9.8879e-05
-0.127987
-9.88103e-05
-0.127688
-9.87419e-05
-0.12739
-9.86738e-05
-0.127091
-9.86059e-05
-0.126793
-9.85382e-05
-0.126495
-9.84708e-05
-0.126197
-9.84035e-05
-0.1259
-9.83364e-05
-0.125602
-9.82695e-05
-0.125305
-9.82027e-05
-0.125008
-9.8136e-05
-0.124711
-9.80694e-05
-0.124414
-9.80029e-05
-0.124118
-9.79363e-05
-0.123821
-9.78696e-05
-0.123525
-9.78028e-05
-0.123229
-9.7736e-05
-0.122933
-9.76689e-05
-0.122637
-9.76018e-05
-0.122342
-9.75344e-05
-0.122046
-9.74668e-05
-0.121751
-9.73989e-05
-0.121456
-9.73307e-05
-0.121161
-9.7262e-05
-0.120866
-9.71929e-05
-0.120571
-9.71231e-05
-0.120277
-9.70527e-05
-0.119982
-9.69817e-05
-0.119688
-9.69099e-05
-0.119394
-9.68372e-05
-0.1191
-9.67635e-05
-0.118806
-9.66887e-05
-0.118513
-9.66127e-05
-0.118219
-9.65353e-05
-0.117926
-9.64565e-05
-0.117633
-9.63761e-05
-0.11734
-9.6294e-05
-0.117047
-9.62101e-05
-0.116754
-9.6124e-05
-0.116461
-9.60353e-05
-0.116169
-9.59439e-05
-0.115877
-9.58493e-05
-0.115584
-9.57513e-05
-0.115292
-9.56494e-05
-0.115001
-9.55432e-05
-0.114709
-9.5432e-05
-0.114418
-9.53154e-05
-0.114126
-9.51926e-05
-0.113835
-9.50633e-05
-0.113544
-9.49268e-05
-0.113253
-9.47825e-05
-0.112963
-9.46297e-05
-0.112672
-9.44674e-05
-0.112382
-9.4294e-05
-0.112092
-9.4107e-05
-0.111803
-9.3904e-05
-0.111513
-9.36812e-05
-0.111224
-9.3434e-05
-0.110935
-9.3159e-05
-0.110647
-9.28579e-05
-0.110358
-9.25278e-05
-0.110071
-9.21584e-05
-0.109783
-9.17344e-05
-0.109497
-9.12372e-05
-0.10921
-9.06473e-05
-0.108925
-8.99387e-05
-0.10864
-8.90697e-05
-0.108357
-8.79632e-05
-0.108075
-8.65484e-05
-0.107795
-8.46887e-05
-0.107517
-8.19704e-05
-0.107244
-7.77057e-05
-0.106978
-7.06141e-05
-0.106724
-5.89436e-05
-1.9396e-05
-0.595493
-6.34537e-05
-0.594715
-5.295e-05
-0.59407
-8.76366e-05
-0.593408
-8.70992e-05
-0.592748
-9.64192e-05
-0.592084
-9.9402e-05
-0.591419
-0.000101646
-0.590754
-0.000103103
-0.590087
-0.000104088
-0.589421
-0.000104778
-0.588754
-0.000105279
-0.588088
-0.000105653
-0.587421
-0.000105938
-0.586754
-0.000106161
-0.586086
-0.000106337
-0.585419
-0.00010648
-0.584752
-0.000106596
-0.584085
-0.000106692
-0.583418
-0.000106772
-0.58275
-0.000106838
-0.582083
-0.000106894
-0.581416
-0.000106942
-0.580749
-0.000106982
-0.580081
-0.000107016
-0.579414
-0.000107045
-0.578747
-0.000107069
-0.57808
-0.00010709
-0.577413
-0.000107107
-0.576746
-0.000107122
-0.576079
-0.000107134
-0.575412
-0.000107144
-0.574745
-0.000107152
-0.574078
-0.000107158
-0.573411
-0.000107163
-0.572744
-0.000107166
-0.572077
-0.000107168
-0.57141
-0.000107168
-0.570743
-0.000107168
-0.570077
-0.000107166
-0.56941
-0.000107164
-0.568744
-0.00010716
-0.568077
-0.000107156
-0.567411
-0.000107151
-0.566744
-0.000107146
-0.566078
-0.000107139
-0.565412
-0.000107133
-0.564746
-0.000107125
-0.564079
-0.000107117
-0.563413
-0.000107109
-0.562747
-0.0001071
-0.562081
-0.00010709
-0.561416
-0.00010708
-0.56075
-0.00010707
-0.560084
-0.000107059
-0.559419
-0.000107048
-0.558753
-0.000107036
-0.558088
-0.000107024
-0.557422
-0.000107012
-0.556757
-0.000106999
-0.556092
-0.000106986
-0.555427
-0.000106972
-0.554762
-0.000106959
-0.554097
-0.000106944
-0.553432
-0.00010693
-0.552767
-0.000106915
-0.552103
-0.0001069
-0.551438
-0.000106884
-0.550774
-0.000106869
-0.550109
-0.000106853
-0.549445
-0.000106836
-0.548781
-0.00010682
-0.548117
-0.000106803
-0.547453
-0.000106786
-0.546789
-0.000106769
-0.546126
-0.000106751
-0.545462
-0.000106733
-0.544798
-0.000106715
-0.544135
-0.000106696
-0.543472
-0.000106678
-0.542809
-0.000106659
-0.542146
-0.000106639
-0.541483
-0.00010662
-0.54082
-0.0001066
-0.540157
-0.00010658
-0.539495
-0.00010656
-0.538832
-0.000106539
-0.53817
-0.000106518
-0.537508
-0.000106497
-0.536846
-0.000106476
-0.536184
-0.000106454
-0.535522
-0.000106432
-0.534861
-0.00010641
-0.534199
-0.000106388
-0.533538
-0.000106366
-0.532877
-0.000106343
-0.532216
-0.00010632
-0.531555
-0.000106297
-0.530894
-0.000106274
-0.530233
-0.00010625
-0.529573
-0.000106226
-0.528912
-0.000106202
-0.528252
-0.000106177
-0.527592
-0.000106153
-0.526932
-0.000106128
-0.526272
-0.000106103
-0.525613
-0.000106077
-0.524953
-0.000106051
-0.524294
-0.000106026
-0.523635
-0.000105999
-0.522976
-0.000105973
-0.522317
-0.000105947
-0.521659
-0.00010592
-0.521
-0.000105893
-0.520342
-0.000105866
-0.519684
-0.000105838
-0.519026
-0.000105811
-0.518368
-0.000105783
-0.51771
-0.000105755
-0.517053
-0.000105726
-0.516396
-0.000105698
-0.515739
-0.000105669
-0.515082
-0.00010564
-0.514425
-0.00010561
-0.513768
-0.000105581
-0.513112
-0.000105551
-0.512456
-0.000105521
-0.5118
-0.00010549
-0.511144
-0.00010546
-0.510488
-0.000105429
-0.509833
-0.000105398
-0.509178
-0.000105367
-0.508523
-0.000105335
-0.507868
-0.000105304
-0.507213
-0.000105272
-0.506559
-0.00010524
-0.505904
-0.000105207
-0.50525
-0.000105175
-0.504597
-0.000105142
-0.503943
-0.000105109
-0.503289
-0.000105076
-0.502636
-0.000105042
-0.501983
-0.000105009
-0.50133
-0.000104975
-0.500678
-0.00010494
-0.500025
-0.000104906
-0.499373
-0.000104871
-0.498721
-0.000104836
-0.498069
-0.000104801
-0.497418
-0.000104766
-0.496766
-0.00010473
-0.496115
-0.000104694
-0.495464
-0.000104658
-0.494814
-0.000104622
-0.494163
-0.000104585
-0.493513
-0.000104549
-0.492863
-0.000104512
-0.492213
-0.000104474
-0.491564
-0.000104437
-0.490914
-0.0001044
-0.490265
-0.000104362
-0.489617
-0.000104324
-0.488968
-0.000104285
-0.48832
-0.000104247
-0.487671
-0.000104208
-0.487024
-0.000104169
-0.486376
-0.00010413
-0.485729
-0.00010409
-0.485081
-0.00010405
-0.484434
-0.00010401
-0.483788
-0.00010397
-0.483141
-0.00010393
-0.482495
-0.000103889
-0.481849
-0.000103848
-0.481204
-0.000103807
-0.480558
-0.000103766
-0.479913
-0.000103724
-0.479268
-0.000103683
-0.478624
-0.000103641
-0.477979
-0.000103598
-0.477335
-0.000103556
-0.476691
-0.000103514
-0.476048
-0.000103471
-0.475404
-0.000103428
-0.474761
-0.000103384
-0.474118
-0.000103341
-0.473476
-0.000103297
-0.472834
-0.000103253
-0.472192
-0.000103209
-0.47155
-0.000103165
-0.470909
-0.00010312
-0.470267
-0.000103075
-0.469627
-0.00010303
-0.468986
-0.000102985
-0.468346
-0.000102939
-0.467706
-0.000102893
-0.467066
-0.000102847
-0.466426
-0.000102801
-0.465787
-0.000102755
-0.465148
-0.000102708
-0.46451
-0.000102661
-0.463871
-0.000102614
-0.463233
-0.000102567
-0.462596
-0.000102519
-0.461958
-0.000102471
-0.461321
-0.000102424
-0.460684
-0.000102375
-0.460048
-0.000102327
-0.459412
-0.000102278
-0.458776
-0.00010223
-0.45814
-0.000102181
-0.457505
-0.000102131
-0.45687
-0.000102082
-0.456235
-0.000102032
-0.455601
-0.000101982
-0.454966
-0.000101932
-0.454333
-0.000101882
-0.453699
-0.000101831
-0.453066
-0.00010178
-0.452433
-0.000101729
-0.451801
-0.000101678
-0.451168
-0.000101626
-0.450537
-0.000101574
-0.449905
-0.000101523
-0.449274
-0.00010147
-0.448643
-0.000101418
-0.448012
-0.000101365
-0.447382
-0.000101313
-0.446752
-0.00010126
-0.446122
-0.000101207
-0.445493
-0.000101153
-0.444864
-0.0001011
-0.444236
-0.000101046
-0.443607
-0.000100992
-0.442979
-0.000100938
-0.442352
-0.000100883
-0.441724
-0.000100828
-0.441098
-0.000100774
-0.440471
-0.000100719
-0.439845
-0.000100663
-0.439219
-0.000100608
-0.438593
-0.000100552
-0.437968
-0.000100496
-0.437343
-0.00010044
-0.436719
-0.000100383
-0.436094
-0.000100326
-0.435471
-0.000100269
-0.434847
-0.000100212
-0.434224
-0.000100155
-0.433601
-0.000100098
-0.432979
-0.00010004
-0.432357
-9.9982e-05
-0.431735
-9.9924e-05
-0.431114
-9.98658e-05
-0.430493
-9.98073e-05
-0.429872
-9.97487e-05
-0.429252
-9.96899e-05
-0.428632
-9.96308e-05
-0.428013
-9.95715e-05
-0.427393
-9.95121e-05
-0.426775
-9.94524e-05
-0.426156
-9.93924e-05
-0.425538
-9.93323e-05
-0.424921
-9.92719e-05
-0.424303
-9.92113e-05
-0.423686
-9.91505e-05
-0.42307
-9.90894e-05
-0.422454
-9.90281e-05
-0.421838
-9.89667e-05
-0.421223
-9.8905e-05
-0.420608
-9.88431e-05
-0.419993
-9.8781e-05
-0.419379
-9.87188e-05
-0.418765
-9.86564e-05
-0.418151
-9.85938e-05
-0.417538
-9.8531e-05
-0.416926
-9.8468e-05
-0.416313
-9.84049e-05
-0.415701