/*--------------------------------*- C++ -*----------------------------------*\
| =========                 |                                                 |
| \\      /  F ield         | OpenFOAM: The Open Source CFD Toolbox           |
|  \\    /   O peration     | Version:  2512                                  |
|   \\  /    A nd           | Website:  www.openfoam.com                      |
|    \\/     M anipulation  |                                                 |
\*---------------------------------------------------------------------------*/
FoamFile
{
    version     2.0;
    format      ascii;
    arch        "LSB;label=32;scalar=64";
    class       surfaceScalarField;
    location    "2e-05";
    object      phiB;
}
// * * * * * * * * * * * * * * * * * * * * * * * * * * * * * * * * * * * * * //

dimensions      [1 2 -2 0 0 -1 0];

oriented        oriented;

internalField   nonuniform List<scalar> 
198900
(
3.33822e-05
0.0400011
3.91493e-05
0.0399942
3.52814e-05
0.0400039
3.76658e-05
0.0399976
3.67983e-05
0.0400009
3.69435e-05
0.0399999
3.69179e-05
0.04
3.68911e-05
0.04
3.68613e-05
0.04
3.68295e-05
0.04
3.67965e-05
0.04
3.67627e-05
0.04
3.67284e-05
0.04
3.66938e-05
0.04
3.66589e-05
0.04
3.66238e-05
0.04
3.65886e-05
0.04
3.65533e-05
0.04
3.65179e-05
0.04
3.64826e-05
0.04
3.64472e-05
0.04
3.64117e-05
0.04
3.63763e-05
0.04
3.63409e-05
0.04
3.63055e-05
0.04
3.627e-05
0.04
3.62346e-05
0.04
3.61992e-05
0.04
3.61638e-05
0.04
3.61285e-05
0.04
3.60931e-05
0.04
3.60578e-05
0.04
3.60224e-05
0.04
3.59871e-05
0.04
3.59518e-05
0.04
3.59165e-05
0.04
3.58812e-05
0.04
3.5846e-05
0.04
3.58107e-05
0.04
3.57755e-05
0.04
3.57402e-05
0.04
3.5705e-05
0.04
3.56698e-05
0.04
3.56346e-05
0.04
3.55994e-05
0.04
3.55643e-05
0.04
3.55291e-05
0.04
3.5494e-05
0.04
3.54588e-05
0.04
3.54237e-05
0.04
3.53886e-05
0.04
3.53535e-05
0.04
3.53184e-05
0.04
3.52833e-05
0.04
3.52482e-05
0.04
3.52132e-05
0.04
3.51781e-05
0.04
3.5143e-05
0.04
3.5108e-05
0.04
3.5073e-05
0.04
3.50379e-05
0.04
3.50029e-05
0.04
3.49679e-05
0.04
3.49329e-05
0.04
3.48979e-05
0.04
3.48629e-05
0.04
3.48279e-05
0.04
3.47929e-05
0.04
3.47579e-05
0.04
3.4723e-05
0.04
3.4688e-05
0.04
3.4653e-05
0.04
3.46181e-05
0.04
3.45831e-05
0.04
3.45482e-05
0.04
3.45132e-05
0.04
3.44783e-05
0.04
3.44434e-05
0.04
3.44084e-05
0.04
3.43735e-05
0.04
3.43386e-05
0.04
3.43037e-05
0.04
3.42688e-05
0.04
3.42339e-05
0.04
3.4199e-05
0.04
3.41641e-05
0.04
3.41292e-05
0.04
3.40943e-05
0.04
3.40594e-05
0.04
3.40246e-05
0.04
3.39897e-05
0.04
3.39548e-05
0.04
3.39199e-05
0.04
3.38851e-05
0.04
3.38502e-05
0.04
3.38154e-05
0.04
3.37805e-05
0.04
3.37456e-05
0.04
3.37108e-05
0.04
3.36759e-05
0.04
3.36411e-05
0.04
3.36063e-05
0.04
3.35714e-05
0.04
3.35366e-05
0.04
3.35018e-05
0.04
3.34669e-05
0.04
3.34321e-05
0.04
3.33973e-05
0.04
3.33625e-05
0.04
3.33276e-05
0.04
3.32928e-05
0.04
3.3258e-05
0.04
3.32232e-05
0.04
3.31884e-05
0.04
3.31536e-05
0.04
3.31188e-05
0.04
3.3084e-05
0.04
3.30492e-05
0.04
3.30144e-05
0.04
3.29796e-05
0.04
3.29448e-05
0.04
3.291e-05
0.04
3.28752e-05
0.04
3.28405e-05
0.04
3.28057e-05
0.04
3.27709e-05
0.04
3.27361e-05
0.04
3.27013e-05
0.04
3.26666e-05
0.04
3.26318e-05
0.04
3.2597e-05
0.04
3.25623e-05
0.04
3.25275e-05
0.04
3.24927e-05
0.04
3.2458e-05
0.04
3.24232e-05
0.04
3.23885e-05
0.04
3.23537e-05
0.04
3.2319e-05
0.04
3.22842e-05
0.04
3.22495e-05
0.04
3.22147e-05
0.04
3.218e-05
0.04
3.21452e-05
0.04
3.21105e-05
0.04
3.20758e-05
0.04
3.2041e-05
0.04
3.20063e-05
0.04
3.19716e-05
0.04
3.19368e-05
0.04
3.19021e-05
0.04
3.18674e-05
0.04
3.18327e-05
0.04
3.17979e-05
0.04
3.17632e-05
0.04
3.17285e-05
0.04
3.16938e-05
0.04
3.16591e-05
0.04
3.16244e-05
0.04
3.15896e-05
0.04
3.15549e-05
0.04
3.15202e-05
0.04
3.14855e-05
0.04
3.14508e-05
0.04
3.14161e-05
0.04
3.13814e-05
0.04
3.13467e-05
0.04
3.13121e-05
0.04
3.12774e-05
0.04
3.12427e-05
0.04
3.1208e-05
0.04
3.11733e-05
0.04
3.11386e-05
0.04
3.11039e-05
0.04
3.10693e-05
0.04
3.10346e-05
0.04
3.09999e-05
0.04
3.09652e-05
0.04
3.09306e-05
0.04
3.08959e-05
0.04
3.08612e-05
0.04
3.08266e-05
0.04
3.07919e-05
0.04
3.07573e-05
0.04
3.07226e-05
0.04
3.0688e-05
0.04
3.06533e-05
0.04
3.06186e-05
0.04
3.0584e-05
0.04
3.05494e-05
0.04
3.05147e-05
0.04
3.04801e-05
0.04
3.04454e-05
0.04
3.04108e-05
0.04
3.03762e-05
0.04
3.03415e-05
0.04
3.03069e-05
0.04
3.02723e-05
0.04
3.02376e-05
0.04
3.0203e-05
0.04
3.01684e-05
0.04
3.01338e-05
0.04
3.00992e-05
0.04
3.00645e-05
0.04
3.00299e-05
0.04
2.99953e-05
0.04
2.99607e-05
0.04
2.99261e-05
0.04
2.98915e-05
0.04
2.98569e-05
0.04
2.98223e-05
0.04
2.97877e-05
0.04
2.97531e-05
0.04
2.97185e-05
0.04
2.96839e-05
0.04
2.96493e-05
0.04
2.96148e-05
0.04
2.95802e-05
0.04
2.95456e-05
0.04
2.9511e-05
0.04
2.94764e-05
0.04
2.94419e-05
0.04
2.94073e-05
0.04
2.93727e-05
0.04
2.93382e-05
0.04
2.93036e-05
0.04
2.9269e-05
0.04
2.92345e-05
0.04
2.91999e-05
0.04
2.91654e-05
0.04
2.91308e-05
0.04
2.90963e-05
0.04
2.90617e-05
0.04
2.90272e-05
0.04
2.89926e-05
0.04
2.89581e-05
0.04
2.89235e-05
0.04
2.8889e-05
0.04
2.88545e-05
0.04
2.88199e-05
0.04
2.87854e-05
0.04
2.87509e-05
0.04
2.87164e-05
0.04
2.86819e-05
0.04
2.86473e-05
0.04
2.86128e-05
0.04
2.85783e-05
0.04
2.85438e-05
0.04
2.85093e-05
0.04
2.84748e-05
0.04
2.84403e-05
0.04
2.84058e-05
0.04
2.83713e-05
0.04
2.83368e-05
0.04
2.83023e-05
0.04
2.82678e-05
0.04
2.82333e-05
0.04
2.81989e-05
0.04
2.81644e-05
0.04
2.81299e-05
0.04
2.80954e-05
0.04
2.80609e-05
0.04
2.80265e-05
0.04
2.7992e-05
0.04
2.79575e-05
0.04
2.79231e-05
0.04
2.78886e-05
0.04
2.78542e-05
0.04
2.78197e-05
0.04
2.77853e-05
0.04
2.77508e-05
0.04
2.77164e-05
0.04
2.76819e-05
0.04
2.76475e-05
0.04
2.76131e-05
0.04
2.75786e-05
0.04
2.75442e-05
0.04
2.75098e-05
0.04
2.74753e-05
0.04
2.74409e-05
0.04
2.74065e-05
0.04
2.73721e-05
0.04
2.73377e-05
0.04
2.73032e-05
0.04
2.72688e-05
0.04
2.72344e-05
0.04
2.72e-05
0.04
2.71656e-05
0.04
2.71312e-05
0.04
2.70968e-05
0.04
2.70624e-05
0.04
2.7028e-05
0.04
2.69937e-05
0.04
2.69593e-05
0.04
2.69249e-05
0.04
2.68905e-05
0.04
2.68561e-05
0.04
2.68218e-05
0.04
2.67874e-05
0.04
2.6753e-05
0.04
2.67187e-05
0.04
2.66843e-05
0.04
2.665e-05
0.04
2.66156e-05
0.04
2.65813e-05
0.04
2.65469e-05
0.04
2.65126e-05
0.04
2.64782e-05
0.04
2.64439e-05
0.04
2.64095e-05
0.04
2.63752e-05
0.04
2.63409e-05
0.04
2.63065e-05
0.04
2.62722e-05
0.04
2.62379e-05
0.04
2.62036e-05
0.04
2.61693e-05
0.04
2.6135e-05
0.04
2.61006e-05
0.04
2.60663e-05
0.04
2.6032e-05
0.04
2.59977e-05
0.04
2.59634e-05
0.04
2.59291e-05
0.04
2.58949e-05
0.04
2.58606e-05
0.04
2.58263e-05
0.04
2.5792e-05
0.04
2.57577e-05
0.04
2.57234e-05
0.04
2.56892e-05
0.04
2.56549e-05
0.04
2.56206e-05
0.04
2.55864e-05
0.04
2.55521e-05
0.04
2.55179e-05
0.04
2.54836e-05
0.04
2.54494e-05
0.04
2.54151e-05
0.04
2.53809e-05
0.04
2.53466e-05
0.04
2.53124e-05
0.04
2.52782e-05
0.04
2.52439e-05
0.04
2.52097e-05
0.04
2.51755e-05
0.04
2.51412e-05
0.04
2.5107e-05
0.04
2.50728e-05
0.04
2.50386e-05
0.04
2.50044e-05
0.04
2.49702e-05
0.04
2.4936e-05
0.04
2.49018e-05
0.04
2.48676e-05
0.04
2.48334e-05
0.04
2.47992e-05
0.04
2.4765e-05
0.04
2.47308e-05
0.04
2.46967e-05
0.04
2.46625e-05
0.04
2.46283e-05
0.04
2.45941e-05
0.04
2.456e-05
0.04
2.45258e-05
0.04
2.44916e-05
0.04
2.44575e-05
0.04
2.44233e-05
0.04
2.43892e-05
0.04
2.4355e-05
0.04
2.43209e-05
0.04
2.42867e-05
0.04
2.42526e-05
0.04
2.42185e-05
0.04
2.41843e-05
0.04
2.41502e-05
0.04
2.41161e-05
0.04
2.4082e-05
0.04
2.40478e-05
0.04
2.40137e-05
0.04
2.39796e-05
0.04
2.39455e-05
0.04
2.39114e-05
0.04
2.38773e-05
0.04
2.38432e-05
0.04
2.38091e-05
0.04
2.3775e-05
0.04
2.37409e-05
0.04
2.37068e-05
0.04
2.36728e-05
0.04
2.36387e-05
0.04
2.36046e-05
0.04
2.35705e-05
0.04
2.35365e-05
0.04
2.35024e-05
0.04
2.34683e-05
0.04
2.34343e-05
0.04
2.34002e-05
0.04
2.33662e-05
0.04
2.33321e-05
0.04
2.32981e-05
0.04
2.3264e-05
0.04
2.323e-05
0.04
2.3196e-05
0.04
2.31619e-05
0.04
2.31279e-05
0.04
2.30939e-05
0.04
2.30599e-05
0.04
2.30259e-05
0.04
2.29918e-05
0.04
2.29578e-05
0.04
2.29238e-05
0.04
2.28898e-05
0.04
2.28558e-05
0.04
2.28218e-05
0.04
2.27878e-05
0.04
2.27538e-05
0.04
2.27199e-05
0.04
2.26859e-05
0.04
2.26519e-05
0.04
2.26179e-05
0.04
2.25839e-05
0.04
2.255e-05
0.04
2.2516e-05
0.04
2.2482e-05
0.04
2.24481e-05
0.04
2.24141e-05
0.04
2.23802e-05
0.04
2.23462e-05
0.04
2.23123e-05
0.04
2.22783e-05
0.04
2.22444e-05
0.04
2.22105e-05
0.04
2.21765e-05
0.04
2.21426e-05
0.04
2.21087e-05
0.04
2.20748e-05
0.04
2.20408e-05
0.04
2.20069e-05
0.04
2.1973e-05
0.04
2.19391e-05
0.04
2.19052e-05
0.04
2.18713e-05
0.04
2.18374e-05
0.04
2.18035e-05
0.04
2.17696e-05
0.04
2.17357e-05
0.04
2.17018e-05
0.04
2.1668e-05
0.04
2.16341e-05
0.04
2.16002e-05
0.04
2.15663e-05
0.04
2.15325e-05
0.04
2.14986e-05
0.04
2.14648e-05
0.04
2.14309e-05
0.04
2.13971e-05
0.04
2.13632e-05
0.04
2.13294e-05
0.04
2.12955e-05
0.04
2.12617e-05
0.04
2.12278e-05
0.04
2.1194e-05
0.04
2.11602e-05
0.04
2.11264e-05
0.04
2.10925e-05
0.04
2.10587e-05
0.04
2.10249e-05
0.04
2.09911e-05
0.04
2.09573e-05
0.04
2.09235e-05
0.04
2.08897e-05
0.04
2.08559e-05
0.04
2.08221e-05
0.04
2.07883e-05
0.04
2.07545e-05
0.04
2.07207e-05
0.04
2.0687e-05
0.04
2.06532e-05
0.04
2.06194e-05
0.04
2.05856e-05
0.04
2.05519e-05
0.04
2.05181e-05
0.04
2.04843e-05
0.04
2.04506e-05
0.04
2.04168e-05
0.04
2.03831e-05
0.04
2.03493e-05
0.04
2.03156e-05
0.04
2.02819e-05
0.04
2.02481e-05
0.04
2.02144e-05
0.04
2.01807e-05
0.04
2.0147e-05
0.04
2.01132e-05
0.04
2.00795e-05
0.04
2.00458e-05
0.04
2.00121e-05
0.04
1.99784e-05
0.04
1.99447e-05
0.04
1.9911e-05
0.04
1.98773e-05
0.04
1.98436e-05
0.04
1.98099e-05
0.04
1.97762e-05
0.04
1.97425e-05
0.04
1.97089e-05
0.04
1.96752e-05
0.04
1.96415e-05
0.04
1.96078e-05
0.04
1.95742e-05
0.04
1.95405e-05
0.04
1.95069e-05
0.04
1.94732e-05
0.04
1.94395e-05
0.04
1.94059e-05
0.04
1.93723e-05
0.04
1.93386e-05
0.04
1.9305e-05
0.04
1.92713e-05
0.04
1.92377e-05
0.04
1.92041e-05
0.04
1.91705e-05
0.04
1.91368e-05
0.04
1.91032e-05
0.04
1.90696e-05
0.04
1.9036e-05
0.04
1.90024e-05
0.04
1.89688e-05
0.04
1.89352e-05
0.04
1.89016e-05
0.04
1.8868e-05
0.04
1.88344e-05
0.04
1.88008e-05
0.04
1.87672e-05
0.04
1.87337e-05
0.04
1.87001e-05
0.04
1.86665e-05
0.04
1.86329e-05
0.04
1.85994e-05
0.04
1.85658e-05
0.04
1.85322e-05
0.04
1.84987e-05
0.04
1.84651e-05
0.04
1.84316e-05
0.04
1.8398e-05
0.04
1.83645e-05
0.04
1.8331e-05
0.04
1.82974e-05
0.04
1.82639e-05
0.04
1.82304e-05
0.04
1.81968e-05
0.04
1.81633e-05
0.04
1.81298e-05
0.04
1.80963e-05
0.04
1.80628e-05
0.04
1.80293e-05
0.04
1.79958e-05
0.04
1.79623e-05
0.04
1.79288e-05
0.04
1.78953e-05
0.04
1.78618e-05
0.04
1.78283e-05
0.04
1.77948e-05
0.04
1.77613e-05
0.04
1.77278e-05
0.04
1.76944e-05
0.04
1.76609e-05
0.04
1.76274e-05
0.04
1.7594e-05
0.04
1.75605e-05
0.04
1.7527e-05
0.04
1.74936e-05
0.04
1.74601e-05
0.04
1.74267e-05
0.04
1.73932e-05
0.04
1.73598e-05
0.04
1.73263e-05
0.04
1.72929e-05
0.04
1.72595e-05
0.04
1.7226e-05
0.04
1.71926e-05
0.04
1.71592e-05
0.04
1.71258e-05
0.04
1.70924e-05
0.04
1.70589e-05
0.04
1.70255e-05
0.04
1.69921e-05
0.04
1.69587e-05
0.04
1.69253e-05
0.04
1.68919e-05
0.04
1.68585e-05
0.04
1.68251e-05
0.04
1.67918e-05
0.04
1.67584e-05
0.04
1.6725e-05
0.04
1.66916e-05
0.04
1.66582e-05
0.04
1.66249e-05
0.04
1.65915e-05
0.04
1.65581e-05
0.04
1.65248e-05
0.04
1.64914e-05
0.04
1.64581e-05
0.04
1.64247e-05
0.04
1.63914e-05
0.04
1.6358e-05
0.04
1.63247e-05
0.04
1.62913e-05
0.04
1.6258e-05
0.04
1.62247e-05
0.04
1.61913e-05
0.04
1.6158e-05
0.04
1.61247e-05
0.04
1.60914e-05
0.04
1.60581e-05
0.04
1.60247e-05
0.04
1.59914e-05
0.04
1.59581e-05
0.04
1.59248e-05
0.04
1.58915e-05
0.04
1.58582e-05
0.04
1.58249e-05
0.04
1.57916e-05
0.04
1.57583e-05
0.04
1.5725e-05
0.04
1.56918e-05
0.04
1.56585e-05
0.04
1.56252e-05
0.04
1.55919e-05
0.04
1.55587e-05
0.04
1.55254e-05
0.04
1.54921e-05
0.04
1.54589e-05
0.04
1.54256e-05
0.04
1.53924e-05
0.04
1.53591e-05
0.04
1.53259e-05
0.04
1.52926e-05
0.04
1.52594e-05
0.04
1.52261e-05
0.04
1.51929e-05
0.04
1.51597e-05
0.04
1.51264e-05
0.04
1.50932e-05
0.04
1.506e-05
0.04
1.50267e-05
0.04
1.49935e-05
0.04
1.49603e-05
0.04
1.49271e-05
0.04
1.48939e-05
0.04
1.48607e-05
0.04
1.48275e-05
0.04
1.47943e-05
0.04
1.47611e-05
0.04
1.47279e-05
0.04
1.46947e-05
0.04
1.46615e-05
0.04
1.46283e-05
0.04
1.45951e-05
0.04
1.45619e-05
0.04
1.45288e-05
0.04
1.44956e-05
0.04
1.44624e-05
0.04
1.44292e-05
0.04
1.43961e-05
0.04
1.43629e-05
0.04
1.43297e-05
0.04
1.42966e-05
0.04
1.42634e-05
0.04
1.42303e-05
0.04
1.41971e-05
0.04
1.4164e-05
0.04
1.41308e-05
0.04
1.40977e-05
0.04
1.40646e-05
0.04
1.40314e-05
0.04
1.39983e-05
0.04
1.39652e-05
0.04
1.3932e-05
0.04
1.38989e-05
0.04
1.38658e-05
0.04
1.38327e-05
0.04
1.37995e-05
0.04
1.37664e-05
0.04
1.37333e-05
0.04
1.37002e-05
0.04
1.36671e-05
0.04
1.3634e-05
0.04
1.36009e-05
0.04
1.35678e-05
0.04
1.35347e-05
0.04
1.35016e-05
0.04
1.34685e-05
0.04
1.34354e-05
0.04
1.34024e-05
0.04
1.33693e-05
0.04
1.33362e-05
0.04
1.33031e-05
0.04
1.32701e-05
0.04
1.3237e-05
0.04
1.32039e-05
0.04
1.31709e-05
0.04
1.31378e-05
0.04
1.31047e-05
0.04
1.30717e-05
0.04
1.30386e-05
0.04
1.30056e-05
0.04
1.29725e-05
0.04
1.29395e-05
0.04
1.29064e-05
0.04
1.28734e-05
0.04
1.28403e-05
0.04
1.28073e-05
0.04
1.27743e-05
0.04
1.27412e-05
0.04
1.27082e-05
0.04
1.26752e-05
0.04
1.26422e-05
0.04
1.26091e-05
0.04
1.25761e-05
0.04
1.25431e-05
0.04
1.25101e-05
0.04
1.24771e-05
0.04
1.24441e-05
0.04
1.24111e-05
0.04
1.23781e-05
0.04
1.23451e-05
0.04
1.23121e-05
0.04
1.22791e-05
0.04
1.22461e-05
0.04
1.22131e-05
0.04
1.21801e-05
0.04
1.21471e-05
0.04
1.21141e-05
0.04
1.20811e-05
0.04
1.20482e-05
0.04
1.20152e-05
0.04
1.19822e-05
0.04
1.19492e-05
0.04
1.19163e-05
0.04
1.18833e-05
0.04
1.18503e-05
0.04
1.18174e-05
0.04
1.17844e-05
0.04
1.17514e-05
0.04
1.17185e-05
0.04
1.16855e-05
0.04
1.16526e-05
0.04
1.16196e-05
0.04
1.15867e-05
0.04
1.15537e-05
0.04
1.15208e-05
0.04
1.14879e-05
0.04
1.14549e-05
0.04
1.1422e-05
0.04
1.13891e-05
0.04
1.13561e-05
0.04
1.13232e-05
0.04
1.12903e-05
0.04
1.12573e-05
0.04
1.12244e-05
0.04
1.11915e-05
0.04
1.11586e-05
0.04
1.11257e-05
0.04
1.10928e-05
0.04
1.10598e-05
0.04
1.10269e-05
0.04
1.0994e-05
0.04
1.09611e-05
0.04
1.09282e-05
0.04
1.08953e-05
0.04
1.08624e-05
0.04
1.08295e-05
0.04
1.07966e-05
0.04
1.07637e-05
0.04
1.07308e-05
0.04
1.0698e-05
0.04
1.06651e-05
0.04
1.06322e-05
0.04
1.05993e-05
0.04
1.05664e-05
0.04
1.05335e-05
0.04
1.05007e-05
0.04
1.04678e-05
0.04
1.04349e-05
0.04
1.0402e-05
0.04
1.03692e-05
0.04
1.03363e-05
0.04
1.03034e-05
0.04
1.02706e-05
0.04
1.02377e-05
0.04
1.02049e-05
0.04
1.0172e-05
0.04
1.01392e-05
0.04
1.01063e-05
0.04
1.00735e-05
0.04
1.00406e-05
0.04
1.00078e-05
0.04
9.97491e-06
0.04
9.94206e-06
0.04
9.90922e-06
0.04
9.87638e-06
0.04
9.84354e-06
0.04
9.81071e-06
0.04
9.77787e-06
0.04
9.74504e-06
0.04
9.71221e-06
0.04
9.67938e-06
0.04
9.64655e-06
0.04
9.61372e-06
0.04
9.5809e-06
0.04
9.54808e-06
0.04
9.51526e-06
0.04
9.48244e-06
0.04
9.44962e-06
0.04
9.4168e-06
0.04
9.38399e-06
0.04
9.35118e-06
0.04
9.31836e-06
0.04
9.28555e-06
0.04
9.25275e-06
0.04
9.21994e-06
0.04
9.18713e-06
0.04
9.15433e-06
0.04
9.12153e-06
0.04
9.08873e-06
0.04
9.05593e-06
0.04
9.02313e-06
0.04
8.99034e-06
0.04
8.95754e-06
0.04
8.92475e-06
0.04
8.89196e-06
0.04
8.85917e-06
0.04
8.82638e-06
0.04
8.79359e-06
0.04
8.7608e-06
0.04
8.72802e-06
0.04
8.69524e-06
0.04
8.66245e-06
0.04
8.62967e-06
0.04
8.59689e-06
0.04
8.56412e-06
0.04
8.53134e-06
0.04
8.49856e-06
0.04
8.46579e-06
0.04
8.43302e-06
0.04
8.40024e-06
0.04
8.36747e-06
0.04
8.3347e-06
0.04
8.30193e-06
0.04
8.26917e-06
0.04
8.2364e-06
0.04
8.20363e-06
0.04
8.17087e-06
0.04
8.1381e-06
0.04
8.10534e-06
0.04
8.07258e-06
0.04
8.03982e-06
0.04
8.00706e-06
0.04
7.9743e-06
0.04
7.94154e-06
0.04
7.90879e-06
0.04
7.87603e-06
0.04
7.84327e-06
0.04
7.81052e-06
0.04
7.77776e-06
0.04
7.74501e-06
0.04
7.71226e-06
0.04
7.67951e-06
0.04
7.64675e-06
0.04
7.614e-06
0.04
7.58125e-06
0.04
7.5485e-06
0.04
7.51575e-06
0.04
7.483e-06
0.04
7.45026e-06
0.04
7.41751e-06
0.04
7.38476e-06
0.04
7.35201e-06
0.04
7.31926e-06
0.04
7.28652e-06
0.04
7.25377e-06
0.04
7.22102e-06
0.04
7.18828e-06
0.04
7.15553e-06
0.04
7.12278e-06
0.04
7.09004e-06
0.04
7.05729e-06
0.04
7.02454e-06
0.04
6.9918e-06
0.04
6.95905e-06
0.04
6.9263e-06
0.04
6.89355e-06
0.04
6.8608e-06
0.04
6.82806e-06
0.04
6.79531e-06
0.04
6.76256e-06
0.04
6.72981e-06
0.04
6.69706e-06
0.04
6.6643e-06
0.04
6.63155e-06
0.04
6.5988e-06
0.04
6.56604e-06
0.04
6.53329e-06
0.04
6.50053e-06
0.04
6.46777e-06
0.04
6.43501e-06
0.04
6.40225e-06
0.04
6.36949e-06
0.04
6.33673e-06
0.04
6.30396e-06
0.04
6.2712e-06
0.04
6.23843e-06
0.04
6.20566e-06
0.04
6.17289e-06
0.04
6.14011e-06
0.04
6.10734e-06
0.04
6.07456e-06
0.04
6.04178e-06
0.04
6.00899e-06
0.04
5.97621e-06
0.04
5.94342e-06
0.04
5.91063e-06
0.04
5.87783e-06
0.04
5.84503e-06
0.04
5.81223e-06
0.04
5.77943e-06
0.04
5.74662e-06
0.04
5.71381e-06
0.04
5.68099e-06
0.04
5.64817e-06
0.04
5.61535e-06
0.04
5.58252e-06
0.04
5.54969e-06
0.04
5.51685e-06
0.04
5.48401e-06
0.04
5.45116e-06
0.04
5.41831e-06
0.04
5.38545e-06
0.04
5.35259e-06
0.04
5.31972e-06
0.04
5.28684e-06
0.04
5.25396e-06
0.04
5.22107e-06
0.04
5.18817e-06
0.04
5.15527e-06
0.04
5.12235e-06
0.04
5.08943e-06
0.04
5.05651e-06
0.04
5.02357e-06
0.04
4.99062e-06
0.04
4.95767e-06
0.04
4.9247e-06
0.04
4.89173e-06
0.04
4.85874e-06
0.04
4.82574e-06
0.04
4.79273e-06
0.04
4.75971e-06
0.04
4.72668e-06
0.04
4.69363e-06
0.04
4.66057e-06
0.04
4.62749e-06
0.04
4.5944e-06
0.04
4.56129e-06
0.04
4.52816e-06
0.04
4.49502e-06
0.04
4.46186e-06
0.04
4.42867e-06
0.04
4.39547e-06
0.04
4.36224e-06
0.04
4.32899e-06
0.04
4.29571e-06
0.04
4.2624e-06
0.04
4.22907e-06
0.04
4.1957e-06
0.04
4.1623e-06
0.04
4.12886e-06
0.04
4.09538e-06
0.04
4.06186e-06
0.04
4.02828e-06
0.04
3.99466e-06
0.04
3.96097e-06
0.04
3.92723e-06
0.04
3.8934e-06
0.04
3.8595e-06
0.04
3.8255e-06
0.04
3.79139e-06
0.04
3.75715e-06
0.04
3.72277e-06
0.04
3.6882e-06
0.04
3.65341e-06
0.04
3.61835e-06
0.04
3.58293e-06
0.04
3.54702e-06
0.04
3.51041e-06
0.04
3.4727e-06
0.04
3.43629e-06
0.04
3.38362e-06
0.0400001
0.04
7.9774e-07
0.0400027
1.16302e-06
0.0399939
7.11215e-07
0.0400043
9.55461e-07
0.0399974
9.00885e-07
0.0400009
9.18918e-07
0.0399998
9.27279e-07
0.04
9.32204e-07
0.04
9.35008e-07
0.04
9.36437e-07
0.04
9.3695e-07
0.04
9.36839e-07
0.04
9.36301e-07
0.04
9.35464e-07
0.04
9.34417e-07
0.04
9.33223e-07
0.04
9.31925e-07
0.04
9.30555e-07
0.04
9.29137e-07
0.04
9.27686e-07
0.04
9.26214e-07
0.04
9.24732e-07
0.04
9.23246e-07
0.04
9.2176e-07
0.04
9.2028e-07
0.04
9.18806e-07
0.04
9.17342e-07
0.04
9.1589e-07
0.04
9.1445e-07
0.04
9.13023e-07
0.04
9.11609e-07
0.04
9.10209e-07
0.04
9.08823e-07
0.04
9.07451e-07
0.04
9.06093e-07
0.04
9.04748e-07
0.04
9.03417e-07
0.04
9.021e-07
0.04
9.00795e-07
0.04
8.99503e-07
0.04
8.98224e-07
0.04
8.96957e-07
0.04
8.95701e-07
0.04
8.94457e-07
0.04
8.93225e-07
0.04
8.92003e-07
0.04
8.90792e-07
0.04
8.89591e-07
0.04
8.884e-07
0.04
8.87219e-07
0.04
8.86047e-07
0.04
8.84885e-07
0.04
8.83732e-07
0.04
8.82587e-07
0.04
8.8145e-07
0.04
8.80321e-07
0.04
8.79201e-07
0.04
8.78087e-07
0.04
8.76981e-07
0.04
8.75883e-07
0.04
8.74791e-07
0.04
8.73706e-07
0.04
8.72627e-07
0.04
8.71554e-07
0.04
8.70488e-07
0.04
8.69427e-07
0.04
8.68372e-07
0.04
8.67323e-07
0.04
8.66279e-07
0.04
8.65241e-07
0.04
8.64207e-07
0.04
8.63179e-07
0.04
8.62155e-07
0.04
8.61135e-07
0.04
8.60121e-07
0.04
8.5911e-07
0.04
8.58104e-07
0.04
8.57101e-07
0.04
8.56103e-07
0.04
8.55108e-07
0.04
8.54117e-07
0.04
8.5313e-07
0.04
8.52146e-07
0.04
8.51165e-07
0.04
8.50188e-07
0.04
8.49213e-07
0.04
8.48242e-07
0.04
8.47274e-07
0.04
8.46309e-07
0.04
8.45346e-07
0.04
8.44386e-07
0.04
8.43429e-07
0.04
8.42474e-07
0.04
8.41522e-07
0.04
8.40572e-07
0.04
8.39625e-07
0.04
8.38679e-07
0.04
8.37736e-07
0.04
8.36795e-07
0.04
8.35856e-07
0.04
8.34919e-07
0.04
8.33984e-07
0.04
8.33051e-07
0.04
8.32119e-07
0.04
8.3119e-07
0.04
8.30261e-07
0.04
8.29335e-07
0.04
8.2841e-07
0.04
8.27487e-07
0.04
8.26565e-07
0.04
8.25645e-07
0.04
8.24726e-07
0.04
8.23809e-07
0.04
8.22892e-07
0.04
8.21977e-07
0.04
8.21064e-07
0.04
8.20151e-07
0.04
8.1924e-07
0.04
8.1833e-07
0.04
8.17421e-07
0.04
8.16513e-07
0.04
8.15606e-07
0.04
8.147e-07
0.04
8.13795e-07
0.04
8.12891e-07
0.04
8.11988e-07
0.04
8.11086e-07
0.04
8.10185e-07
0.04
8.09285e-07
0.04
8.08385e-07
0.04
8.07486e-07
0.04
8.06588e-07
0.04
8.0569e-07
0.04
8.04794e-07
0.04
8.03897e-07
0.04
8.03002e-07
0.04
8.02108e-07
0.04
8.01214e-07
0.04
8.00321e-07
0.04
7.99428e-07
0.04
7.98536e-07
0.04
7.97644e-07
0.04
7.96753e-07
0.04
7.95863e-07
0.04
7.94973e-07
0.04
7.94083e-07
0.04
7.93194e-07
0.04
7.92306e-07
0.04
7.91418e-07
0.04
7.9053e-07
0.04
7.89643e-07
0.04
7.88757e-07
0.04
7.8787e-07
0.04
7.86984e-07
0.04
7.86099e-07
0.04
7.85213e-07
0.04
7.84328e-07
0.04
7.83444e-07
0.04
7.8256e-07
0.04
7.81676e-07
0.04
7.80792e-07
0.04
7.79909e-07
0.04
7.79027e-07
0.04
7.78144e-07
0.04
7.77262e-07
0.04
7.7638e-07
0.04
7.75499e-07
0.04
7.74617e-07
0.04
7.73736e-07
0.04
7.72856e-07
0.04
7.71975e-07
0.04
7.71095e-07
0.04
7.70215e-07
0.04
7.69335e-07
0.04
7.68455e-07
0.04
7.67575e-07
0.04
7.66696e-07
0.04
7.65817e-07
0.04
7.64938e-07
0.04
7.64059e-07
0.04
7.63181e-07
0.04
7.62302e-07
0.04
7.61424e-07
0.04
7.60546e-07
0.04
7.59668e-07
0.04
7.58791e-07
0.04
7.57913e-07
0.04
7.57036e-07
0.04
7.56159e-07
0.04
7.55282e-07
0.04
7.54405e-07
0.04
7.53528e-07
0.04
7.52652e-07
0.04
7.51775e-07
0.04
7.50899e-07
0.04
7.50023e-07
0.04
7.49147e-07
0.04
7.48271e-07
0.04
7.47395e-07
0.04
7.46519e-07
0.04
7.45643e-07
0.04
7.44768e-07
0.04
7.43893e-07
0.04
7.43017e-07
0.04
7.42142e-07
0.04
7.41267e-07
0.04
7.40392e-07
0.04
7.39518e-07
0.04
7.38643e-07
0.04
7.37768e-07
0.04
7.36894e-07
0.04
7.36019e-07
0.04
7.35145e-07
0.04
7.34271e-07
0.04
7.33397e-07
0.04
7.32523e-07
0.04
7.31649e-07
0.04
7.30775e-07
0.04
7.29901e-07
0.04
7.29027e-07
0.04
7.28153e-07
0.04
7.2728e-07
0.04
7.26406e-07
0.04
7.25533e-07
0.04
7.24659e-07
0.04
7.23786e-07
0.04
7.22912e-07
0.04
7.22039e-07
0.04
7.21166e-07
0.04
7.20293e-07
0.04
7.1942e-07
0.04
7.18547e-07
0.04
7.17674e-07
0.04
7.16801e-07
0.04
7.15928e-07
0.04
7.15056e-07
0.04
7.14183e-07
0.04
7.13311e-07
0.04
7.12438e-07
0.04
7.11566e-07
0.04
7.10693e-07
0.04
7.09821e-07
0.04
7.08948e-07
0.04
7.08076e-07
0.04
7.07204e-07
0.04
7.06332e-07
0.04
7.05459e-07
0.04
7.04587e-07
0.04
7.03715e-07
0.04
7.02843e-07
0.04
7.01971e-07
0.04
7.01099e-07
0.04
7.00227e-07
0.04
6.99355e-07
0.04
6.98484e-07
0.04
6.97612e-07
0.04
6.9674e-07
0.04
6.95869e-07
0.04
6.94997e-07
0.04
6.94125e-07
0.04
6.93254e-07
0.04
6.92382e-07
0.04
6.91511e-07
0.04
6.9064e-07
0.04
6.89768e-07
0.04
6.88897e-07
0.04
6.88026e-07
0.04
6.87155e-07
0.04
6.86283e-07
0.04
6.85412e-07
0.04
6.84541e-07
0.04
6.8367e-07
0.04
6.82799e-07
0.04
6.81927e-07
0.04
6.81056e-07
0.04
6.80185e-07
0.04
6.79315e-07
0.04
6.78444e-07
0.04
6.77573e-07
0.04
6.76702e-07
0.04
6.75831e-07
0.04
6.74961e-07
0.04
6.7409e-07
0.04
6.73219e-07
0.04
6.72349e-07
0.04
6.71478e-07
0.04
6.70608e-07
0.04
6.69737e-07
0.04
6.68867e-07
0.04
6.67996e-07
0.04
6.67126e-07
0.04
6.66255e-07
0.04
6.65385e-07
0.04
6.64515e-07
0.04
6.63644e-07
0.04
6.62774e-07
0.04
6.61903e-07
0.04
6.61033e-07
0.04
6.60163e-07
0.04
6.59293e-07
0.04
6.58423e-07
0.04
6.57553e-07
0.04
6.56683e-07
0.04
6.55812e-07
0.04
6.54943e-07
0.04
6.54073e-07
0.04
6.53203e-07
0.04
6.52333e-07
0.04
6.51463e-07
0.04
6.50593e-07
0.04
6.49723e-07
0.04
6.48854e-07
0.04
6.47984e-07
0.04
6.47114e-07
0.04
6.46244e-07
0.04
6.45375e-07
0.04
6.44505e-07
0.04
6.43635e-07
0.04
6.42766e-07
0.04
6.41896e-07
0.04
6.41027e-07
0.04
6.40157e-07
0.04
6.39287e-07
0.04
6.38418e-07
0.04
6.37549e-07
0.04
6.36679e-07
0.04
6.3581e-07
0.04
6.3494e-07
0.04
6.34071e-07
0.04
6.33202e-07
0.04
6.32333e-07
0.04
6.31464e-07
0.04
6.30594e-07
0.04
6.29725e-07
0.04
6.28856e-07
0.04
6.27987e-07
0.04
6.27118e-07
0.04
6.26249e-07
0.04
6.2538e-07
0.04
6.24511e-07
0.04
6.23642e-07
0.04
6.22773e-07
0.04
6.21904e-07
0.04
6.21035e-07
0.04
6.20166e-07
0.04
6.19297e-07
0.04
6.18428e-07
0.04
6.17559e-07
0.04
6.16691e-07
0.04
6.15822e-07
0.04
6.14953e-07
0.04
6.14084e-07
0.04
6.13216e-07
0.04
6.12347e-07
0.04
6.11479e-07
0.04
6.1061e-07
0.04
6.09742e-07
0.04
6.08873e-07
0.04
6.08005e-07
0.04
6.07136e-07
0.04
6.06268e-07
0.04
6.05399e-07
0.04
6.04531e-07
0.04
6.03663e-07
0.04
6.02794e-07
0.04
6.01926e-07
0.04
6.01058e-07
0.04
6.00189e-07
0.04
5.99321e-07
0.04
5.98453e-07
0.04
5.97584e-07
0.04
5.96716e-07
0.04
5.95848e-07
0.04
5.9498e-07
0.04
5.94112e-07
0.04
5.93244e-07
0.04
5.92376e-07
0.04
5.91508e-07
0.04
5.9064e-07
0.04
5.89772e-07
0.04
5.88904e-07
0.04
5.88036e-07
0.04
5.87168e-07
0.04
5.863e-07
0.04
5.85432e-07
0.04
5.84564e-07
0.04
5.83697e-07
0.04
5.82829e-07
0.04
5.81961e-07
0.04
5.81093e-07
0.04
5.80226e-07
0.04
5.79358e-07
0.04
5.7849e-07
0.04
5.77622e-07
0.04
5.76755e-07
0.04
5.75887e-07
0.04
5.75019e-07
0.04
5.74152e-07
0.04
5.73284e-07
0.04
5.72417e-07
0.04
5.71549e-07
0.04
5.70682e-07
0.04
5.69814e-07
0.04
5.68947e-07
0.04
5.68079e-07
0.04
5.67212e-07
0.04
5.66345e-07
0.04
5.65477e-07
0.04
5.6461e-07
0.04
5.63743e-07
0.04
5.62876e-07
0.04
5.62008e-07
0.04
5.61141e-07
0.04
5.60274e-07
0.04
5.59407e-07
0.04
5.5854e-07
0.04
5.57672e-07
0.04
5.56805e-07
0.04
5.55938e-07
0.04
5.55071e-07
0.04
5.54204e-07
0.04
5.53337e-07
0.04
5.5247e-07
0.04
5.51603e-07
0.04
5.50736e-07
0.04
5.49869e-07
0.04
5.49002e-07
0.04
5.48135e-07
0.04
5.47268e-07
0.04
5.46402e-07
0.04
5.45535e-07
0.04
5.44668e-07
0.04
5.43801e-07
0.04
5.42935e-07
0.04
5.42068e-07
0.04
5.41201e-07
0.04
5.40335e-07
0.04
5.39468e-07
0.04
5.38601e-07
0.04
5.37735e-07
0.04
5.36868e-07
0.04
5.36001e-07
0.04
5.35135e-07
0.04
5.34268e-07
0.04
5.33402e-07
0.04
5.32535e-07
0.04
5.31669e-07
0.04
5.30802e-07
0.04
5.29936e-07
0.04
5.29069e-07
0.04
5.28203e-07
0.04
5.27337e-07
0.04
5.2647e-07
0.04
5.25604e-07
0.04
5.24738e-07
0.04
5.23872e-07
0.04
5.23005e-07
0.04
5.22139e-07
0.04
5.21273e-07
0.04
5.20407e-07
0.04
5.19541e-07
0.04
5.18675e-07
0.04
5.17809e-07
0.04
5.16943e-07
0.04
5.16077e-07
0.04
5.15211e-07
0.04
5.14344e-07
0.04
5.13478e-07
0.04
5.12612e-07
0.04
5.11746e-07
0.04
5.1088e-07
0.04
5.10015e-07
0.04
5.09149e-07
0.04
5.08283e-07
0.04
5.07417e-07
0.04
5.06551e-07
0.04
5.05685e-07
0.04
5.0482e-07
0.04
5.03954e-07
0.04
5.03088e-07
0.04
5.02222e-07
0.04
5.01357e-07
0.04
5.00491e-07
0.04
4.99625e-07
0.04
4.9876e-07
0.04
4.97894e-07
0.04
4.97028e-07
0.04
4.96163e-07
0.04
4.95297e-07
0.04
4.94431e-07
0.04
4.93566e-07
0.04
4.927e-07
0.04
4.91835e-07
0.04
4.90969e-07
0.04
4.90103e-07
0.04
4.89238e-07
0.04
4.88372e-07
0.04
4.87507e-07
0.04
4.86641e-07
0.04
4.85776e-07
0.04
4.84911e-07
0.04
4.84045e-07
0.04
4.8318e-07
0.04
4.82314e-07
0.04
4.81449e-07
0.04
4.80584e-07
0.04
4.79718e-07
0.04
4.78853e-07
0.04
4.77988e-07
0.04
4.77123e-07
0.04
4.76257e-07
0.04
4.75392e-07
0.04
4.74527e-07
0.04
4.73662e-07
0.04
4.72797e-07
0.04
4.71932e-07
0.04
4.71066e-07
0.04
4.70201e-07
0.04
4.69336e-07
0.04
4.68471e-07
0.04
4.67606e-07
0.04
4.66741e-07
0.04
4.65876e-07
0.04
4.65011e-07
0.04
4.64147e-07
0.04
4.63282e-07
0.04
4.62417e-07
0.04
4.61552e-07
0.04
4.60687e-07
0.04
4.59823e-07
0.04
4.58958e-07
0.04
4.58093e-07
0.04
4.57228e-07
0.04
4.56364e-07
0.04
4.55499e-07
0.04
4.54634e-07
0.04
4.5377e-07
0.04
4.52905e-07
0.04
4.5204e-07
0.04
4.51176e-07
0.04
4.50311e-07
0.04
4.49447e-07
0.04
4.48582e-07
0.04
4.47718e-07
0.04
4.46853e-07
0.04
4.45989e-07
0.04
4.45124e-07
0.04
4.4426e-07
0.04
4.43396e-07
0.04
4.42531e-07
0.04
4.41667e-07
0.04
4.40802e-07
0.04
4.39938e-07
0.04
4.39074e-07
0.04
4.3821e-07
0.04
4.37345e-07
0.04
4.36481e-07
0.04
4.35617e-07
0.04
4.34753e-07
0.04
4.33888e-07
0.04
4.33024e-07
0.04
4.3216e-07
0.04
4.31296e-07
0.04
4.30432e-07
0.04
4.29568e-07
0.04
4.28704e-07
0.04
4.2784e-07
0.04
4.26976e-07
0.04
4.26112e-07
0.04
4.25248e-07
0.04
4.24384e-07
0.04
4.2352e-07
0.04
4.22656e-07
0.04
4.21792e-07
0.04
4.20928e-07
0.04
4.20064e-07
0.04
4.192e-07
0.04
4.18336e-07
0.04
4.17473e-07
0.04
4.16609e-07
0.04
4.15745e-07
0.04
4.14881e-07
0.04
4.14017e-07
0.04
4.13154e-07
0.04
4.1229e-07
0.04
4.11426e-07
0.04
4.10563e-07
0.04
4.09699e-07
0.04
4.08835e-07
0.04
4.07972e-07
0.04
4.07108e-07
0.04
4.06244e-07
0.04
4.05381e-07
0.04
4.04517e-07
0.04
4.03654e-07
0.04
4.0279e-07
0.04
4.01927e-07
0.04
4.01063e-07
0.04
4.002e-07
0.04
3.99336e-07
0.04
3.98473e-07
0.04
3.97609e-07
0.04
3.96746e-07
0.04
3.95882e-07
0.04
3.95019e-07
0.04
3.94156e-07
0.04
3.93292e-07
0.04
3.92429e-07
0.04
3.91566e-07
0.04
3.90702e-07
0.04
3.89839e-07
0.04
3.88976e-07
0.04
3.88113e-07
0.04
3.87249e-07
0.04
3.86386e-07
0.04
3.85523e-07
0.04
3.8466e-07
0.04
3.83797e-07
0.04
3.82933e-07
0.04
3.8207e-07
0.04
3.81207e-07
0.04
3.80344e-07
0.04
3.79481e-07
0.04
3.78618e-07
0.04
3.77755e-07
0.04
3.76892e-07
0.04
3.76029e-07
0.04
3.75166e-07
0.04
3.74303e-07
0.04
3.73439e-07
0.04
3.72576e-07
0.04
3.71713e-07
0.04
3.7085e-07
0.04
3.69987e-07
0.04
3.69125e-07
0.04
3.68262e-07
0.04
3.67399e-07
0.04
3.66536e-07
0.04
3.65673e-07
0.04
3.6481e-07
0.04
3.63947e-07
0.04
3.63084e-07
0.04
3.62221e-07
0.04
3.61358e-07
0.04
3.60495e-07
0.04
3.59633e-07
0.04
3.5877e-07
0.04
3.57907e-07
0.04
3.57044e-07
0.04
3.56181e-07
0.04
3.55319e-07
0.04
3.54456e-07
0.04
3.53593e-07
0.04
3.5273e-07
0.04
3.51868e-07
0.04
3.51005e-07
0.04
3.50142e-07
0.04
3.49279e-07
0.04
3.48417e-07
0.04
3.47554e-07
0.04
3.46692e-07
0.04
3.45829e-07
0.04
3.44966e-07
0.04
3.44104e-07
0.04
3.43241e-07
0.04
3.42379e-07
0.04
3.41516e-07
0.04
3.40654e-07
0.04
3.39791e-07
0.04
3.38929e-07
0.04
3.38066e-07
0.04
3.37204e-07
0.04
3.36341e-07
0.04
3.35479e-07
0.04
3.34616e-07
0.04
3.33754e-07
0.04
3.32892e-07
0.04
3.32029e-07
0.04
3.31167e-07
0.04
3.30304e-07
0.04
3.29442e-07
0.04
3.2858e-07
0.04
3.27717e-07
0.04
3.26855e-07
0.04
3.25993e-07
0.04
3.2513e-07
0.04
3.24268e-07
0.04
3.23406e-07
0.04
3.22544e-07
0.04
3.21681e-07
0.04
3.20819e-07
0.04
3.19957e-07
0.04
3.19095e-07
0.04
3.18232e-07
0.04
3.1737e-07
0.04
3.16508e-07
0.04
3.15646e-07
0.04
3.14784e-07
0.04
3.13922e-07
0.04
3.13059e-07
0.04
3.12197e-07
0.04
3.11335e-07
0.04
3.10473e-07
0.04
3.09611e-07
0.04
3.08749e-07
0.04
3.07887e-07
0.04
3.07025e-07
0.04
3.06163e-07
0.04
3.05301e-07
0.04
3.04439e-07
0.04
3.03577e-07
0.04
3.02715e-07
0.04
3.01853e-07
0.04
3.00991e-07
0.04
3.00129e-07
0.04
2.99267e-07
0.04
2.98405e-07
0.04