/*--------------------------------*- C++ -*----------------------------------*\
| =========                 |                                                 |
| \\      /  F ield         | OpenFOAM: The Open Source CFD Toolbox           |
|  \\    /   O peration     | Version:  2512                                  |
|   \\  /    A nd           | Website:  www.openfoam.com                      |
|    \\/     M anipulation  |                                                 |
\*---------------------------------------------------------------------------*/
FoamFile
{
    version     2.0;
    format      ascii;
    arch        "LSB;label=32;scalar=64";
    class       volVectorField;
    location    "2e-05";
    object      U;
}
// * * * * * * * * * * * * * * * * * * * * * * * * * * * * * * * * * * * * * //

dimensions      [0 1 -1 0 0 0 0];

internalField   nonuniform List<vector> 
100000
(
(0.81086 0.000509855 -0)
(1.14637 0.000369678 -0)
(0.900255 0.000453415 -0)
(1.04675 0.000409928 -0)
(0.980304 0.000425608 -0)
(0.995305 0.000421793 -0)
(0.993203 0.000422187 -0)
(0.992088 0.000422265 -0)
(0.990971 0.000422372 -0)
(0.989852 0.000422473 -0)
(0.988734 0.000422562 -0)
(0.987615 0.000422636 -0)
(0.986496 0.000422698 -0)
(0.985376 0.000422747 -0)
(0.984257 0.000422786 -0)
(0.983137 0.000422816 -0)
(0.982017 0.000422837 -0)
(0.980897 0.000422852 -0)
(0.979778 0.00042286 -0)
(0.978658 0.000422862 -0)
(0.977538 0.000422859 -0)
(0.976418 0.000422852 -0)
(0.975298 0.000422841 -0)
(0.974178 0.000422826 -0)
(0.973059 0.00042281 -0)
(0.971939 0.000422791 -0)
(0.970819 0.00042277 -0)
(0.969699 0.000422747 -0)
(0.96858 0.000422724 -0)
(0.96746 0.000422698 -0)
(0.966341 0.000422672 -0)
(0.965221 0.000422644 -0)
(0.964102 0.000422616 -0)
(0.962983 0.000422586 -0)
(0.961863 0.000422554 -0)
(0.960744 0.000422522 -0)
(0.959625 0.000422489 -0)
(0.958506 0.000422454 -0)
(0.957387 0.000422418 -0)
(0.956268 0.000422381 -0)
(0.955149 0.000422343 -0)
(0.954031 0.000422304 -0)
(0.952912 0.000422264 -0)
(0.951794 0.000422224 -0)
(0.950675 0.000422182 -0)
(0.949557 0.00042214 -0)
(0.948439 0.000422098 -0)
(0.947321 0.000422055 -0)
(0.946203 0.000422011 -0)
(0.945085 0.000421967 -0)
(0.943968 0.000421922 -0)
(0.94285 0.000421877 -0)
(0.941733 0.000421831 -0)
(0.940615 0.000421785 -0)
(0.939498 0.000421737 -0)
(0.938381 0.000421689 -0)
(0.937264 0.00042164 -0)
(0.936148 0.00042159 -0)
(0.935031 0.000421538 -0)
(0.933915 0.000421486 -0)
(0.932798 0.000421433 -0)
(0.931682 0.000421378 -0)
(0.930566 0.000421323 -0)
(0.92945 0.000421267 -0)
(0.928334 0.00042121 -0)
(0.927219 0.000421153 -0)
(0.926104 0.000421095 -0)
(0.924988 0.000421037 -0)
(0.923873 0.000420978 -0)
(0.922758 0.000420918 -0)
(0.921644 0.000420858 -0)
(0.920529 0.000420798 -0)
(0.919415 0.000420737 -0)
(0.918301 0.000420675 -0)
(0.917187 0.000420613 -0)
(0.916073 0.000420549 -0)
(0.914959 0.000420484 -0)
(0.913846 0.000420419 -0)
(0.912732 0.000420352 -0)
(0.911619 0.000420284 -0)
(0.910506 0.000420214 -0)
(0.909394 0.000420144 -0)
(0.908281 0.000420073 -0)
(0.907169 0.000420001 -0)
(0.906057 0.000419928 -0)
(0.904945 0.000419855 -0)
(0.903834 0.000419781 -0)
(0.902722 0.000419706 -0)
(0.901611 0.000419631 -0)
(0.9005 0.000419556 -0)
(0.899389 0.00041948 -0)
(0.898279 0.000419404 -0)
(0.897168 0.000419328 -0)
(0.896058 0.000419251 -0)
(0.894949 0.000419173 -0)
(0.893839 0.000419094 -0)
(0.89273 0.000419015 -0)
(0.89162 0.000418934 -0)
(0.890511 0.000418853 -0)
(0.889403 0.00041877 -0)
(0.888294 0.000418686 -0)
(0.887186 0.000418601 -0)
(0.886078 0.000418515 -0)
(0.884971 0.000418429 -0)
(0.883863 0.000418341 -0)
(0.882756 0.000418252 -0)
(0.881649 0.000418163 -0)
(0.880543 0.000418073 -0)
(0.879436 0.000417983 -0)
(0.87833 0.000417892 -0)
(0.877225 0.000417801 -0)
(0.876119 0.000417709 -0)
(0.875014 0.000417616 -0)
(0.873909 0.000417523 -0)
(0.872804 0.000417429 -0)
(0.8717 0.000417335 -0)
(0.870596 0.000417239 -0)
(0.869492 0.000417143 -0)
(0.868388 0.000417045 -0)
(0.867285 0.000416947 -0)
(0.866182 0.000416847 -0)
(0.865079 0.000416746 -0)
(0.863977 0.000416643 -0)
(0.862875 0.00041654 -0)
(0.861773 0.000416436 -0)
(0.860672 0.000416331 -0)
(0.85957 0.000416225 -0)
(0.85847 0.000416118 -0)
(0.857369 0.000416011 -0)
(0.856269 0.000415903 -0)
(0.855169 0.000415795 -0)
(0.85407 0.000415686 -0)
(0.85297 0.000415576 -0)
(0.851871 0.000415466 -0)
(0.850773 0.000415355 -0)
(0.849675 0.000415244 -0)
(0.848577 0.000415132 -0)
(0.847479 0.000415019 -0)
(0.846382 0.000414905 -0)
(0.845285 0.000414791 -0)
(0.844188 0.000414675 -0)
(0.843092 0.000414558 -0)
(0.841996 0.00041444 -0)
(0.840901 0.000414321 -0)
(0.839806 0.000414201 -0)
(0.838711 0.00041408 -0)
(0.837617 0.000413957 -0)
(0.836522 0.000413835 -0)
(0.835429 0.000413711 -0)
(0.834335 0.000413586 -0)
(0.833242 0.000413461 -0)
(0.83215 0.000413336 -0)
(0.831058 0.000413209 -0)
(0.829966 0.000413083 -0)
(0.828874 0.000412955 -0)
(0.827783 0.000412827 -0)
(0.826693 0.000412699 -0)
(0.825602 0.00041257 -0)
(0.824512 0.00041244 -0)
(0.823423 0.000412309 -0)
(0.822334 0.000412178 -0)
(0.821245 0.000412046 -0)
(0.820156 0.000411912 -0)
(0.819068 0.000411778 -0)
(0.817981 0.000411643 -0)
(0.816894 0.000411506 -0)
(0.815807 0.000411369 -0)
(0.814721 0.000411231 -0)
(0.813635 0.000411092 -0)
(0.812549 0.000410953 -0)
(0.811464 0.000410812 -0)
(0.810379 0.000410671 -0)
(0.809295 0.00041053 -0)
(0.808211 0.000410388 -0)
(0.807128 0.000410245 -0)
(0.806045 0.000410102 -0)
(0.804962 0.000409959 -0)
(0.80388 0.000409815 -0)
(0.802798 0.000409671 -0)
(0.801717 0.000409526 -0)
(0.800636 0.00040938 -0)
(0.799556 0.000409234 -0)
(0.798476 0.000409087 -0)
(0.797396 0.000408939 -0)
(0.796317 0.00040879 -0)
(0.795239 0.000408641 -0)
(0.794161 0.00040849 -0)
(0.793083 0.000408339 -0)
(0.792006 0.000408186 -0)
(0.790929 0.000408033 -0)
(0.789853 0.000407879 -0)
(0.788777 0.000407723 -0)
(0.787702 0.000407567 -0)
(0.786627 0.00040741 -0)
(0.785552 0.000407252 -0)
(0.784478 0.000407094 -0)
(0.783405 0.000406934 -0)
(0.782332 0.000406774 -0)
(0.781259 0.000406614 -0)
(0.780187 0.000406452 -0)
(0.779116 0.000406291 -0)
(0.778045 0.000406129 -0)
(0.776974 0.000405966 -0)
(0.775904 0.000405803 -0)
(0.774835 0.000405639 -0)
(0.773765 0.000405475 -0)
(0.772697 0.000405309 -0)
(0.771629 0.000405143 -0)
(0.770561 0.000404977 -0)
(0.769494 0.000404809 -0)
(0.768428 0.00040464 -0)
(0.767362 0.00040447 -0)
(0.766296 0.0004043 -0)
(0.765231 0.000404128 -0)
(0.764167 0.000403955 -0)
(0.763103 0.000403781 -0)
(0.762039 0.000403606 -0)
(0.760976 0.000403429 -0)
(0.759914 0.000403252 -0)
(0.758852 0.000403074 -0)
(0.757791 0.000402895 -0)
(0.75673 0.000402716 -0)
(0.75567 0.000402536 -0)
(0.75461 0.000402355 -0)
(0.753551 0.000402173 -0)
(0.752492 0.000401992 -0)
(0.751434 0.000401809 -0)
(0.750377 0.000401627 -0)
(0.74932 0.000401443 -0)
(0.748263 0.00040126 -0)
(0.747207 0.000401075 -0)
(0.746152 0.00040089 -0)
(0.745097 0.000400704 -0)
(0.744043 0.000400518 -0)
(0.742989 0.00040033 -0)
(0.741936 0.000400142 -0)
(0.740884 0.000399953 -0)
(0.739832 0.000399762 -0)
(0.73878 0.00039957 -0)
(0.73773 0.000399377 -0)
(0.736679 0.000399182 -0)
(0.73563 0.000398987 -0)
(0.734581 0.000398789 -0)
(0.733532 0.000398591 -0)
(0.732484 0.000398392 -0)
(0.731437 0.000398192 -0)
(0.73039 0.000397991 -0)
(0.729344 0.00039779 -0)
(0.728299 0.000397588 -0)
(0.727254 0.000397386 -0)
(0.72621 0.000397183 -0)
(0.725166 0.00039698 -0)
(0.724123 0.000396776 -0)
(0.72308 0.000396572 -0)
(0.722038 0.000396367 -0)
(0.720997 0.000396162 -0)
(0.719956 0.000395955 -0)
(0.718916 0.000395747 -0)
(0.717877 0.000395538 -0)
(0.716838 0.000395328 -0)
(0.7158 0.000395116 -0)
(0.714762 0.000394903 -0)
(0.713725 0.000394689 -0)
(0.712689 0.000394473 -0)
(0.711653 0.000394256 -0)
(0.710618 0.000394038 -0)
(0.709584 0.000393818 -0)
(0.70855 0.000393598 -0)
(0.707517 0.000393377 -0)
(0.706484 0.000393155 -0)
(0.705453 0.000392933 -0)
(0.704421 0.00039271 -0)
(0.703391 0.000392488 -0)
(0.702361 0.000392265 -0)
(0.701332 0.000392042 -0)
(0.700303 0.000391818 -0)
(0.699275 0.000391594 -0)
(0.698248 0.00039137 -0)
(0.697221 0.000391146 -0)
(0.696195 0.00039092 -0)
(0.69517 0.000390694 -0)
(0.694145 0.000390467 -0)
(0.693121 0.000390239 -0)
(0.692098 0.000390011 -0)
(0.691075 0.000389781 -0)
(0.690053 0.00038955 -0)
(0.689032 0.000389318 -0)
(0.688011 0.000389085 -0)
(0.686991 0.000388851 -0)
(0.685972 0.000388617 -0)
(0.684953 0.000388381 -0)
(0.683935 0.000388145 -0)
(0.682918 0.000387909 -0)
(0.681902 0.000387672 -0)
(0.680886 0.000387435 -0)
(0.679871 0.000387198 -0)
(0.678856 0.000386961 -0)
(0.677843 0.000386724 -0)
(0.67683 0.000386487 -0)
(0.675817 0.00038625 -0)
(0.674806 0.000386012 -0)
(0.673795 0.000385775 -0)
(0.672785 0.000385536 -0)
(0.671775 0.000385298 -0)
(0.670766 0.000385058 -0)
(0.669758 0.000384818 -0)
(0.668751 0.000384577 -0)
(0.667744 0.000384334 -0)
(0.666738 0.000384091 -0)
(0.665733 0.000383847 -0)
(0.664729 0.000383601 -0)
(0.663725 0.000383355 -0)
(0.662722 0.000383108 -0)
(0.66172 0.00038286 -0)
(0.660718 0.000382612 -0)
(0.659717 0.000382363 -0)
(0.658717 0.000382114 -0)
(0.657718 0.000381864 -0)
(0.656719 0.000381615 -0)
(0.655721 0.000381366 -0)
(0.654724 0.000381117 -0)
(0.653728 0.000380868 -0)
(0.652732 0.000380619 -0)
(0.651737 0.00038037 -0)
(0.650743 0.000380122 -0)
(0.64975 0.000379873 -0)
(0.648757 0.000379624 -0)
(0.647765 0.000379375 -0)
(0.646774 0.000379125 -0)
(0.645784 0.000378874 -0)
(0.644794 0.000378623 -0)
(0.643806 0.000378371 -0)
(0.642818 0.000378118 -0)
(0.64183 0.000377865 -0)
(0.640844 0.000377611 -0)
(0.639858 0.000377356 -0)
(0.638873 0.000377101 -0)
(0.637889 0.000376846 -0)
(0.636906 0.000376591 -0)
(0.635923 0.000376336 -0)
(0.634941 0.000376081 -0)
(0.63396 0.000375827 -0)
(0.63298 0.000375573 -0)
(0.632 0.00037532 -0)
(0.631022 0.000375068 -0)
(0.630044 0.000374816 -0)
(0.629067 0.000374565 -0)
(0.62809 0.000374315 -0)
(0.627115 0.000374065 -0)
(0.62614 0.000373815 -0)
(0.625166 0.000373566 -0)
(0.624193 0.000373317 -0)
(0.623221 0.000373067 -0)
(0.622249 0.000372817 -0)
(0.621278 0.000372567 -0)
(0.620308 0.000372316 -0)
(0.619339 0.000372064 -0)
(0.618371 0.000371812 -0)
(0.617404 0.00037156 -0)
(0.616437 0.000371308 -0)
(0.615471 0.000371056 -0)
(0.614506 0.000370804 -0)
(0.613542 0.000370552 -0)
(0.612578 0.0003703 -0)
(0.611616 0.000370048 -0)
(0.610654 0.000369796 -0)
(0.609693 0.000369545 -0)
(0.608733 0.000369294 -0)
(0.607774 0.000369043 -0)
(0.606816 0.000368793 -0)
(0.605858 0.000368544 -0)
(0.604901 0.000368295 -0)
(0.603945 0.000368047 -0)
(0.60299 0.0003678 -0)
(0.602036 0.000367553 -0)
(0.601083 0.000367306 -0)
(0.60013 0.00036706 -0)
(0.599178 0.000366814 -0)
(0.598227 0.000366567 -0)
(0.597277 0.000366321 -0)
(0.596328 0.000366074 -0)
(0.59538 0.000365828 -0)
(0.594432 0.000365581 -0)
(0.593486 0.000365335 -0)
(0.59254 0.000365088 -0)
(0.591595 0.000364841 -0)
(0.590651 0.000364595 -0)
(0.589708 0.000364348 -0)
(0.588766 0.000364101 -0)
(0.587824 0.000363853 -0)
(0.586884 0.000363606 -0)
(0.585944 0.000363359 -0)
(0.585005 0.000363113 -0)
(0.584067 0.000362866 -0)
(0.58313 0.000362621 -0)
(0.582194 0.000362376 -0)
(0.581258 0.000362132 -0)
(0.580324 0.000361888 -0)
(0.57939 0.000361645 -0)
(0.578457 0.000361403 -0)
(0.577526 0.000361161 -0)
(0.576595 0.000360919 -0)
(0.575665 0.000360678 -0)
(0.574735 0.000360437 -0)
(0.573807 0.000360196 -0)
(0.57288 0.000359955 -0)
(0.571953 0.000359714 -0)
(0.571027 0.000359474 -0)
(0.570103 0.000359234 -0)
(0.569179 0.000358994 -0)
(0.568256 0.000358755 -0)
(0.567334 0.000358515 -0)
(0.566412 0.000358276 -0)
(0.565492 0.000358038 -0)
(0.564573 0.000357799 -0)
(0.563654 0.000357562 -0)
(0.562737 0.000357325 -0)
(0.56182 0.000357089 -0)
(0.560904 0.000356854 -0)
(0.559989 0.000356621 -0)
(0.559075 0.000356389 -0)
(0.558162 0.000356158 -0)
(0.55725 0.000355929 -0)
(0.556339 0.0003557 -0)
(0.555428 0.000355473 -0)
(0.554519 0.000355246 -0)
(0.55361 0.00035502 -0)
(0.552703 0.000354795 -0)
(0.551796 0.000354571 -0)
(0.55089 0.000354347 -0)
(0.549985 0.000354124 -0)
(0.549082 0.000353902 -0)
(0.548179 0.000353681 -0)
(0.547276 0.000353461 -0)
(0.546375 0.000353242 -0)
(0.545475 0.000353024 -0)
(0.544576 0.000352807 -0)
(0.543677 0.000352592 -0)
(0.54278 0.000352377 -0)
(0.541883 0.000352164 -0)
(0.540988 0.000351953 -0)
(0.540093 0.000351744 -0)
(0.539199 0.000351538 -0)
(0.538307 0.000351333 -0)
(0.537415 0.000351132 -0)
(0.536524 0.000350933 -0)
(0.535634 0.000350737 -0)
(0.534745 0.000350544 -0)
(0.533857 0.000350354 -0)
(0.53297 0.000350167 -0)
(0.532083 0.000349982 -0)
(0.531198 0.0003498 -0)
(0.530314 0.000349621 -0)
(0.52943 0.000349445 -0)
(0.528548 0.000349272 -0)
(0.527666 0.000349102 -0)
(0.526786 0.000348935 -0)
(0.525906 0.000348772 -0)
(0.525028 0.000348613 -0)
(0.52415 0.000348457 -0)
(0.523273 0.000348306 -0)
(0.522397 0.000348159 -0)
(0.521522 0.000348016 -0)
(0.520649 0.000347877 -0)
(0.519776 0.000347743 -0)
(0.518904 0.000347613 -0)
(0.518033 0.000347487 -0)
(0.517163 0.000347365 -0)
(0.516294 0.000347248 -0)
(0.515425 0.000347135 -0)
(0.514558 0.000347026 -0)
(0.513692 0.000346921 -0)
(0.512827 0.000346819 -0)
(0.511962 0.000346722 -0)
(0.511099 0.000346628 -0)
(0.510237 0.000346538 -0)
(0.509375 0.000346451 -0)
(0.508515 0.000346367 -0)
(0.507655 0.000346287 -0)
(0.506797 0.000346209 -0)
(0.505939 0.000346133 -0)
(0.505083 0.000346057 -0)
(0.504227 0.000345979 -0)
(0.503373 0.000345897 -0)
(0.502519 0.00034581 -0)
(0.501667 0.000345718 -0)
(0.500815 0.00034562 -0)
(0.499964 0.000345515 -0)
(0.499114 0.000345402 -0)
(0.498266 0.000345281 -0)
(0.497418 0.000345153 -0)
(0.496571 0.000345016 -0)
(0.495725 0.000344871 -0)
(0.49488 0.000344718 -0)
(0.494037 0.000344557 -0)
(0.493194 0.000344388 -0)
(0.492352 0.000344211 -0)
(0.491511 0.000344026 -0)
(0.490671 0.000343833 -0)
(0.489832 0.000343633 -0)
(0.488994 0.000343425 -0)
(0.488157 0.000343209 -0)
(0.487321 0.000342986 -0)
(0.486486 0.000342756 -0)
(0.485652 0.000342519 -0)
(0.484819 0.000342275 -0)
(0.483987 0.000342025 -0)
(0.483156 0.000341768 -0)
(0.482326 0.000341506 -0)
(0.481497 0.000341237 -0)
(0.480669 0.000340964 -0)
(0.479842 0.000340686 -0)
(0.479016 0.000340403 -0)
(0.47819 0.000340116 -0)
(0.477366 0.000339825 -0)
(0.476543 0.00033953 -0)
(0.475721 0.000339233 -0)
(0.4749 0.000338934 -0)
(0.47408 0.000338632 -0)
(0.47326 0.000338328 -0)
(0.472442 0.000338022 -0)
(0.471625 0.000337715 -0)
(0.470809 0.000337407 -0)
(0.469994 0.000337098 -0)
(0.469179 0.000336789 -0)
(0.468366 0.000336481 -0)
(0.467554 0.000336172 -0)
(0.466743 0.000335865 -0)
(0.465933 0.000335557 -0)
(0.465123 0.00033525 -0)
(0.464315 0.000334943 -0)
(0.463508 0.000334636 -0)
(0.462702 0.000334329 -0)
(0.461896 0.000334022 -0)
(0.461092 0.000333715 -0)
(0.460289 0.000333409 -0)
(0.459487 0.000333103 -0)
(0.458685 0.000332797 -0)
(0.457885 0.000332491 -0)
(0.457086 0.000332185 -0)
(0.456288 0.000331878 -0)
(0.45549 0.000331572 -0)
(0.454694 0.000331264 -0)
(0.453899 0.000330956 -0)
(0.453105 0.000330646 -0)
(0.452311 0.000330335 -0)
(0.451519 0.000330023 -0)
(0.450728 0.000329709 -0)
(0.449937 0.000329393 -0)
(0.449148 0.000329076 -0)
(0.44836 0.000328758 -0)
(0.447573 0.000328438 -0)
(0.446786 0.000328116 -0)
(0.446001 0.000327793 -0)
(0.445217 0.000327469 -0)
(0.444434 0.000327143 -0)
(0.443651 0.000326816 -0)
(0.44287 0.000326487 -0)
(0.44209 0.000326158 -0)
(0.441311 0.000325827 -0)
(0.440532 0.000325496 -0)
(0.439755 0.000325163 -0)
(0.438979 0.00032483 -0)
(0.438204 0.000324496 -0)
(0.43743 0.000324161 -0)
(0.436656 0.000323825 -0)
(0.435884 0.000323489 -0)
(0.435113 0.000323151 -0)
(0.434343 0.000322813 -0)
(0.433573 0.000322475 -0)
(0.432805 0.000322135 -0)
(0.432038 0.000321795 -0)
(0.431272 0.000321454 -0)
(0.430506 0.000321112 -0)
(0.429742 0.000320769 -0)
(0.428979 0.000320425 -0)
(0.428217 0.000320081 -0)
(0.427455 0.000319735 -0)
(0.426695 0.000319388 -0)
(0.425936 0.00031904 -0)
(0.425178 0.000318691 -0)
(0.42442 0.000318341 -0)
(0.423664 0.000317989 -0)
(0.422909 0.000317637 -0)
(0.422155 0.000317283 -0)
(0.421401 0.000316929 -0)
(0.420649 0.000316573 -0)
(0.419898 0.000316216 -0)
(0.419148 0.000315858 -0)
(0.418398 0.000315499 -0)
(0.41765 0.000315139 -0)
(0.416903 0.000314778 -0)
(0.416157 0.000314417 -0)
(0.415411 0.000314054 -0)
(0.414667 0.00031369 -0)
(0.413924 0.000313325 -0)
(0.413181 0.000312959 -0)
(0.41244 0.000312591 -0)
(0.4117 0.000312223 -0)
(0.41096 0.000311854 -0)
(0.410222 0.000311484 -0)
(0.409485 0.000311112 -0)
(0.408748 0.00031074 -0)
(0.408013 0.000310366 -0)
(0.407279 0.000309992 -0)
(0.406545 0.000309617 -0)
(0.405813 0.000309241 -0)
(0.405081 0.000308864 -0)
(0.404351 0.000308486 -0)
(0.403621 0.000308107 -0)
(0.402893 0.000307727 -0)
(0.402166 0.000307347 -0)
(0.401439 0.000306966 -0)
(0.400714 0.000306584 -0)
(0.399989 0.000306201 -0)
(0.399266 0.000305817 -0)
(0.398543 0.000305433 -0)
(0.397821 0.000305048 -0)
(0.397101 0.000304663 -0)
(0.396381 0.000304276 -0)
(0.395663 0.00030389 -0)
(0.394945 0.000303502 -0)
(0.394228 0.000303114 -0)
(0.393513 0.000302725 -0)
(0.392798 0.000302336 -0)
(0.392084 0.000301947 -0)
(0.391371 0.000301557 -0)
(0.39066 0.000301168 -0)
(0.389949 0.000300778 -0)
(0.389239 0.000300388 -0)
(0.38853 0.000299998 -0)
(0.387822 0.000299608 -0)
(0.387115 0.000299218 -0)
(0.386409 0.000298829 -0)
(0.385704 0.000298439 -0)
(0.385 0.00029805 -0)
(0.384297 0.000297661 -0)
(0.383595 0.000297272 -0)
(0.382894 0.000296883 -0)
(0.382194 0.000296495 -0)
(0.381495 0.000296106 -0)
(0.380797 0.000295717 -0)
(0.380099 0.000295328 -0)
(0.379403 0.000294938 -0)
(0.378708 0.000294548 -0)
(0.378013 0.000294158 -0)
(0.37732 0.000293767 -0)
(0.376628 0.000293375 -0)
(0.375936 0.000292983 -0)
(0.375245 0.000292591 -0)
(0.374556 0.000292198 -0)
(0.373867 0.000291805 -0)
(0.37318 0.000291412 -0)
(0.372493 0.000291018 -0)
(0.371807 0.000290623 -0)
(0.371122 0.000290228 -0)
(0.370438 0.000289833 -0)
(0.369755 0.000289437 -0)
(0.369073 0.00028904 -0)
(0.368392 0.000288643 -0)
(0.367712 0.000288245 -0)
(0.367033 0.000287847 -0)
(0.366355 0.000287448 -0)
(0.365678 0.000287047 -0)
(0.365001 0.000286646 -0)
(0.364326 0.000286245 -0)
(0.363651 0.000285842 -0)
(0.362978 0.000285439 -0)
(0.362305 0.000285035 -0)
(0.361634 0.00028463 -0)
(0.360963 0.000284224 -0)
(0.360293 0.000283817 -0)
(0.359624 0.00028341 -0)
(0.358956 0.000283003 -0)
(0.358289 0.000282594 -0)
(0.357623 0.000282185 -0)
(0.356958 0.000281776 -0)
(0.356294 0.000281366 -0)
(0.35563 0.000280955 -0)
(0.354968 0.000280544 -0)
(0.354307 0.000280132 -0)
(0.353646 0.00027972 -0)
(0.352986 0.000279307 -0)
(0.352328 0.000278894 -0)
(0.35167 0.000278481 -0)
(0.351013 0.000278067 -0)
(0.350357 0.000277653 -0)
(0.349702 0.000277239 -0)
(0.349048 0.000276825 -0)
(0.348394 0.00027641 -0)
(0.347742 0.000275995 -0)
(0.347091 0.000275579 -0)
(0.34644 0.000275163 -0)
(0.34579 0.000274747 -0)
(0.345142 0.000274331 -0)
(0.344494 0.000273914 -0)
(0.343847 0.000273497 -0)
(0.343201 0.00027308 -0)
(0.342555 0.000272662 -0)
(0.341911 0.000272245 -0)
(0.341268 0.000271828 -0)
(0.340625 0.000271411 -0)
(0.339984 0.000270994 -0)
(0.339343 0.000270577 -0)
(0.338703 0.000270159 -0)
(0.338064 0.000269742 -0)
(0.337426 0.000269325 -0)
(0.336789 0.000268908 -0)
(0.336152 0.000268491 -0)
(0.335517 0.000268074 -0)
(0.334882 0.000267657 -0)
(0.334249 0.00026724 -0)
(0.333616 0.000266823 -0)
(0.332984 0.000266407 -0)
(0.332353 0.000265991 -0)
(0.331722 0.000265575 -0)
(0.331093 0.000265159 -0)
(0.330464 0.000264744 -0)
(0.329837 0.00026433 -0)
(0.32921 0.000263916 -0)
(0.328584 0.000263503 -0)
(0.327959 0.000263091 -0)
(0.327335 0.000262679 -0)
(0.326711 0.000262268 -0)
(0.326089 0.000261858 -0)
(0.325467 0.000261448 -0)
(0.324846 0.00026104 -0)
(0.324226 0.000260632 -0)
(0.323607 0.000260224 -0)
(0.322988 0.000259817 -0)
(0.322371 0.000259411 -0)
(0.321754 0.000259006 -0)
(0.321138 0.000258601 -0)
(0.320523 0.000258196 -0)
(0.319909 0.000257792 -0)
(0.319296 0.000257389 -0)
(0.318683 0.000256987 -0)
(0.318072 0.000256585 -0)
(0.317461 0.000256184 -0)
(0.316851 0.000255784 -0)
(0.316241 0.000255385 -0)
(0.315633 0.000254987 -0)
(0.315025 0.000254589 -0)
(0.314419 0.000254193 -0)
(0.313813 0.000253797 -0)
(0.313207 0.000253403 -0)
(0.312603 0.000253009 -0)
(0.311999 0.000252617 -0)
(0.311397 0.000252225 -0)
(0.310795 0.000251834 -0)
(0.310194 0.000251444 -0)
(0.309593 0.000251054 -0)
(0.308994 0.000250666 -0)
(0.308395 0.000250278 -0)
(0.307797 0.000249891 -0)
(0.3072 0.000249504 -0)
(0.306603 0.000249119 -0)
(0.306007 0.000248734 -0)
(0.305413 0.000248349 -0)
(0.304818 0.000247966 -0)
(0.304225 0.000247583 -0)
(0.303633 0.000247202 -0)
(0.303041 0.000246821 -0)
(0.30245 0.000246441 -0)
(0.301859 0.000246062 -0)
(0.30127 0.000245683 -0)
(0.300681 0.000245306 -0)
(0.300093 0.00024493 -0)
(0.299506 0.000244554 -0)
(0.29892 0.00024418 -0)
(0.298334 0.000243806 -0)
(0.297749 0.000243433 -0)
(0.297165 0.000243062 -0)
(0.296581 0.000242691 -0)
(0.295999 0.000242321 -0)
(0.295417 0.000241952 -0)
(0.294835 0.000241584 -0)
(0.294255 0.000241217 -0)
(0.293675 0.00024085 -0)
(0.293096 0.000240485 -0)
(0.292518 0.000240121 -0)
(0.29194 0.000239757 -0)
(0.291363 0.000239394 -0)
(0.290787 0.000239033 -0)
(0.290212 0.000238672 -0)
(0.289637 0.000238312 -0)
(0.289063 0.000237953 -0)
(0.28849 0.000237595 -0)
(0.287917 0.000237238 -0)
(0.287346 0.000236881 -0)
(0.286774 0.000236526 -0)
(0.286204 0.000236172 -0)
(0.285634 0.000235819 -0)
(0.285065 0.000235467 -0)
(0.284497 0.000235116 -0)
(0.283929 0.000234767 -0)
(0.283362 0.000234419 -0)
(0.282796 0.000234072 -0)
(0.28223 0.000233726 -0)
(0.281666 0.000233381 -0)
(0.281101 0.000233037 -0)
(0.280538 0.000232695 -0)
(0.279975 0.000232353 -0)
(0.279413 0.000232012 -0)
(0.278851 0.000231672 -0)
(0.27829 0.000231333 -0)
(0.27773 0.000230995 -0)
(0.277171 0.000230658 -0)
(0.276612 0.000230322 -0)
(0.276053 0.000229987 -0)
(0.275496 0.000229653 -0)
(0.274939 0.000229319 -0)
(0.274383 0.000228987 -0)
(0.273827 0.000228655 -0)
(0.273272 0.000228325 -0)
(0.272718 0.000227996 -0)
(0.272164 0.000227668 -0)
(0.271611 0.000227342 -0)
(0.271058 0.000227016 -0)
(0.270507 0.000226692 -0)
(0.269955 0.000226369 -0)
(0.269405 0.000226047 -0)
(0.268855 0.000225727 -0)
(0.268306 0.000225407 -0)
(0.267757 0.000225089 -0)
(0.267209 0.000224772 -0)
(0.266661 0.000224456 -0)
(0.266115 0.000224141 -0)
(0.265568 0.000223827 -0)
(0.265023 0.000223514 -0)
(0.264477 0.000223202 -0)
(0.263933 0.000222891 -0)
(0.263389 0.000222581 -0)
(0.262846 0.000222272 -0)
(0.262303 0.000221964 -0)
(0.261761 0.000221658 -0)
(0.261219 0.000221352 -0)
(0.260679 0.000221048 -0)
(0.260138 0.000220746 -0)
(0.259598 0.000220444 -0)
(0.259059 0.000220144 -0)
(0.25852 0.000219846 -0)
(0.257982 0.000219549 -0)
(0.257445 0.000219253 -0)
(0.256908 0.000218959 -0)
(0.256371 0.000218667 -0)
(0.255835 0.000218375 -0)
(0.2553 0.000218086 -0)
(0.254765 0.000217797 -0)
(0.254231 0.00021751 -0)
(0.253697 0.000217225 -0)
(0.253164 0.00021694 -0)
(0.252632 0.000216657 -0)
(0.2521 0.000216375 -0)
(0.251568 0.000216094 -0)
(0.251037 0.000215815 -0)
(0.250506 0.000215536 -0)
(0.249976 0.000215259 -0)
(0.249447 0.000214982 -0)
(0.248918 0.000214708 -0)
(0.24839 0.000214434 -0)
(0.247862 0.000214162 -0)
(0.247334 0.000213891 -0)
(0.246807 0.000213621 -0)
(0.246281 0.000213354 -0)
(0.245755 0.000213087 -0)
(0.24523 0.000212823 -0)
(0.244705 0.00021256 -0)
(0.24418 0.000212299 -0)
(0.243656 0.00021204 -0)
(0.243133 0.000211783 -0)
(0.24261 0.000211528 -0)
(0.242087 0.000211274 -0)
(0.241565 0.000211023 -0)
(0.241043 0.000210773 -0)
(0.240522 0.000210524 -0)
(0.240002 0.000210278 -0)
(0.239481 0.000210033 -0)
(0.238962 0.00020979 -0)
(0.238442 0.000209548 -0)
(0.237924 0.000209308 -0)
(0.237405 0.00020907 -0)
(0.236887 0.000208834 -0)
(0.23637 0.000208598 -0)
(0.235853 0.000208365 -0)
(0.235336 0.000208133 -0)
(0.23482 0.000207903 -0)
(0.234304 0.000207675 -0)
(0.233789 0.000207448 -0)
(0.233274 0.000207223 -0)
(0.232759 0.000207 -0)
(0.232245 0.000206778 -0)
(0.231732 0.000206559 -0)
(0.231218 0.00020634 -0)
(0.230706 0.000206124 -0)
(0.230193 0.000205909 -0)
(0.229681 0.000205696 -0)
(0.229169 0.000205484 -0)
(0.228658 0.000205274 -0)
(0.228147 0.000205065 -0)
(0.227637 0.000204858 -0)
(0.227127 0.000204653 -0)
(0.226617 0.000204448 -0)
(0.226108 0.000204246 -0)
(0.225599 0.000204044 -0)
(0.22509 0.000203844 -0)
(0.224582 0.000203645 -0)
(0.224074 0.000203446 -0)
(0.223567 0.000203249 -0)
(0.22306 0.000203052 -0)
(0.222553 0.000202856 -0)
(0.222047 0.000202662 -0)
(0.221541 0.000202467 -0)
(0.221035 0.000202274 -0)
(0.22053 0.000202082 -0)
(0.220025 0.000201891 -0)
(0.21952 0.0002017 -0)
(0.219016 0.000201511 -0)
(0.218512 0.000201322 -0)
(0.218009 0.000201135 -0)
(0.217505 0.000200948 -0)
(0.217002 0.000200762 -0)
(0.2165 0.000200578 -0)
(0.215997 0.000200395 -0)
(0.215496 0.000200214 -0)
(0.214994 0.000200034 -0)
(0.214493 0.000199856 -0)
(0.213991 0.000199681 -0)
(0.213491 0.000199507 -0)
(0.21299 0.000199336 -0)
(0.21249 0.000199167 -0)
(0.21199 0.000198999 -0)
(0.211491 0.000198834 -0)
(0.210992 0.000198671 -0)
(0.210493 0.00019851 -0)
(0.209994 0.000198351 -0)
(0.209496 0.000198194 -0)
(0.208998 0.00019804 -0)
(0.2085 0.000197889 -0)
(0.208002 0.00019774 -0)
(0.207505 0.000197594 -0)
(0.207008 0.000197451 -0)
(0.206512 0.00019731 -0)
(0.206015 0.00019717 -0)
(0.205519 0.000197032 -0)
(0.205023 0.000196895 -0)
(0.204528 0.000196757 -0)
(0.204032 0.00019662 -0)
(0.203537 0.000196482 -0)
(0.203042 0.000196343 -0)
(0.202548 0.000196203 -0)
(0.202053 0.000196061 -0)
(0.201559 0.000195916 -0)
(0.201066 0.000195768 -0)
(0.200572 0.000195615 -0)
(0.200079 0.000195458 -0)
(0.199586 0.000195296 -0)
(0.199093 0.000195129 -0)
(0.1986 0.000194954 -0)
(0.198108 0.000194773 -0)
(0.197616 0.000194583 -0)
(0.197124 0.000194385 -0)
(0.196633 0.000194179 -0)
(0.196141 0.000193965 -0)
(0.19565 0.000193746 -0)
(0.19516 0.000193522 -0)
(0.194669 0.000193294 -0)
(0.194179 0.000193062 -0)
(0.193689 0.000192825 -0)
(0.193199 0.000192583 -0)
(0.192709 0.000192336 -0)
(0.19222 0.000192082 -0)
(0.191731 0.00019182 -0)
(0.191243 0.000191549 -0)
(0.190754 0.000191272 -0)
(0.190266 0.000190986 -0)
(0.189779 0.000190694 -0)
(0.189291 0.000190394 -0)
(0.188804 0.000190087 -0)
(0.188318 0.000189767 -0)
(0.187831 0.00018943 -0)
(0.187345 0.000189067 -0)
(0.18686 0.000188663 -0)
(0.186375 0.000188195 -0)
(0.185891 0.000187641 -0)
(0.185407 0.000187014 -0)
(0.184924 0.000186351 -0)
(0.184441 0.000185693 -0)
(0.18396 0.000185074 -0)
(0.183479 0.000184511 -0)
(0.182999 0.000184007 -0)
(0.182521 0.00018356 -0)
(0.182045 0.000183147 -0)
(0.18157 0.00018268 -0)
(0.181099 0.00018198 -0)
(0.180631 0.000180724 -0)
(0.180169 0.000178013 -0)
(0.179712 0.000171936 -0)
(0.179404 0.000160705 -0)
(0.178744 0.000113383 -0)
(0.810446 0.000265267 -0)
(1.14588 0.00018843 -0)
(0.899978 0.000276928 -0)
(1.04639 0.000267335 -0)
(0.979978 0.000286087 -0)
(0.994971 0.000290665 -0)
(0.99287 0.000294384 -0)
(0.991756 0.000296781 -0)
(0.990638 0.000298383 -0)
(0.98952 0.000299488 -0)
(0.988402 0.000300273 -0)
(0.987283 0.000300846 -0)
(0.986165 0.000301275 -0)
(0.985045 0.000301602 -0)
(0.983926 0.000301857 -0)
(0.982807 0.000302058 -0)
(0.981687 0.000302219 -0)
(0.980568 0.000302349 -0)
(0.979448 0.000302456 -0)
(0.978329 0.000302544 -0)
(0.977209 0.000302616 -0)
(0.97609 0.000302676 -0)
(0.97497 0.000302726 -0)
(0.973851 0.000302766 -0)
(0.972731 0.000302799 -0)
(0.971612 0.000302824 -0)
(0.970492 0.000302843 -0)
(0.969373 0.000302856 -0)
(0.968254 0.000302864 -0)
(0.967134 0.000302868 -0)
(0.966015 0.000302867 -0)
(0.964896 0.000302862 -0)
(0.963777 0.000302854 -0)
(0.962658 0.000302843 -0)
(0.961539 0.000302829 -0)
(0.96042 0.000302813 -0)
(0.959301 0.000302794 -0)
(0.958183 0.000302773 -0)
(0.957064 0.000302749 -0)
(0.955945 0.000302724 -0)
(0.954827 0.000302697 -0)
(0.953709 0.000302668 -0)
(0.95259 0.000302637 -0)
(0.951472 0.000302605 -0)
(0.950354 0.00030257 -0)
(0.949236 0.000302534 -0)
(0.948119 0.000302495 -0)
(0.947001 0.000302455 -0)
(0.945883 0.000302413 -0)
(0.944766 0.000302368 -0)
(0.943648 0.000302323 -0)
(0.942531 0.000302275 -0)
(0.941414 0.000302226 -0)
(0.940297 0.000302175 -0)
(0.93918 0.000302123 -0)
(0.938064 0.00030207 -0)
(0.936947 0.000302016 -0)
(0.93583 0.00030196 -0)
(0.934714 0.000301904 -0)
(0.933598 0.000301846 -0)
(0.932482 0.000301788 -0)
(0.931366 0.000301728 -0)
(0.93025 0.000301667 -0)
(0.929135 0.000301606 -0)
(0.92802 0.000301542 -0)
(0.926904 0.000301478 -0)
(0.925789 0.000301412 -0)
(0.924674 0.000301345 -0)
(0.92356 0.000301276 -0)
(0.922445 0.000301206 -0)
(0.921331 0.000301134 -0)
(0.920216 0.000301061 -0)
(0.919102 0.000300986 -0)
(0.917988 0.000300911 -0)
(0.916875 0.000300834 -0)
(0.915761 0.000300756 -0)
(0.914648 0.000300678 -0)
(0.913535 0.000300599 -0)
(0.912422 0.000300519 -0)
(0.911309 0.000300438 -0)
(0.910197 0.000300357 -0)
(0.909084 0.000300275 -0)
(0.907972 0.000300191 -0)
(0.90686 0.000300107 -0)
(0.905748 0.000300022 -0)
(0.904637 0.000299936 -0)
(0.903526 0.000299848 -0)
(0.902414 0.000299759 -0)
(0.901304 0.000299669 -0)
(0.900193 0.000299577 -0)
(0.899082 0.000299484 -0)
(0.897972 0.000299389 -0)
(0.896862 0.000299293 -0)
(0.895752 0.000299195 -0)
(0.894643 0.000299097 -0)
(0.893534 0.000298998 -0)
(0.892425 0.000298897 -0)
(0.891316 0.000298796 -0)
(0.890207 0.000298694 -0)
(0.889099 0.000298591 -0)
(0.887991 0.000298488 -0)
(0.886883 0.000298384 -0)
(0.885775 0.000298279 -0)
(0.884668 0.000298174 -0)
(0.883561 0.000298067 -0)
(0.882454 0.00029796 -0)
(0.881348 0.000297851 -0)
(0.880241 0.000297742 -0)
(0.879135 0.000297631 -0)
(0.878029 0.000297518 -0)
(0.876924 0.000297405 -0)
(0.875819 0.00029729 -0)
(0.874714 0.000297174 -0)
(0.873609 0.000297056 -0)
(0.872505 0.000296938 -0)
(0.871401 0.000296819 -0)
(0.870297 0.000296699 -0)
(0.869193 0.000296578 -0)
(0.86809 0.000296456 -0)
(0.866987 0.000296334 -0)
(0.865885 0.000296211 -0)
(0.864782 0.000296088 -0)
(0.86368 0.000295964 -0)
(0.862578 0.00029584 -0)
(0.861477 0.000295714 -0)
(0.860376 0.000295588 -0)
(0.859275 0.000295461 -0)
(0.858174 0.000295333 -0)