/*--------------------------------*- C++ -*----------------------------------*\
| =========                 |                                                 |
| \\      /  F ield         | OpenFOAM: The Open Source CFD Toolbox           |
|  \\    /   O peration     | Version:  2512                                  |
|   \\  /    A nd           | Website:  www.openfoam.com                      |
|    \\/     M anipulation  |                                                 |
\*---------------------------------------------------------------------------*/
FoamFile
{
    version     2.0;
    format      ascii;
    arch        "LSB;label=32;scalar=64";
    class       volScalarField;
    location    "2e-05";
    object      Ux;
}
// * * * * * * * * * * * * * * * * * * * * * * * * * * * * * * * * * * * * * //

dimensions      [0 1 -1 0 0 0 0];

internalField   nonuniform List<scalar> 
100000
(
0.81086
1.14637
0.900255
1.04675
0.980304
0.995305
0.993203
0.992088
0.990971
0.989852
0.988734
0.987615
0.986496
0.985376
0.984257
0.983137
0.982017
0.980897
0.979778
0.978658
0.977538
0.976418
0.975298
0.974178
0.973059
0.971939
0.970819
0.969699
0.96858
0.96746
0.966341
0.965221
0.964102
0.962983
0.961863
0.960744
0.959625
0.958506
0.957387
0.956268
0.955149
0.954031
0.952912
0.951794
0.950675
0.949557
0.948439
0.947321
0.946203
0.945085
0.943968
0.94285
0.941733
0.940615
0.939498
0.938381
0.937264
0.936148
0.935031
0.933915
0.932798
0.931682
0.930566
0.92945
0.928334
0.927219
0.926104
0.924988
0.923873
0.922758
0.921644
0.920529
0.919415
0.918301
0.917187
0.916073
0.914959
0.913846
0.912732
0.911619
0.910506
0.909394
0.908281
0.907169
0.906057
0.904945
0.903834
0.902722
0.901611
0.9005
0.899389
0.898279
0.897168
0.896058
0.894949
0.893839
0.89273
0.89162
0.890511
0.889403
0.888294
0.887186
0.886078
0.884971
0.883863
0.882756
0.881649
0.880543
0.879436
0.87833
0.877225
0.876119
0.875014
0.873909
0.872804
0.8717
0.870596
0.869492
0.868388
0.867285
0.866182
0.865079
0.863977
0.862875
0.861773
0.860672
0.85957
0.85847
0.857369
0.856269
0.855169
0.85407
0.85297
0.851871
0.850773
0.849675
0.848577
0.847479
0.846382
0.845285
0.844188
0.843092
0.841996
0.840901
0.839806
0.838711
0.837617
0.836522
0.835429
0.834335
0.833242
0.83215
0.831058
0.829966
0.828874
0.827783
0.826693
0.825602
0.824512
0.823423
0.822334
0.821245
0.820156
0.819068
0.817981
0.816894
0.815807
0.814721
0.813635
0.812549
0.811464
0.810379
0.809295
0.808211
0.807128
0.806045
0.804962
0.80388
0.802798
0.801717
0.800636
0.799556
0.798476
0.797396
0.796317
0.795239
0.794161
0.793083
0.792006
0.790929
0.789853
0.788777
0.787702
0.786627
0.785552
0.784478
0.783405
0.782332
0.781259
0.780187
0.779116
0.778045
0.776974
0.775904
0.774835
0.773765
0.772697
0.771629
0.770561
0.769494
0.768428
0.767362
0.766296
0.765231
0.764167
0.763103
0.762039
0.760976
0.759914
0.758852
0.757791
0.75673
0.75567
0.75461
0.753551
0.752492
0.751434
0.750377
0.74932
0.748263
0.747207
0.746152
0.745097
0.744043
0.742989
0.741936
0.740884
0.739832
0.73878
0.73773
0.736679
0.73563
0.734581
0.733532
0.732484
0.731437
0.73039
0.729344
0.728299
0.727254
0.72621
0.725166
0.724123
0.72308
0.722038
0.720997
0.719956
0.718916
0.717877
0.716838
0.7158
0.714762
0.713725
0.712689
0.711653
0.710618
0.709584
0.70855
0.707517
0.706484
0.705453
0.704421
0.703391
0.702361
0.701332
0.700303
0.699275
0.698248
0.697221
0.696195
0.69517
0.694145
0.693121
0.692098
0.691075
0.690053
0.689032
0.688011
0.686991
0.685972
0.684953
0.683935
0.682918
0.681902
0.680886
0.679871
0.678856
0.677843
0.67683
0.675817
0.674806
0.673795
0.672785
0.671775
0.670766
0.669758
0.668751
0.667744
0.666738
0.665733
0.664729
0.663725
0.662722
0.66172
0.660718
0.659717
0.658717
0.657718
0.656719
0.655721
0.654724
0.653728
0.652732
0.651737
0.650743
0.64975
0.648757
0.647765
0.646774
0.645784
0.644794
0.643806
0.642818
0.64183
0.640844
0.639858
0.638873
0.637889
0.636906
0.635923
0.634941
0.63396
0.63298
0.632
0.631022
0.630044
0.629067
0.62809
0.627115
0.62614
0.625166
0.624193
0.623221
0.622249
0.621278
0.620308
0.619339
0.618371
0.617404
0.616437
0.615471
0.614506
0.613542
0.612578
0.611616
0.610654
0.609693
0.608733
0.607774
0.606816
0.605858
0.604901
0.603945
0.60299
0.602036
0.601083
0.60013
0.599178
0.598227
0.597277
0.596328
0.59538
0.594432
0.593486
0.59254
0.591595
0.590651
0.589708
0.588766
0.587824
0.586884
0.585944
0.585005
0.584067
0.58313
0.582194
0.581258
0.580324
0.57939
0.578457
0.577526
0.576595
0.575665
0.574735
0.573807
0.57288
0.571953
0.571027
0.570103
0.569179
0.568256
0.567334
0.566412
0.565492
0.564573
0.563654
0.562737
0.56182
0.560904
0.559989
0.559075
0.558162
0.55725
0.556339
0.555428
0.554519
0.55361
0.552703
0.551796
0.55089
0.549985
0.549082
0.548179
0.547276
0.546375
0.545475
0.544576
0.543677
0.54278
0.541883
0.540988
0.540093
0.539199
0.538307
0.537415
0.536524
0.535634
0.534745
0.533857
0.53297
0.532083
0.531198
0.530314
0.52943
0.528548
0.527666
0.526786
0.525906
0.525028
0.52415
0.523273
0.522397
0.521522
0.520649
0.519776
0.518904
0.518033
0.517163
0.516294
0.515425
0.514558
0.513692
0.512827
0.511962
0.511099
0.510237
0.509375
0.508515
0.507655
0.506797
0.505939
0.505083
0.504227
0.503373
0.502519
0.501667
0.500815
0.499964
0.499114
0.498266
0.497418
0.496571
0.495725
0.49488
0.494037
0.493194
0.492352
0.491511
0.490671
0.489832
0.488994
0.488157
0.487321
0.486486
0.485652
0.484819
0.483987
0.483156
0.482326
0.481497
0.480669
0.479842
0.479016
0.47819
0.477366
0.476543
0.475721
0.4749
0.47408
0.47326
0.472442
0.471625
0.470809
0.469994
0.469179
0.468366
0.467554
0.466743
0.465933
0.465123
0.464315
0.463508
0.462702
0.461896
0.461092
0.460289
0.459487
0.458685
0.457885
0.457086
0.456288
0.45549
0.454694
0.453899
0.453105
0.452311
0.451519
0.450728
0.449937
0.449148
0.44836
0.447573
0.446786
0.446001
0.445217
0.444434
0.443651
0.44287
0.44209
0.441311
0.440532
0.439755
0.438979
0.438204
0.43743
0.436656
0.435884
0.435113
0.434343
0.433573
0.432805
0.432038
0.431272
0.430506
0.429742
0.428979
0.428217
0.427455
0.426695
0.425936
0.425178
0.42442
0.423664
0.422909
0.422155
0.421401
0.420649
0.419898
0.419148
0.418398
0.41765
0.416903
0.416157
0.415411
0.414667
0.413924
0.413181
0.41244
0.4117
0.41096
0.410222
0.409485
0.408748
0.408013
0.407279
0.406545
0.405813
0.405081
0.404351
0.403621
0.402893
0.402166
0.401439
0.400714
0.399989
0.399266
0.398543
0.397821
0.397101
0.396381
0.395663
0.394945
0.394228
0.393513
0.392798
0.392084
0.391371
0.39066
0.389949
0.389239
0.38853
0.387822
0.387115
0.386409
0.385704
0.385
0.384297
0.383595
0.382894
0.382194
0.381495
0.380797
0.380099
0.379403
0.378708
0.378013
0.37732
0.376628
0.375936
0.375245
0.374556
0.373867
0.37318
0.372493
0.371807
0.371122
0.370438
0.369755
0.369073
0.368392
0.367712
0.367033
0.366355
0.365678
0.365001
0.364326
0.363651
0.362978
0.362305
0.361634
0.360963
0.360293
0.359624
0.358956
0.358289
0.357623
0.356958
0.356294
0.35563
0.354968
0.354307
0.353646
0.352986
0.352328
0.35167
0.351013
0.350357
0.349702
0.349048
0.348394
0.347742
0.347091
0.34644
0.34579
0.345142
0.344494
0.343847
0.343201
0.342555
0.341911
0.341268
0.340625
0.339984
0.339343
0.338703
0.338064
0.337426
0.336789
0.336152
0.335517
0.334882
0.334249
0.333616
0.332984
0.332353
0.331722
0.331093
0.330464
0.329837
0.32921
0.328584
0.327959
0.327335
0.326711
0.326089
0.325467
0.324846
0.324226
0.323607
0.322988
0.322371
0.321754
0.321138
0.320523
0.319909
0.319296
0.318683
0.318072
0.317461
0.316851
0.316241
0.315633
0.315025
0.314419
0.313813
0.313207
0.312603
0.311999
0.311397
0.310795
0.310194
0.309593
0.308994
0.308395
0.307797
0.3072
0.306603
0.306007
0.305413
0.304818
0.304225
0.303633
0.303041
0.30245
0.301859
0.30127
0.300681
0.300093
0.299506
0.29892
0.298334
0.297749
0.297165
0.296581
0.295999
0.295417
0.294835
0.294255
0.293675
0.293096
0.292518
0.29194
0.291363
0.290787
0.290212
0.289637
0.289063
0.28849
0.287917
0.287346
0.286774
0.286204
0.285634
0.285065
0.284497
0.283929
0.283362
0.282796
0.28223
0.281666
0.281101
0.280538
0.279975
0.279413
0.278851
0.27829
0.27773
0.277171
0.276612
0.276053
0.275496
0.274939
0.274383
0.273827
0.273272
0.272718
0.272164
0.271611
0.271058
0.270507
0.269955
0.269405
0.268855
0.268306
0.267757
0.267209
0.266661
0.266115
0.265568
0.265023
0.264477
0.263933
0.263389
0.262846
0.262303
0.261761
0.261219
0.260679
0.260138
0.259598
0.259059
0.25852
0.257982
0.257445
0.256908
0.256371
0.255835
0.2553
0.254765
0.254231
0.253697
0.253164
0.252632
0.2521
0.251568
0.251037
0.250506
0.249976
0.249447
0.248918
0.24839
0.247862
0.247334
0.246807
0.246281
0.245755
0.24523
0.244705
0.24418
0.243656
0.243133
0.24261
0.242087
0.241565
0.241043
0.240522
0.240002
0.239481
0.238962
0.238442
0.237924
0.237405
0.236887
0.23637
0.235853
0.235336
0.23482
0.234304
0.233789
0.233274
0.232759
0.232245
0.231732
0.231218
0.230706
0.230193
0.229681
0.229169
0.228658
0.228147
0.227637
0.227127
0.226617
0.226108
0.225599
0.22509
0.224582
0.224074
0.223567
0.22306
0.222553
0.222047
0.221541
0.221035
0.22053
0.220025
0.21952
0.219016
0.218512
0.218009
0.217505
0.217002
0.2165
0.215997
0.215496
0.214994
0.214493
0.213991
0.213491
0.21299
0.21249
0.21199
0.211491
0.210992
0.210493
0.209994
0.209496
0.208998
0.2085
0.208002
0.207505
0.207008
0.206512
0.206015
0.205519
0.205023
0.204528
0.204032
0.203537
0.203042
0.202548
0.202053
0.201559
0.201066
0.200572
0.200079
0.199586
0.199093
0.1986
0.198108
0.197616
0.197124
0.196633
0.196141
0.19565
0.19516
0.194669
0.194179
0.193689
0.193199
0.192709
0.19222
0.191731
0.191243
0.190754
0.190266
0.189779
0.189291
0.188804
0.188318
0.187831
0.187345
0.18686
0.186375
0.185891
0.185407
0.184924
0.184441
0.18396
0.183479
0.182999
0.182521
0.182045
0.18157
0.181099
0.180631
0.180169
0.179712
0.179404
0.178744
0.810446
1.14588
0.899978
1.04639
0.979978
0.994971
0.99287
0.991756
0.990638
0.98952
0.988402
0.987283
0.986165
0.985045
0.983926
0.982807
0.981687
0.980568
0.979448
0.978329
0.977209
0.97609
0.97497
0.973851
0.972731
0.971612
0.970492
0.969373
0.968254
0.967134
0.966015
0.964896
0.963777
0.962658
0.961539
0.96042
0.959301
0.958183
0.957064
0.955945
0.954827
0.953709
0.95259
0.951472
0.950354
0.949236
0.948119
0.947001
0.945883
0.944766
0.943648
0.942531
0.941414
0.940297
0.93918
0.938064
0.936947
0.93583
0.934714
0.933598
0.932482
0.931366
0.93025
0.929135
0.92802
0.926904
0.925789
0.924674
0.92356
0.922445
0.921331
0.920216
0.919102
0.917988
0.916875
0.915761
0.914648
0.913535
0.912422
0.911309
0.910197
0.909084
0.907972
0.90686
0.905748
0.904637
0.903526
0.902414
0.901304
0.900193
0.899082
0.897972
0.896862
0.895752
0.894643
0.893534
0.892425
0.891316
0.890207
0.889099
0.887991
0.886883
0.885775
0.884668
0.883561
0.882454
0.881348
0.880241
0.879135
0.878029
0.876924
0.875819
0.874714
0.873609
0.872505
0.871401
0.870297
0.869193
0.86809
0.866987
0.865885
0.864782
0.86368
0.862578
0.861477
0.860376
0.859275
0.858174
0.857074
0.855974
0.854875
0.853776
0.852677
0.851578
0.85048
0.849382
0.848284
0.847187
0.84609
0.844994
0.843897
0.842801
0.841706
0.840611
0.839516
0.838421
0.837327
0.836234
0.83514
0.834047
0.832954
0.831862
0.83077
0.829679
0.828588
0.827497
0.826406
0.825316
0.824227
0.823137
0.822049
0.82096
0.819872
0.818784
0.817697
0.81661
0.815524
0.814438
0.813352
0.812267
0.811182
0.810098
0.809014
0.80793
0.806847
0.805765
0.804682
0.8036
0.802519
0.801438
0.800358
0.799278
0.798198
0.797119
0.79604
0.794962
0.793884
0.792807
0.79173
0.790653
0.789577
0.788502
0.787427
0.786352
0.785278
0.784204
0.783131
0.782058
0.780986
0.779915
0.778843
0.777773
0.776702
0.775633
0.774563
0.773495
0.772426
0.771359
0.770291
0.769225
0.768158
0.767093
0.766027
0.764963
0.763898
0.762835
0.761772
0.760709
0.759647
0.758585
0.757524
0.756464
0.755404
0.754345
0.753286
0.752227
0.75117
0.750112
0.749056
0.748
0.746944
0.745889
0.744835
0.743781
0.742727
0.741675
0.740622
0.739571
0.73852
0.737469
0.736419
0.73537
0.734321
0.733273
0.732226
0.731179
0.730132
0.729086
0.728041
0.726997
0.725953
0.724909
0.723866
0.722824
0.721783
0.720742
0.719701
0.718662
0.717622
0.716584
0.715546
0.714509
0.713472
0.712436
0.711401
0.710366
0.709332
0.708298
0.707266
0.706233
0.705202
0.704171
0.703141
0.702111
0.701082
0.700054
0.699026
0.697999
0.696973
0.695947
0.694922
0.693898
0.692874
0.691851
0.690829
0.689807
0.688786
0.687766
0.686746
0.685727
0.684709
0.683691
0.682674
0.681658
0.680643
0.679628
0.678614
0.6776
0.676588
0.675576
0.674564
0.673554
0.672544
0.671535
0.670526
0.669518
0.668511
0.667505
0.666499
0.665494
0.66449
0.663487
0.662484
0.661482
0.660481
0.65948
0.658481
0.657482
0.656483
0.655486
0.654489
0.653493
0.652498
0.651503
0.650509
0.649516
0.648524
0.647532
0.646542
0.645552
0.644562
0.643574
0.642586
0.641599
0.640613
0.639627
0.638643
0.637659
0.636676
0.635694
0.634712
0.633731
0.632751
0.631772
0.630794
0.629816
0.628839
0.627863
0.626888
0.625914
0.62494
0.623967
0.622995
0.622024
0.621054
0.620084
0.619115
0.618147
0.61718
0.616214
0.615248
0.614283
0.61332
0.612356
0.611394
0.610433
0.609472
0.608512
0.607554
0.606595
0.605638
0.604682
0.603726
0.602771
0.601817
0.600864
0.599912
0.598961
0.59801
0.59706
0.596112
0.595163
0.594216
0.59327
0.592325
0.59138
0.590436
0.589493
0.588551
0.58761
0.58667
0.585731
0.584792
0.583854
0.582918
0.581982
0.581047
0.580112
0.579179
0.578247
0.577315
0.576384
0.575455
0.574526
0.573598
0.57267
0.571744
0.570819
0.569894
0.568971
0.568048
0.567126
0.566205
0.565285
0.564366
0.563448
0.562531
0.561614
0.560699
0.559784
0.558871
0.557958
0.557046
0.556135
0.555225
0.554316
0.553408
0.552501
0.551594
0.550689
0.549784
0.548881
0.547978
0.547076
0.546175
0.545275
0.544376
0.543478
0.542581
0.541685
0.54079
0.539895
0.539002
0.538109
0.537218
0.536327
0.535437
0.534549
0.533661
0.532774
0.531888
0.531003
0.530119
0.529236
0.528354
0.527473
0.526593
0.525713
0.524835
0.523958
0.523081
0.522206
0.521331
0.520458
0.519585
0.518713
0.517843
0.516973
0.516104
0.515236
0.514369
0.513503
0.512639
0.511775
0.510912
0.510049
0.509188
0.508328
0.507469
0.506611
0.505754
0.504898
0.504042
0.503188
0.502335
0.501482
0.500631
0.49978
0.498931
0.498083
0.497235
0.496389
0.495543
0.494699
0.493855
0.493012
0.492171
0.49133
0.490491
0.489652
0.488814
0.487978
0.487142
0.486307
0.485473
0.484641
0.483809
0.482978
0.482148
0.48132
0.480492
0.479665
0.478839
0.478014
0.47719
0.476368
0.475546
0.474725
0.473905
0.473086
0.472268
0.471451
0.470635
0.469821
0.469007
0.468194
0.467382
0.466571
0.465761
0.464952
0.464144
0.463337
0.462531
0.461726
0.460922
0.460119
0.459317
0.458516
0.457717
0.456918
0.45612
0.455323
0.454527
0.453732
0.452938
0.452145
0.451353
0.450562
0.449772
0.448983
0.448195
0.447408
0.446622
0.445837
0.445053
0.44427
0.443488
0.442707
0.441927
0.441149
0.440371
0.439594
0.438818
0.438043
0.437269
0.436496
0.435724
0.434953
0.434183
0.433414
0.432646
0.431879
0.431113
0.430348
0.429584
0.428821
0.42806
0.427299
0.426539
0.42578
0.425022
0.424265
0.423509
0.422754
0.422
0.421247
0.420495
0.419744
0.418994
0.418245
0.417497
0.41675
0.416004
0.415259
0.414515
0.413772
0.41303
0.412289
0.411549
0.41081
0.410072
0.409335
0.408599
0.407864
0.40713
0.406397
0.405665
0.404934
0.404203
0.403474
0.402746
0.402019
0.401293
0.400568
0.399843
0.39912
0.398398
0.397677
0.396956
0.396237
0.395519
0.394801
0.394085
0.39337
0.392655
0.391942
0.391229
0.390518
0.389807
0.389098
0.388389
0.387682
0.386975
0.386269
0.385565
0.384861
0.384158
0.383457
0.382756
0.382056
0.381357
0.380659
0.379962
0.379266
0.378571
0.377877
0.377184
0.376492
0.375801
0.37511
0.374421
0.373733
0.373045
0.372359
0.371673
0.370989
0.370305
0.369623
0.368941
0.36826
0.36758
0.366902
0.366224
0.365547
0.364871
0.364195
0.363521
0.362848
0.362176
0.361504
0.360834
0.360165
0.359496
0.358828
0.358162
0.357496
0.356831
0.356167
0.355504
0.354842
0.354181
0.35352
0.352861
0.352203
0.351545
0.350889
0.350233
0.349578
0.348924
0.348271
0.347619
0.346968
0.346318
0.345668
0.34502
0.344372
0.343726
0.34308
0.342435
0.341791
0.341148
0.340506
0.339864
0.339224
0.338584
0.337946
0.337308
0.336671
0.336035
0.3354
0.334765
0.334132
0.333499
0.332868
0.332237
0.331607
0.330978
0.33035
0.329722
0.329096
0.32847
0.327845
0.327221
0.326598
0.325976
0.325354
0.324734
0.324114
0.323495
0.322877
0.32226
0.321644
0.321028
0.320413
0.319799
0.319186
0.318574
0.317963
0.317352
0.316742
0.316134
0.315525
0.314918
0.314312
0.313706
0.313101
0.312497
0.311894
0.311291
0.310689
0.310089
0.309488
0.308889
0.308291
0.307693
0.307096
0.3065
0.305905
0.30531
0.304716
0.304123
0.303531
0.302939
0.302349
0.301759
0.30117
0.300581
0.299993
0.299407
0.29882
0.298235
0.29765
0.297066
0.296483
0.295901
0.295319
0.294738
0.294158
0.293579
0.293
0.292422
0.291845
0.291268
0.290692
0.290117
0.289543
0.288969
0.288396
0.287824
0.287252
0.286682
0.286111
0.285542
0.284973
0.284405
0.283838
0.283271
0.282705
0.28214
0.281575
0.281011
0.280448
0.279886
0.279324
0.278762
0.278202
0.277642
0.277083
0.276524
0.275966
0.275409
0.274852
0.274296
0.273741
0.273186
0.272632
0.272079
0.271526
0.270974
0.270422
0.269872
0.269321
0.268772
0.268223
0.267674
0.267126
0.266579
0.266033
0.265487
0.264941
0.264397
0.263852
0.263309
0.262766
0.262223
0.261682
0.26114
0.2606
0.26006
0.25952
0.258981
0.258443
0.257905
0.257368
0.256831
0.256295
0.255759
0.255224
0.25469
0.254156
0.253622
0.25309
0.252557
0.252025
0.251494
0.250963
0.250433
0.249904
0.249374
0.248846
0.248318
0.24779
0.247263
0.246736
0.24621
0.245684
0.245159
0.244635
0.244111
0.243587
0.243064
0.242541
0.242019
0.241497
0.240976
0.240455
0.239934
0.239415
0.238895
0.238376
0.237858
0.23734
0.236822
0.236305
0.235788
0.235272
0.234756
0.23424
0.233725
0.233211
0.232696
0.232183
0.231669
0.231156
0.230644
0.230132
0.22962
0.229109
0.228598
0.228087
0.227577
0.227067
0.226558
0.226049
0.22554
0.225032
0.224524
0.224017
0.223509
0.223003
0.222496
0.22199
0.221484
0.220979
0.220474
0.219969
0.219465
0.218961
0.218458
0.217954
0.217451
0.216949
0.216446
0.215944
0.215443
0.214941
0.21444
0.21394
0.213439
0.212939
0.212439
0.21194
0.21144
0.210942
0.210443
0.209945
0.209447
0.208949
0.208451
0.207954
0.207457
0.20696
0.206464
0.205968
0.205472
0.204977
0.204481
0.203986
0.203491
0.202997
0.202503
0.202009
0.201515
0.201021
0.200528
0.200035
0.199542
0.19905
0.198558
0.198066
0.197574
0.197082
0.196591
0.1961
0.195609
0.195119
0.194628
0.194138
0.193649
0.193159
0.19267
0.192181
0.191692
0.191204
0.190716
0.190228
0.189741
0.189254
0.188767
0.188281
0.187795
0.187309
0.186824
0.186339
0.185855
0.185371
0.184888
0.184406
0.183925
0.183445
0.182965
0.182488
0.182011
0.181537
0.181065
0.180595
0.180129
0.179663
0.179315
0.178622
0.810529
1.14599
0.900025
1.04641
0.979994
0.99498
0.992876
0.991759
0.990641
0.989522
0.988403
0.987284
0.986165
0.985046
0.983926
0.982807
0.981687
0.980568
0.979448
0.978329
0.977209
0.97609
0.97497
0.97385
0.972731
0.971612
0.970492
0.969373
0.968253
0.967134
0.966015
0.964896
0.963777
0.962658
0.961539
0.96042
0.959301
0.958182
0.957064
0.955945
0.954827
0.953708
0.95259
0.951472
0.950354
0.949236
0.948118
0.947001
0.945883
0.944765
0.943648
0.942531
0.941414
0.940297
0.93918
0.938063
0.936947
0.93583
0.934714
0.933598
0.932482
0.931366
0.93025
0.929135
0.928019
0.926904
0.925789
0.924674
0.923559
0.922445
0.92133
0.920216
0.919102
0.917988
0.916874
0.915761
0.914648
0.913534
0.912422
0.911309
0.910196
0.909084
0.907972
0.90686
0.905748
0.904637
0.903525
0.902414
0.901303
0.900193
0.899082
0.897972
0.896862
0.895752
0.894643
0.893533
0.892424
0.891315
0.890207
0.889099
0.88799
0.886883
0.885775
0.884668
0.883561
0.882454
0.881347
0.880241
0.879135
0.878029
0.876924
0.875818
0.874714
0.873609
0.872504
0.8714
0.870297
0.869193
0.86809
0.866987
0.865884
0.864782
0.86368
0.862578
0.861477
0.860375
0.859275
0.858174
0.857074
0.855974
0.854875
0.853775
0.852676
0.851578
0.850479
0.849382
0.848284
0.847187
0.84609
0.844993
0.843897
0.842801
0.841706
0.84061
0.839516
0.838421
0.837327
0.836233
0.83514
0.834047
0.832954
0.831862
0.83077
0.829678
0.828587
0.827496
0.826406
0.825316
0.824226
0.823137
0.822048
0.82096
0.819872
0.818784
0.817697
0.81661
0.815524
0.814438
0.813352
0.812267
0.811182
0.810098
0.809014
0.80793
0.806847
0.805764
0.804682
0.8036
0.802519
0.801438
0.800357
0.799277
0.798198
0.797118
0.79604
0.794961
0.793884
0.792806
0.791729
0.790653
0.789577
0.788501
0.787426
0.786352
0.785278
0.784204
0.783131
0.782058
0.780986
0.779914
0.778843
0.777772
0.776702
0.775632
0.774563
0.773494
0.772426
0.771358
0.770291
0.769224
0.768158
0.767092
0.766027
0.764962
0.763898
0.762835
0.761771
0.760709
0.759647
0.758585
0.757524
0.756464
0.755404
0.754344
0.753285
0.752227
0.751169
0.750112
0.749055
0.747999
0.746944
0.745889
0.744834
0.74378
0.742727
0.741674
0.740622
0.739571
0.738519
0.737469
0.736419
0.73537
0.734321
0.733273
0.732225
0.731178
0.730132
0.729086
0.728041
0.726996
0.725952
0.724909
0.723866
0.722824
0.721782
0.720741
0.719701
0.718661
0.717622
0.716584
0.715546
0.714509
0.713472
0.712436
0.711401
0.710366
0.709332
0.708298
0.707265
0.706233
0.705202
0.704171
0.70314
0.702111
0.701082
0.700053
0.699026
0.697999
0.696972
0.695947
0.694922
0.693897
0.692874
0.691851
0.690828
0.689807
0.688786
0.687765
0.686746
0.685727
0.684709
0.683691
0.682674
0.681658
0.680642
0.679628
0.678613
0.6776
0.676587
0.675575
0.674564
0.673553
0.672543
0.671534
0.670526
0.669518
0.668511
0.667505
0.666499
0.665494
0.66449
0.663487
0.662484
0.661482
0.660481
0.65948
0.65848
0.657481
0.656483
0.655486
0.654489
0.653493
0.652497
0.651503
0.650509
0.649516
0.648524
0.647532
0.646541
0.645551
0.644562
0.643574
0.642586
0.641599
0.640613
0.639627
0.638643
0.637659
0.636676
0.635693
0.634712
0.633731
0.632751
0.631772
0.630794
0.629816
0.628839
0.627863
0.626888
0.625913
0.62494
0.623967
0.622995
0.622024
0.621053
0.620084
0.619115
0.618147
0.61718
0.616213
0.615248
0.614283
0.613319
0.612356
0.611394
0.610433
0.609472
0.608512
0.607553
0.606595
0.605638
0.604681
0.603726
0.602771
0.601817
0.600864
0.599912
0.59896
0.59801
0.59706
0.596111
0.595163
0.594216
0.59327
0.592324
0.59138
0.590436
0.589493
0.588551
0.58761
0.58667
0.58573
0.584792
0.583854
0.582917
0.581981
0.581046
0.580112
0.579179
0.578246
0.577315
0.576384
0.575454
0.574525
0.573597
0.57267
0.571744
0.570819
0.569894
0.568971
0.568048
0.567126
0.566205
0.565285
0.564366
0.563448
0.562531
0.561614
0.560699
0.559784
0.55887
0.557958
0.557046
0.556135
0.555225
0.554316
0.553408
0.5525
0.551594
0.550688
0.549784
0.54888
0.547978
0.547076
0.546175
0.545275
0.544376
0.543478
0.542581
0.541685
0.540789
0.539895
0.539002
0.538109
0.537217
0.536327
0.535437
0.534548
0.533661
0.532774
0.531888
0.531003
0.530119
0.529236
0.528354
0.527472
0.526592
0.525713
0.524835
0.523957
0.523081
0.522205
0.521331
0.520457
0.519585
0.518713
0.517842
0.516972
0.516104
0.515236
0.514369
0.513503
0.512638
0.511774
0.510911
0.510049
0.509188
0.508328
0.507469
0.506611
0.505753
0.504897
0.504042
0.503188
0.502334
0.501482
0.500631
0.49978
0.498931
0.498082
0.497235
0.496388
0.495543
0.494698
0.493855
0.493012
0.492171
0.49133
0.49049
0.489652
0.488814
0.487977
0.487142
0.486307
0.485473
0.48464
0.483809
0.482978
0.482148
0.481319
0.480492
0.479665
0.478839
0.478014
0.47719
0.476367
0.475546
0.474725
0.473905
0.473086
0.472268
0.471451
0.470635
0.46982
0.469006
0.468193
0.467382
0.466571
0.465761
0.464952
0.464144
0.463337
0.462531
0.461726
0.460922
0.460119
0.459317
0.458516
0.457716
0.456917
0.456119
0.455322
0.454526
0.453732
0.452938
0.452145
0.451353
0.450562
0.449772
0.448983
0.448195
0.447408
0.446622
0.445837
0.445053
0.44427
0.443488
0.442707
0.441927
0.441148
0.44037
0.439593
0.438818
0.438043
0.437269
0.436496
0.435724
0.434953
0.434183
0.433414
0.432646
0.431879
0.431113
0.430348
0.429584
0.428821
0.428059
0.427298
0.426539
0.42578
0.425022
0.424265
0.423509
0.422754
0.422
0.421247
0.420495
0.419744
0.418994
0.418245
0.417497
0.41675
0.416004
0.415259
0.414515
0.413772
0.41303
0.412289
0.411549
0.41081
0.410072
0.409335
0.408599
0.407864
0.40713
0.406397
0.405665
0.404933
0.404203
0.403474
0.402746
0.402019
0.401293
0.400568
0.399843
0.39912
0.398398
0.397677
0.396956
0.396237
0.395519
0.394801
0.394085
0.39337
0.392655
0.391942
0.391229
0.390518
0.389807
0.389098
0.388389
0.387682
0.386975
0.386269
0.385565
0.384861
0.384158
0.383456
0.382756
0.382056
0.381357
0.380659
0.379962
0.379266
0.378571
0.377877
0.377184
0.376492
0.375801
0.37511
0.374421
0.373733
0.373045
0.372359
0.371673
0.370989
0.370305
0.369623
0.368941
0.36826
0.36758
0.366902
0.366224
0.365547
0.364871
0.364196
0.363521
0.362848
0.362176
0.361504
0.360834
0.360165
0.359496
0.358828
0.358162
0.357496
0.356831
0.356167
0.355504
0.354842
0.354181
0.353521
0.352861
0.352203
0.351545
0.350889
0.350233
0.349578
0.348924
0.348271
0.347619
0.346968
0.346318
0.345668
0.34502
0.344372
0.343726
0.34308
0.342435
0.341791
0.341148
0.340506
0.339864
0.339224
0.338584
0.337946
0.337308
0.336671
0.336035
0.3354
0.334765
0.334132
0.3335
0.332868
0.332237
0.331607
0.330978
0.33035
0.329722
0.329096
0.32847
0.327845
0.327221
0.326598
0.325976
0.325355
0.324734
0.324114
0.323495
0.322877
0.32226
0.321644
0.321028
0.320414
0.3198
0.319187
0.318574
0.317963
0.317352
0.316743
0.316134
0.315526
0.314918
0.314312
0.313706
0.313101
0.312497
0.311894
0.311291
0.31069
0.310089
0.309489
0.308889
0.308291
0.307693
0.307096
0.3065
0.305905
0.30531
0.304716
0.304123
0.303531
0.30294
0.302349
0.301759
0.30117
0.300581
0.299994
0.299407
0.298821
0.298235
0.297651
0.297067
0.296483
0.295901
0.295319
0.294738
0.294158
0.293579
0.293
0.292422
0.291845
0.291268
0.290692
0.290117
0.289543
0.288969
0.288396
0.287824
0.287253
0.286682
0.286112
0.285542
0.284973
0.284405
0.283838
0.283271
0.282705
0.28214
0.281575
0.281012
0.280448
0.279886
0.279324
0.278763
0.278202
0.277642
0.277083
0.276524
0.275966
0.275409
0.274852
0.274296
0.273741
0.273186
0.272632
0.272079
0.271526
0.270974
0.270423
0.269872
0.269321
0.268772
0.268223
0.267674
0.267127
0.266579
0.266033
0.265487
0.264941
0.264397
0.263853
0.263309
0.262766
0.262224
0.261682
0.26114
0.2606
0.26006
0.25952
0.258981
0.258443
0.257905
0.257368
0.256831
0.256295
0.255759
0.255224
0.25469
0.254156
0.253623
0.25309
0.252557
0.252026
0.251494
0.250964
0.250433
0.249904
0.249375
0.248846
0.248318
0.24779
0.247263
0.246736
0.24621
0.245685
0.24516
0.244635
0.244111
0.243587
0.243064
0.242541
0.242019
0.241497
0.240976
0.240455
0.239935
0.239415
0.238895
0.238376
0.237858
0.23734
0.236822
0.236305
0.235788
0.235272
0.234756
0.23424
0.233725
0.233211
0.232697
0.232183
0.231669
0.231156
0.230644
0.230132
0.22962
0.229109
0.228598
0.228087
0.227577
0.227067
0.226558
0.226049
0.22554
0.225032
0.224524
0.224017
0.22351
0.223003
0.222496
0.22199
0.221485
0.220979
0.220474
0.21997
0.219465
0.218961
0.218458
0.217954
0.217451
0.216949
0.216446
0.215944
0.215443
0.214941
0.21444
0.21394
0.213439
0.212939
0.212439
0.21194
0.211441
0.210942
0.210443
0.209945
0.209447
0.208949
0.208451
0.207954
0.207457
0.20696
0.206464
0.205968
0.205472
0.204977
0.204481
0.203986
0.203491
0.202997
0.202503
0.202009
0.201515
0.201021
0.200528
0.200035
0.199542
0.19905
0.198558
0.198066
0.197574
0.197082
0.196591
0.1961
0.195609
0.195119
0.194629
0.194139
0.193649
0.193159
0.19267
0.192181
0.191692
0.191204
0.190716
0.190228
0.189741
0.189254
0.188767
0.18828
0.187794
0.187309
0.186824
0.186339
0.185855
0.185371
0.184888
0.184405
0.183923
0.183442
0.182962
0.182483
0.182005
0.181528
0.181053
0.18058
0.180108
0.179637
0.179277
0.178578
0.810497
1.14597
0.900023
1.04641
0.979996
0.994979
0.992876
0.991759
0.990641
0.989522
0.988403
0.987284
0.986165
0.985046
0.983926
0.982807
0.981687
0.980568
0.979448
0.978329
0.977209
0.97609
0.97497
0.97385
0.972731
0.971612
0.970492
0.969373
0.968253
0.967134
0.966015
0.964896
0.963777
0.962658
0.961539
0.96042
0.959301
0.958182
0.957064
0.955945
0.954827
0.953708
0.95259
0.951472
0.950354
0.949236
0.948118
0.947001
0.945883
0.944765
0.943648
0.942531
0.941414
0.940297
0.93918
0.938063
0.936947
0.93583
0.934714
0.933598
0.932482
0.931366
0.93025
0.929135
0.928019
0.926904
0.925789
0.924674
0.923559
0.922445
0.92133
0.920216
0.919102
0.917988
0.916874
0.915761
0.914648
0.913535
0.912422
0.911309
0.910196
0.909084
0.907972
0.90686
0.905748
0.904637
0.903525
0.902414
0.901303
0.900193
0.899082
0.897972
0.896862
0.895752
0.894643
0.893533
0.892424
0.891316
0.890207
0.889099
0.887991
0.886883
0.885775
0.884668
0.883561
0.882454
0.881347
0.880241
0.879135
0.878029
0.876924
0.875818
0.874714
0.873609
0.872505
0.8714
0.870297
0.869193
0.86809
0.866987
0.865884
0.864782
0.86368
0.862578
0.861477
0.860375
0.859275
0.858174
0.857074
0.855974
0.854875
0.853775
0.852676
0.851578
0.85048
0.849382
0.848284
0.847187
0.84609
0.844993
0.843897
0.842801
0.841706
0.84061
0.839516
0.838421
0.837327
0.836233
0.83514
0.834047
0.832954
0.831862
0.83077
0.829678
0.828587
0.827496
0.826406
0.825316
0.824226
0.823137
0.822048
0.82096
0.819872
0.818784
0.817697
0.81661
0.815524
0.814438
0.813352
0.812267
0.811182
0.810098
0.809014
0.80793
0.806847
0.805764
0.804682
0.8036
0.802519
0.801438
0.800357
0.799277
0.798198
0.797118
0.79604
0.794961
0.793884
0.792806
0.791729
0.790653
0.789577
0.788501
0.787426
0.786352
0.785278
0.784204
0.783131
0.782058
0.780986
0.779914
0.778843
0.777772
0.776702
0.775632
0.774563
0.773494
0.772426
0.771358
0.770291
0.769224
0.768158
0.767092
0.766027
0.764962
0.763898
0.762835
0.761771
0.760709
0.759647
0.758585
0.757524
0.756464
0.755404
0.754344
0.753285
0.752227
0.751169
0.750112
0.749055
0.747999
0.746944
0.745889
0.744834
0.74378
0.742727
0.741674
0.740622
0.739571
0.738519
0.737469
0.736419
0.73537
0.734321
0.733273
0.732225
0.731178
0.730132
0.729086
0.728041
0.726996
0.725952
0.724909
0.723866
0.722824
0.721782
0.720741
0.719701
0.718661
0.717622
0.716584
0.715546
0.714509
0.713472
0.712436
0.7114
0.710366
0.709332
0.708298
0.707265
0.706233
0.705202
0.704171
0.70314
0.702111
0.701082
0.700053