/*--------------------------------*- C++ -*----------------------------------*\
| =========                 |                                                 |
| \\      /  F ield         | OpenFOAM: The Open Source CFD Toolbox           |
|  \\    /   O peration     | Version:  2512                                  |
|   \\  /    A nd           | Website:  www.openfoam.com                      |
|    \\/     M anipulation  |                                                 |
\*---------------------------------------------------------------------------*/
FoamFile
{
    version     2.0;
    format      ascii;
    arch        "LSB;label=32;scalar=64";
    class       volScalarField;
    location    "2e-05";
    object      Uy;
}
// * * * * * * * * * * * * * * * * * * * * * * * * * * * * * * * * * * * * * //

dimensions      [0 1 -1 0 0 0 0];

internalField   nonuniform List<scalar> 
100000
(
0.000509855
0.000369678
0.000453415
0.000409928
0.000425608
0.000421793
0.000422187
0.000422265
0.000422372
0.000422473
0.000422562
0.000422636
0.000422698
0.000422747
0.000422786
0.000422816
0.000422837
0.000422852
0.00042286
0.000422862
0.000422859
0.000422852
0.000422841
0.000422826
0.00042281
0.000422791
0.00042277
0.000422747
0.000422724
0.000422698
0.000422672
0.000422644
0.000422616
0.000422586
0.000422554
0.000422522
0.000422489
0.000422454
0.000422418
0.000422381
0.000422343
0.000422304
0.000422264
0.000422224
0.000422182
0.00042214
0.000422098
0.000422055
0.000422011
0.000421967
0.000421922
0.000421877
0.000421831
0.000421785
0.000421737
0.000421689
0.00042164
0.00042159
0.000421538
0.000421486
0.000421433
0.000421378
0.000421323
0.000421267
0.00042121
0.000421153
0.000421095
0.000421037
0.000420978
0.000420918
0.000420858
0.000420798
0.000420737
0.000420675
0.000420613
0.000420549
0.000420484
0.000420419
0.000420352
0.000420284
0.000420214
0.000420144
0.000420073
0.000420001
0.000419928
0.000419855
0.000419781
0.000419706
0.000419631
0.000419556
0.00041948
0.000419404
0.000419328
0.000419251
0.000419173
0.000419094
0.000419015
0.000418934
0.000418853
0.00041877
0.000418686
0.000418601
0.000418515
0.000418429
0.000418341
0.000418252
0.000418163
0.000418073
0.000417983
0.000417892
0.000417801
0.000417709
0.000417616
0.000417523
0.000417429
0.000417335
0.000417239
0.000417143
0.000417045
0.000416947
0.000416847
0.000416746
0.000416643
0.00041654
0.000416436
0.000416331
0.000416225
0.000416118
0.000416011
0.000415903
0.000415795
0.000415686
0.000415576
0.000415466
0.000415355
0.000415244
0.000415132
0.000415019
0.000414905
0.000414791
0.000414675
0.000414558
0.00041444
0.000414321
0.000414201
0.00041408
0.000413957
0.000413835
0.000413711
0.000413586
0.000413461
0.000413336
0.000413209
0.000413083
0.000412955
0.000412827
0.000412699
0.00041257
0.00041244
0.000412309
0.000412178
0.000412046
0.000411912
0.000411778
0.000411643
0.000411506
0.000411369
0.000411231
0.000411092
0.000410953
0.000410812
0.000410671
0.00041053
0.000410388
0.000410245
0.000410102
0.000409959
0.000409815
0.000409671
0.000409526
0.00040938
0.000409234
0.000409087
0.000408939
0.00040879
0.000408641
0.00040849
0.000408339
0.000408186
0.000408033
0.000407879
0.000407723
0.000407567
0.00040741
0.000407252
0.000407094
0.000406934
0.000406774
0.000406614
0.000406452
0.000406291
0.000406129
0.000405966
0.000405803
0.000405639
0.000405475
0.000405309
0.000405143
0.000404977
0.000404809
0.00040464
0.00040447
0.0004043
0.000404128
0.000403955
0.000403781
0.000403606
0.000403429
0.000403252
0.000403074
0.000402895
0.000402716
0.000402536
0.000402355
0.000402173
0.000401992
0.000401809
0.000401627
0.000401443
0.00040126
0.000401075
0.00040089
0.000400704
0.000400518
0.00040033
0.000400142
0.000399953
0.000399762
0.00039957
0.000399377
0.000399182
0.000398987
0.000398789
0.000398591
0.000398392
0.000398192
0.000397991
0.00039779
0.000397588
0.000397386
0.000397183
0.00039698
0.000396776
0.000396572
0.000396367
0.000396162
0.000395955
0.000395747
0.000395538
0.000395328
0.000395116
0.000394903
0.000394689
0.000394473
0.000394256
0.000394038
0.000393818
0.000393598
0.000393377
0.000393155
0.000392933
0.00039271
0.000392488
0.000392265
0.000392042
0.000391818
0.000391594
0.00039137
0.000391146
0.00039092
0.000390694
0.000390467
0.000390239
0.000390011
0.000389781
0.00038955
0.000389318
0.000389085
0.000388851
0.000388617
0.000388381
0.000388145
0.000387909
0.000387672
0.000387435
0.000387198
0.000386961
0.000386724
0.000386487
0.00038625
0.000386012
0.000385775
0.000385536
0.000385298
0.000385058
0.000384818
0.000384577
0.000384334
0.000384091
0.000383847
0.000383601
0.000383355
0.000383108
0.00038286
0.000382612
0.000382363
0.000382114
0.000381864
0.000381615
0.000381366
0.000381117
0.000380868
0.000380619
0.00038037
0.000380122
0.000379873
0.000379624
0.000379375
0.000379125
0.000378874
0.000378623
0.000378371
0.000378118
0.000377865
0.000377611
0.000377356
0.000377101
0.000376846
0.000376591
0.000376336
0.000376081
0.000375827
0.000375573
0.00037532
0.000375068
0.000374816
0.000374565
0.000374315
0.000374065
0.000373815
0.000373566
0.000373317
0.000373067
0.000372817
0.000372567
0.000372316
0.000372064
0.000371812
0.00037156
0.000371308
0.000371056
0.000370804
0.000370552
0.0003703
0.000370048
0.000369796
0.000369545
0.000369294
0.000369043
0.000368793
0.000368544
0.000368295
0.000368047
0.0003678
0.000367553
0.000367306
0.00036706
0.000366814
0.000366567
0.000366321
0.000366074
0.000365828
0.000365581
0.000365335
0.000365088
0.000364841
0.000364595
0.000364348
0.000364101
0.000363853
0.000363606
0.000363359
0.000363113
0.000362866
0.000362621
0.000362376
0.000362132
0.000361888
0.000361645
0.000361403
0.000361161
0.000360919
0.000360678
0.000360437
0.000360196
0.000359955
0.000359714
0.000359474
0.000359234
0.000358994
0.000358755
0.000358515
0.000358276
0.000358038
0.000357799
0.000357562
0.000357325
0.000357089
0.000356854
0.000356621
0.000356389
0.000356158
0.000355929
0.0003557
0.000355473
0.000355246
0.00035502
0.000354795
0.000354571
0.000354347
0.000354124
0.000353902
0.000353681
0.000353461
0.000353242
0.000353024
0.000352807
0.000352592
0.000352377
0.000352164
0.000351953
0.000351744
0.000351538
0.000351333
0.000351132
0.000350933
0.000350737
0.000350544
0.000350354
0.000350167
0.000349982
0.0003498
0.000349621
0.000349445
0.000349272
0.000349102
0.000348935
0.000348772
0.000348613
0.000348457
0.000348306
0.000348159
0.000348016
0.000347877
0.000347743
0.000347613
0.000347487
0.000347365
0.000347248
0.000347135
0.000347026
0.000346921
0.000346819
0.000346722
0.000346628
0.000346538
0.000346451
0.000346367
0.000346287
0.000346209
0.000346133
0.000346057
0.000345979
0.000345897
0.00034581
0.000345718
0.00034562
0.000345515
0.000345402
0.000345281
0.000345153
0.000345016
0.000344871
0.000344718
0.000344557
0.000344388
0.000344211
0.000344026
0.000343833
0.000343633
0.000343425
0.000343209
0.000342986
0.000342756
0.000342519
0.000342275
0.000342025
0.000341768
0.000341506
0.000341237
0.000340964
0.000340686
0.000340403
0.000340116
0.000339825
0.00033953
0.000339233
0.000338934
0.000338632
0.000338328
0.000338022
0.000337715
0.000337407
0.000337098
0.000336789
0.000336481
0.000336172
0.000335865
0.000335557
0.00033525
0.000334943
0.000334636
0.000334329
0.000334022
0.000333715
0.000333409
0.000333103
0.000332797
0.000332491
0.000332185
0.000331878
0.000331572
0.000331264
0.000330956
0.000330646
0.000330335
0.000330023
0.000329709
0.000329393
0.000329076
0.000328758
0.000328438
0.000328116
0.000327793
0.000327469
0.000327143
0.000326816
0.000326487
0.000326158
0.000325827
0.000325496
0.000325163
0.00032483
0.000324496
0.000324161
0.000323825
0.000323489
0.000323151
0.000322813
0.000322475
0.000322135
0.000321795
0.000321454
0.000321112
0.000320769
0.000320425
0.000320081
0.000319735
0.000319388
0.00031904
0.000318691
0.000318341
0.000317989
0.000317637
0.000317283
0.000316929
0.000316573
0.000316216
0.000315858
0.000315499
0.000315139
0.000314778
0.000314417
0.000314054
0.00031369
0.000313325
0.000312959
0.000312591
0.000312223
0.000311854
0.000311484
0.000311112
0.00031074
0.000310366
0.000309992
0.000309617
0.000309241
0.000308864
0.000308486
0.000308107
0.000307727
0.000307347
0.000306966
0.000306584
0.000306201
0.000305817
0.000305433
0.000305048
0.000304663
0.000304276
0.00030389
0.000303502
0.000303114
0.000302725
0.000302336
0.000301947
0.000301557
0.000301168
0.000300778
0.000300388
0.000299998
0.000299608
0.000299218
0.000298829
0.000298439
0.00029805
0.000297661
0.000297272
0.000296883
0.000296495
0.000296106
0.000295717
0.000295328
0.000294938
0.000294548
0.000294158
0.000293767
0.000293375
0.000292983
0.000292591
0.000292198
0.000291805
0.000291412
0.000291018
0.000290623
0.000290228
0.000289833
0.000289437
0.00028904
0.000288643
0.000288245
0.000287847
0.000287448
0.000287047
0.000286646
0.000286245
0.000285842
0.000285439
0.000285035
0.00028463
0.000284224
0.000283817
0.00028341
0.000283003
0.000282594
0.000282185
0.000281776
0.000281366
0.000280955
0.000280544
0.000280132
0.00027972
0.000279307
0.000278894
0.000278481
0.000278067
0.000277653
0.000277239
0.000276825
0.00027641
0.000275995
0.000275579
0.000275163
0.000274747
0.000274331
0.000273914
0.000273497
0.00027308
0.000272662
0.000272245
0.000271828
0.000271411
0.000270994
0.000270577
0.000270159
0.000269742
0.000269325
0.000268908
0.000268491
0.000268074
0.000267657
0.00026724
0.000266823
0.000266407
0.000265991
0.000265575
0.000265159
0.000264744
0.00026433
0.000263916
0.000263503
0.000263091
0.000262679
0.000262268
0.000261858
0.000261448
0.00026104
0.000260632
0.000260224
0.000259817
0.000259411
0.000259006
0.000258601
0.000258196
0.000257792
0.000257389
0.000256987
0.000256585
0.000256184
0.000255784
0.000255385
0.000254987
0.000254589
0.000254193
0.000253797
0.000253403
0.000253009
0.000252617
0.000252225
0.000251834
0.000251444
0.000251054
0.000250666
0.000250278
0.000249891
0.000249504
0.000249119
0.000248734
0.000248349
0.000247966
0.000247583
0.000247202
0.000246821
0.000246441
0.000246062
0.000245683
0.000245306
0.00024493
0.000244554
0.00024418
0.000243806
0.000243433
0.000243062
0.000242691
0.000242321
0.000241952
0.000241584
0.000241217
0.00024085
0.000240485
0.000240121
0.000239757
0.000239394
0.000239033
0.000238672
0.000238312
0.000237953
0.000237595
0.000237238
0.000236881
0.000236526
0.000236172
0.000235819
0.000235467
0.000235116
0.000234767
0.000234419
0.000234072
0.000233726
0.000233381
0.000233037
0.000232695
0.000232353
0.000232012
0.000231672
0.000231333
0.000230995
0.000230658
0.000230322
0.000229987
0.000229653
0.000229319
0.000228987
0.000228655
0.000228325
0.000227996
0.000227668
0.000227342
0.000227016
0.000226692
0.000226369
0.000226047
0.000225727
0.000225407
0.000225089
0.000224772
0.000224456
0.000224141
0.000223827
0.000223514
0.000223202
0.000222891
0.000222581
0.000222272
0.000221964
0.000221658
0.000221352
0.000221048
0.000220746
0.000220444
0.000220144
0.000219846
0.000219549
0.000219253
0.000218959
0.000218667
0.000218375
0.000218086
0.000217797
0.00021751
0.000217225
0.00021694
0.000216657
0.000216375
0.000216094
0.000215815
0.000215536
0.000215259
0.000214982
0.000214708
0.000214434
0.000214162
0.000213891
0.000213621
0.000213354
0.000213087
0.000212823
0.00021256
0.000212299
0.00021204
0.000211783
0.000211528
0.000211274
0.000211023
0.000210773
0.000210524
0.000210278
0.000210033
0.00020979
0.000209548
0.000209308
0.00020907
0.000208834
0.000208598
0.000208365
0.000208133
0.000207903
0.000207675
0.000207448
0.000207223
0.000207
0.000206778
0.000206559
0.00020634
0.000206124
0.000205909
0.000205696
0.000205484
0.000205274
0.000205065
0.000204858
0.000204653
0.000204448
0.000204246
0.000204044
0.000203844
0.000203645
0.000203446
0.000203249
0.000203052
0.000202856
0.000202662
0.000202467
0.000202274
0.000202082
0.000201891
0.0002017
0.000201511
0.000201322
0.000201135
0.000200948
0.000200762
0.000200578
0.000200395
0.000200214
0.000200034
0.000199856
0.000199681
0.000199507
0.000199336
0.000199167
0.000198999
0.000198834
0.000198671
0.00019851
0.000198351
0.000198194
0.00019804
0.000197889
0.00019774
0.000197594
0.000197451
0.00019731
0.00019717
0.000197032
0.000196895
0.000196757
0.00019662
0.000196482
0.000196343
0.000196203
0.000196061
0.000195916
0.000195768
0.000195615
0.000195458
0.000195296
0.000195129
0.000194954
0.000194773
0.000194583
0.000194385
0.000194179
0.000193965
0.000193746
0.000193522
0.000193294
0.000193062
0.000192825
0.000192583
0.000192336
0.000192082
0.00019182
0.000191549
0.000191272
0.000190986
0.000190694
0.000190394
0.000190087
0.000189767
0.00018943
0.000189067
0.000188663
0.000188195
0.000187641
0.000187014
0.000186351
0.000185693
0.000185074
0.000184511
0.000184007
0.00018356
0.000183147
0.00018268
0.00018198
0.000180724
0.000178013
0.000171936
0.000160705
0.000113383
0.000265267
0.00018843
0.000276928
0.000267335
0.000286087
0.000290665
0.000294384
0.000296781
0.000298383
0.000299488
0.000300273
0.000300846
0.000301275
0.000301602
0.000301857
0.000302058
0.000302219
0.000302349
0.000302456
0.000302544
0.000302616
0.000302676
0.000302726
0.000302766
0.000302799
0.000302824
0.000302843
0.000302856
0.000302864
0.000302868
0.000302867
0.000302862
0.000302854
0.000302843
0.000302829
0.000302813
0.000302794
0.000302773
0.000302749
0.000302724
0.000302697
0.000302668
0.000302637
0.000302605
0.00030257
0.000302534
0.000302495
0.000302455
0.000302413
0.000302368
0.000302323
0.000302275
0.000302226
0.000302175
0.000302123
0.00030207
0.000302016
0.00030196
0.000301904
0.000301846
0.000301788
0.000301728
0.000301667
0.000301606
0.000301542
0.000301478
0.000301412
0.000301345
0.000301276
0.000301206
0.000301134
0.000301061
0.000300986
0.000300911
0.000300834
0.000300756
0.000300678
0.000300599
0.000300519
0.000300438
0.000300357
0.000300275
0.000300191
0.000300107
0.000300022
0.000299936
0.000299848
0.000299759
0.000299669
0.000299577
0.000299484
0.000299389
0.000299293
0.000299195
0.000299097
0.000298998
0.000298897
0.000298796
0.000298694
0.000298591
0.000298488
0.000298384
0.000298279
0.000298174
0.000298067
0.00029796
0.000297851
0.000297742
0.000297631
0.000297518
0.000297405
0.00029729
0.000297174
0.000297056
0.000296938
0.000296819
0.000296699
0.000296578
0.000296456
0.000296334
0.000296211
0.000296088
0.000295964
0.00029584
0.000295714
0.000295588
0.000295461
0.000295333
0.000295203
0.000295073
0.000294941
0.000294809
0.000294674
0.000294539
0.000294403
0.000294265
0.000294127
0.000293988
0.000293848
0.000293707
0.000293566
0.000293423
0.000293281
0.000293137
0.000292993
0.000292849
0.000292703
0.000292557
0.00029241
0.000292262
0.000292113
0.000291963
0.000291811
0.000291659
0.000291505
0.00029135
0.000291194
0.000291037
0.000290879
0.00029072
0.00029056
0.0002904
0.000290239
0.000290077
0.000289915
0.000289751
0.000289587
0.000289423
0.000289257
0.00028909
0.000288923
0.000288754
0.000288584
0.000288413
0.000288241
0.000288068
0.000287893
0.000287717
0.000287541
0.000287362
0.000287183
0.000287003
0.000286822
0.00028664
0.000286458
0.000286274
0.00028609
0.000285905
0.00028572
0.000285534
0.000285347
0.00028516
0.000284971
0.000284782
0.000284593
0.000284402
0.00028421
0.000284018
0.000283824
0.00028363
0.000283434
0.000283237
0.00028304
0.000282841
0.000282641
0.00028244
0.000282239
0.000282037
0.000281834
0.00028163
0.000281426
0.000281221
0.000281015
0.00028081
0.000280603
0.000280397
0.00028019
0.000279982
0.000279774
0.000279565
0.000279356
0.000279146
0.000278935
0.000278723
0.00027851
0.000278296
0.000278081
0.000277865
0.000277649
0.000277431
0.000277212
0.000276993
0.000276773
0.000276553
0.000276331
0.00027611
0.000275888
0.000275666
0.000275444
0.000275221
0.000274999
0.000274776
0.000274553
0.00027433
0.000274107
0.000273883
0.000273659
0.000273434
0.000273208
0.000272981
0.000272753
0.000272524
0.000272294
0.000272064
0.000271833
0.000271602
0.00027137
0.000271138
0.000270906
0.000270674
0.000270442
0.000270211
0.000269979
0.000269748
0.000269517
0.000269285
0.000269054
0.000268822
0.000268591
0.000268358
0.000268125
0.000267891
0.000267656
0.00026742
0.000267183
0.000266946
0.000266707
0.000266468
0.000266229
0.000265989
0.000265749
0.000265509
0.000265268
0.000265028
0.000264787
0.000264547
0.000264306
0.000264066
0.000263826
0.000263585
0.000263345
0.000263104
0.000262863
0.000262621
0.000262378
0.000262135
0.00026189
0.000261645
0.000261399
0.000261153
0.000260906
0.000260658
0.00026041
0.000260162
0.000259913
0.000259665
0.000259417
0.000259169
0.000258922
0.000258674
0.000258427
0.000258181
0.000257934
0.000257688
0.000257441
0.000257194
0.000256947
0.0002567
0.000256451
0.000256202
0.000255953
0.000255702
0.000255451
0.000255199
0.000254946
0.000254693
0.00025444
0.000254186
0.000253933
0.000253679
0.000253426
0.000253173
0.00025292
0.000252667
0.000252414
0.000252161
0.000251908
0.000251655
0.000251401
0.000251146
0.00025089
0.000250633
0.000250375
0.000250115
0.000249855
0.000249592
0.000249329
0.000249064
0.000248798
0.000248531
0.000248263
0.000247995
0.000247727
0.000247458
0.000247189
0.00024692
0.000246651
0.000246382
0.000246112
0.000245843
0.000245572
0.000245301
0.00024503
0.000244758
0.000244485
0.000244212
0.000243937
0.000243663
0.000243387
0.00024311
0.000242833
0.000242554
0.000242274
0.000241994
0.000241713
0.000241431
0.000241149
0.000240866
0.000240583
0.0002403
0.000240017
0.000239733
0.000239449
0.000239166
0.000238882
0.000238598
0.000238313
0.000238029
0.000237745
0.000237461
0.000237176
0.000236892
0.000236607
0.000236322
0.000236037
0.00023575
0.000235464
0.000235176
0.000234889
0.000234601
0.000234313
0.000234024
0.000233736
0.000233448
0.000233161
0.000232873
0.000232586
0.000232298
0.000232011
0.000231724
0.000231438
0.000231152
0.000230866
0.000230581
0.000230296
0.000230011
0.000229726
0.000229441
0.000229156
0.000228871
0.000228586
0.0002283
0.000228014
0.000227729
0.000227444
0.00022716
0.000226876
0.000226593
0.000226311
0.000226029
0.000225749
0.000225469
0.00022519
0.000224912
0.000224635
0.000224359
0.000224085
0.000223811
0.000223539
0.000223267
0.000222997
0.000222728
0.000222459
0.000222191
0.000221923
0.000221656
0.00022139
0.000221125
0.000220862
0.000220599
0.000220338
0.000220079
0.000219821
0.000219565
0.000219312
0.00021906
0.000218811
0.000218564
0.000218319
0.000218077
0.000217838
0.000217601
0.000217366
0.000217135
0.000216907
0.000216682
0.00021646
0.000216241
0.000216026
0.000215814
0.000215606
0.000215402
0.000215201
0.000215004
0.000214812
0.000214624
0.00021444
0.00021426
0.000214085
0.000213914
0.000213745
0.000213578
0.000213411
0.000213243
0.000213073
0.0002129
0.000212725
0.000212545
0.000212362
0.000212174
0.000211981
0.000211783
0.000211579
0.00021137
0.000211156
0.000210935
0.000210709
0.000210477
0.00021024
0.000209996
0.000209748
0.000209493
0.000209234
0.000208969
0.000208699
0.000208425
0.000208145
0.000207861
0.000207572
0.000207279
0.000206982
0.00020668
0.000206375
0.000206065
0.000205751
0.000205433
0.000205112
0.000204786
0.000204457
0.000204125
0.00020379
0.000203452
0.000203111
0.000202768
0.000202423
0.000202077
0.000201729
0.000201381
0.000201032
0.000200682
0.000200332
0.000199981
0.00019963
0.000199278
0.000198925
0.000198571
0.000198217
0.000197862
0.000197506
0.000197149
0.000196792
0.000196434
0.000196076
0.000195717
0.000195359
0.000195001
0.000194643
0.000194285
0.000193928
0.00019357
0.000193213
0.000192857
0.0001925
0.000192144
0.000191788
0.000191433
0.000191077
0.000190722
0.000190366
0.000190011
0.000189656
0.0001893
0.000188944
0.000188589
0.000188233
0.000187877
0.000187521
0.000187164
0.000186808
0.000186451
0.000186095
0.000185738
0.000185381
0.000185024
0.000184668
0.000184311
0.000183955
0.000183598
0.000183242
0.000182887
0.000182531
0.000182176
0.000181821
0.000181467
0.000181113
0.000180759
0.000180406
0.000180053
0.0001797
0.000179348
0.000178996
0.000178644
0.000178293
0.000177942
0.000177592
0.000177242
0.000176893
0.000176544
0.000176195
0.000175847
0.0001755
0.000175153
0.000174807
0.000174461
0.000174115
0.00017377
0.000173426
0.000173082
0.000172739
0.000172396
0.000172053
0.000171711
0.000171369
0.000171028
0.000170687
0.000170347
0.000170007
0.000169667
0.000169328
0.00016899
0.000168651
0.000168314
0.000167976
0.000167639
0.000167302
0.000166965
0.000166629
0.000166292
0.000165956
0.000165619
0.000165283
0.000164946
0.000164609
0.000164273
0.000163936
0.000163599
0.000163261
0.000162924
0.000162586
0.000162249
0.000161911
0.000161574
0.000161237
0.0001609
0.000160563
0.000160227
0.000159891
0.000159556
0.000159221
0.000158886
0.000158552
0.000158218
0.000157885
0.000157552
0.000157219
0.000156886
0.000156554
0.000156223
0.000155892
0.000155562
0.000155232
0.000154903
0.000154574
0.000154247
0.00015392
0.000153594
0.000153269
0.000152944
0.000152621
0.000152298
0.000151976
0.000151654
0.000151334
0.000151014
0.000150695
0.000150376
0.000150058
0.000149741
0.000149425
0.000149109
0.000148794
0.00014848
0.000148167
0.000147854
0.000147542
0.000147231
0.00014692
0.00014661
0.000146301
0.000145993
0.000145685
0.000145378
0.000145073
0.000144768
0.000144464
0.00014416
0.000143858
0.000143556
0.000143255
0.000142954
0.000142655
0.000142356
0.000142058
0.00014176
0.000141463
0.000141167
0.000140872
0.000140578
0.000140284
0.000139992
0.0001397
0.000139409
0.000139118
0.000138829
0.00013854
0.000138252
0.000137964
0.000137677
0.000137391
0.000137105
0.000136819
0.000136534
0.00013625
0.000135965
0.000135682
0.000135398
0.000135116
0.000134833
0.000134552
0.000134271
0.000133991
0.000133711
0.000133432
0.000133154
0.000132876
0.0001326
0.000132324
0.000132049
0.000131774
0.0001315
0.000131227
0.000130954
0.000130682
0.00013041
0.000130139
0.000129869
0.000129599
0.00012933
0.000129061
0.000128793
0.000128526
0.00012826
0.000127995
0.000127731
0.000127468
0.000127205
0.000126944
0.000126684
0.000126424
0.000126166
0.000125908
0.000125652
0.000125397
0.000125142
0.000124889
0.000124636
0.000124384
0.000124134
0.000123884
0.000123636
0.000123388
0.000123141
0.000122896
0.000122651
0.000122408
0.000122165
0.000121924
0.000121684
0.000121444
0.000121206
0.00012097
0.000120734
0.000120499
0.000120266
0.000120033
0.000119802
0.000119572
0.000119344
0.000119116
0.00011889
0.000118665
0.000118441
0.000118218
0.000117995
0.000117774
0.000117554
0.000117334
0.000117116
0.000116899
0.000116683
0.000116468
0.000116254
0.000116042
0.00011583
0.00011562
0.000115411
0.000115204
0.000114998
0.000114793
0.000114589
0.000114387
0.000114187
0.000113987
0.000113789
0.000113592
0.000113396
0.000113201
0.000113007
0.000112814
0.000112623
0.000112432
0.000112242
0.000112054
0.000111867
0.000111681
0.000111496
0.000111312
0.00011113
0.000110949
0.000110769
0.000110591
0.000110414
0.000110238
0.000110064
0.000109891
0.000109719
0.000109548
0.000109379
0.00010921
0.000109043
0.000108876
0.000108711
0.000108546
0.000108382
0.00010822
0.000108058
0.000107897
0.000107737
0.000107579
0.000107421
0.000107264
0.000107109
0.000106954
0.000106801
0.00010665
0.000106499
0.00010635
0.000106202
0.000106055
0.00010591
0.000105765
0.000105622
0.00010548
0.000105339
0.000105198
0.000105058
0.00010492
0.000104782
0.000104644
0.000104507
0.000104371
0.000104235
0.0001041
0.000103966
0.000103833
0.0001037
0.000103568
0.000103436
0.000103306
0.000103176
0.000103047
0.000102919
0.000102792
0.000102666
0.00010254
0.000102415
0.000102291
0.000102167
0.000102045
0.000101922
0.000101801
0.00010168
0.000101559
0.00010144
0.000101321
0.000101202
0.000101085
0.000100968
0.000100851
0.000100736
0.000100621
0.000100507
0.000100394
0.000100281
0.000100169
0.000100058
9.99487e-05
9.98401e-05
9.97327e-05
9.96266e-05
9.95215e-05
9.94176e-05
9.93147e-05
9.92128e-05
9.91119e-05
9.90118e-05
9.89125e-05
9.88141e-05
9.87165e-05
9.86195e-05
9.85232e-05
9.84273e-05
9.83317e-05
9.82362e-05
9.81405e-05
9.80444e-05
9.79476e-05
9.785e-05
9.77514e-05
9.76517e-05
9.75508e-05
9.74487e-05
9.73454e-05
9.72407e-05
9.71346e-05
9.70268e-05
9.69169e-05
9.68047e-05
9.66898e-05
9.65719e-05
9.6451e-05
9.63273e-05
9.62011e-05
9.60729e-05
9.59433e-05
9.58124e-05
9.56806e-05
9.55479e-05
9.54142e-05
9.52798e-05
9.51449e-05
9.501e-05
9.48754e-05
9.47414e-05
9.46083e-05
9.44763e-05
9.43459e-05
9.42169e-05
9.40895e-05
9.39639e-05
9.38405e-05
9.37189e-05
9.35977e-05
9.34749e-05
9.33484e-05
9.32159e-05
9.30757e-05
9.29262e-05
9.2766e-05
9.25931e-05
9.24058e-05
9.22021e-05
9.19794e-05
9.17345e-05
9.14634e-05
9.1162e-05
9.08266e-05
9.04538e-05
9.00413e-05
8.95913e-05
8.91103e-05
8.86038e-05
8.80858e-05
8.7579e-05
8.70842e-05
8.65457e-05
8.58882e-05
8.50395e-05
8.39267e-05
8.24755e-05
8.05854e-05
7.81041e-05
7.48419e-05
7.05428e-05
6.48726e-05
5.72105e-05
4.58783e-05
2.79348e-05
1.65221e-06
-6.87079e-05
-3.31984e-05
1.78612e-05
5.65979e-05
6.26668e-05
7.63587e-05
8.16007e-05
8.53678e-05
8.78286e-05
8.95091e-05
9.07059e-05
9.15893e-05
9.22604e-05
9.27818e-05
9.3195e-05
9.35278e-05
9.37993e-05
9.40227e-05
9.4208e-05
9.43624e-05
9.44918e-05
9.46007e-05
9.46927e-05
9.47706e-05
9.4837e-05
9.48939e-05
9.4943e-05
9.49855e-05
9.50225e-05
9.50549e-05
9.50832e-05
9.51079e-05
9.51294e-05
9.5148e-05
9.51641e-05
9.51779e-05
9.51896e-05
9.51994e-05
9.52074e-05
9.52139e-05
9.52188e-05
9.52225e-05
9.5225e-05
9.52266e-05
9.52273e-05
9.52275e-05
9.52271e-05
9.52265e-05
9.52256e-05
9.52246e-05
9.52235e-05
9.52223e-05
9.5221e-05
9.52194e-05
9.52177e-05
9.52156e-05
9.52131e-05
9.52101e-05
9.52066e-05
9.52026e-05
9.5198e-05
9.5193e-05
9.51875e-05
9.51817e-05
9.51756e-05
9.51695e-05
9.51634e-05
9.51575e-05
9.51519e-05
9.51465e-05
9.51413e-05
9.51364e-05
9.51316e-05
9.51269e-05
9.51221e-05
9.51172e-05
9.5112e-05
9.51064e-05
9.51004e-05
9.50939e-05
9.50869e-05
9.50794e-05
9.50716e-05
9.50633e-05
9.50549e-05
9.50464e-05
9.50379e-05
9.50297e-05
9.50218e-05
9.50143e-05
9.50071e-05
9.50003e-05
9.49939e-05
9.49877e-05
9.49816e-05
9.49756e-05
9.49695e-05
9.49631e-05
9.49564e-05
9.49493e-05
9.49417e-05
9.49336e-05
9.49251e-05
9.49161e-05
9.49069e-05
9.48975e-05
9.48879e-05
9.48784e-05
9.4869e-05
9.48598e-05
9.48509e-05
9.48422e-05
9.48338e-05
9.48256e-05
9.48175e-05
9.48093e-05
9.48011e-05
9.47926e-05
9.47838e-05
9.47744e-05
9.47646e-05
9.47542e-05
9.47433e-05
9.47318e-05
9.47199e-05
9.47077e-05
9.46952e-05
9.46826e-05
9.46699e-05
9.46573e-05
9.46448e-05
9.46324e-05
9.46203e-05
9.46083e-05
9.45965e-05
9.45847e-05
9.4573e-05
9.45611e-05
9.4549e-05
9.45366e-05
9.45238e-05
9.45105e-05
9.44968e-05
9.44827e-05
9.4468e-05
9.44529e-05
9.44373e-05
9.44214e-05
9.44052e-05
9.43889e-05
9.43725e-05
9.43561e-05
9.43398e-05
9.43237e-05
9.43077e-05
9.42919e-05
9.42763e-05
9.42606e-05
9.4245e-05
9.42293e-05
9.42134e-05
9.41973e-05
9.41808e-05
9.4164e-05
9.41467e-05
9.41292e-05
9.41112e-05
9.4093e-05
9.40746e-05
9.40561e-05
9.40376e-05
9.40192e-05
9.40009e-05
9.39828e-05
9.3965e-05
9.39475e-05
9.39303e-05
9.39134e-05
9.38968e-05
9.38806e-05
9.38645e-05
9.38486e-05
9.38328e-05
9.3817e-05
9.38012e-05
9.37852e-05
9.37689e-05
9.37525e-05
9.37358e-05
9.37189e-05
9.37017e-05
9.36844e-05
9.36668e-05
9.3649e-05
9.36312e-05
9.36132e-05
9.35951e-05
9.35771e-05
9.35592e-05
9.35413e-05
9.35237e-05
9.35063e-05
9.34891e-05
9.3472e-05
9.34551e-05
9.34384e-05
9.34216e-05
9.34049e-05
9.33881e-05
9.33711e-05
9.3354e-05
9.33365e-05
9.33188e-05
9.33006e-05
9.32821e-05
9.32631e-05
9.32438e-05
9.3224e-05
9.32039e-05
9.31834e-05
9.31626e-05
9.31416e-05
9.31206e-05
9.30995e-05
9.30785e-05
9.30576e-05
9.30368e-05
9.30162e-05
9.29957e-05
9.29753e-05
9.2955e-05
9.29347e-05
9.29143e-05
9.28937e-05
9.2873e-05
9.2852e-05
9.28306e-05
9.28087e-05
9.27862e-05
9.27631e-05
9.27392e-05
9.27146e-05
9.26893e-05
9.26632e-05
9.26366e-05
9.26095e-05
9.25821e-05
9.25545e-05
9.2527e-05
9.24996e-05
9.24723e-05
9.24452e-05
9.24183e-05
9.23913e-05
9.23643e-05
9.23371e-05
9.23096e-05
9.22815e-05
9.22529e-05
9.22236e-05
9.21935e-05
9.21625e-05
9.21306e-05
9.20978e-05
9.20641e-05
9.20294e-05
9.19939e-05
9.19577e-05
9.1921e-05
9.18838e-05
9.18465e-05
9.1809e-05
9.17716e-05
9.17343e-05
9.16971e-05
9.16601e-05
9.1623e-05
9.15859e-05
9.15485e-05
9.15108e-05
9.14727e-05
9.1434e-05
9.13947e-05
9.13547e-05
9.13138e-05
9.12721e-05
9.12295e-05
9.1186e-05
9.11416e-05
9.10963e-05
9.10503e-05
9.10035e-05
9.09562e-05
9.09085e-05
9.08605e-05
9.08124e-05
9.07642e-05
9.0716e-05
9.06677e-05
9.06193e-05
9.05707e-05
9.05218e-05
9.04725e-05
9.04227e-05
9.03722e-05
9.0321e-05
9.02687e-05
9.02155e-05
9.01611e-05
9.01056e-05
9.00489e-05
8.9991e-05
8.99321e-05
8.9872e-05
8.9811e-05
8.97493e-05
8.96868e-05
8.96238e-05
8.95603e-05
8.94965e-05
8.94325e-05
8.93683e-05
8.93039e-05
8.92393e-05
8.91744e-05
8.91092e-05
8.90434e-05
8.8977e-05
8.89097e-05
8.88415e-05
8.87722e-05
8.87018e-05
8.86302e-05
8.85574e-05
8.84835e-05
8.84085e-05
8.83326e-05
8.82558e-05
8.81784e-05
8.81005e-05
8.80224e-05
8.79441e-05
8.78658e-05
8.77875e-05
8.77093e-05
8.76313e-05
8.75534e-05
8.74757e-05
8.73982e-05
8.73206e-05
8.72429e-05
8.71649e-05
8.70863e-05
8.7007e-05
8.69269e-05
8.68459e-05
8.67639e-05
8.6681e-05
8.65972e-05
8.65127e-05
8.64276e-05
8.6342e-05
8.6256e-05
8.61696e-05
8.60828e-05
8.59957e-05
8.59082e-05
8.58204e-05
8.57323e-05
8.5644e-05
8.55557e-05
8.54674e-05
8.53791e-05
8.52907e-05
8.52022e-05
8.51134e-05
8.50242e-05
8.49346e-05
8.48444e-05
8.47535e-05
8.4662e-05
8.45697e-05
8.44768e-05
8.43832e-05
8.42889e-05
8.4194e-05
8.40985e-05
8.40022e-05
8.39053e-05
8.38075e-05
8.3709e-05
8.36098e-05
8.35099e-05
8.34094e-05
8.33086e-05
8.32074e-05
8.3106e-05
8.30044e-05
8.29025e-05
8.28002e-05
8.26973e-05
8.25939e-05
8.24897e-05
8.23848e-05
8.22792e-05
8.21728e-05
8.20656e-05
8.19576e-05
8.1849e-05
8.17395e-05
8.16293e-05
8.15183e-05
8.14064e-05
8.12937e-05
8.11802e-05
8.10658e-05
8.09508e-05
8.08353e-05
8.07193e-05
8.06031e-05
8.04867e-05
8.037e-05
8.02531e-05
8.01358e-05
8.0018e-05
7.98996e-05
7.97804e-05
7.96605e-05
7.95398e-05
7.94184e-05
7.92962e-05
7.91733e-05
7.90495e-05
7.8925e-05
7.87995e-05
7.86732e-05
7.85459e-05
7.84178e-05
7.82887e-05
7.81588e-05
7.80281e-05
7.78967e-05
7.77647e-05
7.76322e-05
7.74992e-05
7.73659e-05
7.7232e-05