/*--------------------------------*- C++ -*----------------------------------*\
| =========                 |                                                 |
| \\      /  F ield         | OpenFOAM: The Open Source CFD Toolbox           |
|  \\    /   O peration     | Version:  2512                                  |
|   \\  /    A nd           | Website:  www.openfoam.com                      |
|    \\/     M anipulation  |                                                 |
\*---------------------------------------------------------------------------*/
FoamFile
{
    version     2.0;
    format      ascii;
    arch        "LSB;label=32;scalar=64";
    class       volVectorField;
    location    "0.1";
    object      B;
}
// * * * * * * * * * * * * * * * * * * * * * * * * * * * * * * * * * * * * * //

dimensions      [1 0 -2 0 0 -1 0];

internalField   nonuniform List<vector> 
8334
(
(-5.60536e-06 19.9999 3.64318e-19)
(-5.60796e-06 19.9999 3.28001e-19)
(-5.61206e-06 19.9999 3.49834e-19)
(-5.61471e-06 19.9999 3.27948e-19)
(-5.61643e-06 19.9999 3.34966e-19)
(-5.61786e-06 19.9999 3.36405e-19)
(-5.61949e-06 19.9999 3.54499e-19)
(-5.61998e-06 19.9999 3.48324e-19)
(-5.62069e-06 19.9999 3.72454e-19)
(-5.62183e-06 19.9999 3.52162e-19)
(-5.62268e-06 19.9999 3.4737e-19)
(-5.62329e-06 19.9999 3.57098e-19)
(-5.62368e-06 19.9999 3.47578e-19)
(-5.62374e-06 19.9999 3.64976e-19)
(-5.62347e-06 19.9999 3.51473e-19)
(-5.62279e-06 19.9999 3.39525e-19)
(-5.62163e-06 19.9999 3.50197e-19)
(-5.62001e-06 19.9999 3.36986e-19)
(-5.61795e-06 19.9999 3.16033e-19)
(-5.61547e-06 19.9999 3.44917e-19)
(-5.61253e-06 19.9999 3.02287e-19)
(-5.60928e-06 19.9999 3.18193e-19)
(-5.60568e-06 19.9999 2.7579e-19)
(-5.60185e-06 19.9999 2.60893e-19)
(-5.59784e-06 19.9999 2.35107e-19)
(-5.5936e-06 19.9999 2.35544e-19)
(-5.5897e-06 19.9999 2.65785e-19)
(-5.58576e-06 19.9999 2.7217e-19)
(-5.58239e-06 19.9999 3.25021e-19)
(-5.57863e-06 19.9999 3.04613e-19)
(-5.57491e-06 19.9999 3.35197e-19)
(-5.57144e-06 19.9999 3.15641e-19)
(-5.56865e-06 19.9999 3.24362e-19)
(-5.56579e-06 19.9999 3.28752e-19)
(-5.56239e-06 19.9999 3.47885e-19)
(-5.55877e-06 19.9999 3.46182e-19)
(-5.54488e-06 19.9999 3.66917e-19)
(-5.52685e-06 19.9999 3.53808e-19)
(-5.5134e-06 19.9999 3.39509e-19)
(-5.49944e-06 19.9999 3.58038e-19)
(-5.48625e-06 19.9999 3.36325e-19)
(-5.47532e-06 19.9999 3.33319e-19)
(-5.46614e-06 19.9999 3.49666e-19)
(-5.45824e-06 19.9999 3.35897e-19)
(-5.45153e-06 19.9999 3.69842e-19)
(-5.44594e-06 19.9999 3.33898e-19)
(-5.44134e-06 19.9999 3.53981e-19)
(-5.4376e-06 19.9999 3.27444e-19)
(-5.4346e-06 19.9999 3.32763e-19)
(-5.43223e-06 19.9999 3.31033e-19)
(-5.43042e-06 19.9999 3.43978e-19)
(-5.42906e-06 19.9999 3.45211e-19)
(-5.42809e-06 19.9999 3.52829e-19)
(-5.42745e-06 19.9999 3.74129e-19)
(-5.42707e-06 19.9999 3.34353e-19)
(-5.4269e-06 19.9999 3.1464e-19)
(-5.4269e-06 19.9999 2.99803e-19)
(-5.42703e-06 19.9999 2.97038e-19)
(-5.42727e-06 19.9999 3.06905e-19)
(-5.42757e-06 19.9999 3.22682e-19)
(-5.42793e-06 19.9999 3.38338e-19)
(-5.42831e-06 19.9999 3.51379e-19)
(-5.4287e-06 19.9999 3.60424e-19)
(-5.42909e-06 19.9999 3.66803e-19)
(-5.42947e-06 19.9999 3.71178e-19)
(-5.42982e-06 19.9999 3.74487e-19)
(-5.43014e-06 19.9999 3.76784e-19)
(-5.43042e-06 19.9999 3.7823e-19)
(-5.43067e-06 19.9999 3.78873e-19)
(-5.43086e-06 19.9999 3.79842e-19)
(-5.43101e-06 19.9999 3.80935e-19)
(-5.43111e-06 19.9999 3.81075e-19)
(-5.43116e-06 19.9999 3.809e-19)
(-5.43115e-06 19.9999 3.80951e-19)
(-5.43109e-06 19.9999 3.81399e-19)
(-5.43099e-06 19.9999 3.8176e-19)
(-5.43082e-06 19.9999 3.81779e-19)
(-5.43061e-06 19.9999 3.81748e-19)
(-5.43035e-06 19.9999 3.81505e-19)
(-5.43004e-06 19.9999 3.79496e-19)
(-5.42969e-06 19.9999 3.81289e-19)
(-5.42928e-06 19.9999 3.72132e-19)
(-5.42884e-06 19.9999 3.82905e-19)
(-5.42835e-06 19.9999 3.53631e-19)
(-5.42783e-06 19.9999 3.82305e-19)
(-5.42726e-06 19.9999 3.19301e-19)
(-5.42666e-06 19.9999 3.27784e-19)
(-5.42602e-06 19.9999 2.95859e-19)
(-5.42534e-06 19.9999 2.96767e-19)
(-5.42464e-06 19.9999 3.06902e-19)
(-5.4239e-06 19.9999 3.22146e-19)
(-5.42313e-06 19.9999 3.38603e-19)
(-5.42233e-06 19.9999 3.51318e-19)
(-5.42151e-06 19.9999 3.62811e-19)
(-5.42066e-06 19.9999 3.64305e-19)
(-5.41979e-06 20 3.77372e-19)
(-5.41889e-06 20 3.64846e-19)
(-5.41797e-06 20 3.84703e-19)
(-5.41704e-06 20 3.58896e-19)
(-5.41608e-06 20 3.56267e-19)
(-5.4151e-06 20 3.57038e-19)
(-5.41411e-06 20 3.608e-19)
(-5.4131e-06 20 3.66657e-19)
(-5.41207e-06 20 3.70859e-19)
(-5.41103e-06 20 3.7656e-19)
(-5.40997e-06 20 3.74636e-19)
(-5.4089e-06 20 3.85874e-19)
(-5.40781e-06 20 3.72153e-19)
(-5.40672e-06 20 3.90139e-19)
(-5.40561e-06 20 3.64863e-19)
(-5.4045e-06 20 3.56177e-19)
(-5.40337e-06 20 3.65233e-19)
(-5.40224e-06 20 3.53917e-19)
(-5.40109e-06 20 3.78649e-19)
(-5.39994e-06 20 3.55567e-19)
(-5.39877e-06 20 3.55891e-19)
(-5.3976e-06 20 3.59069e-19)
(-5.39642e-06 20 3.63888e-19)
(-5.39523e-06 20 3.70002e-19)
(-5.39404e-06 20 3.75144e-19)
(-5.39284e-06 20 3.80755e-19)
(-5.39164e-06 20 3.77913e-19)
(-5.39043e-06 20 3.8764e-19)
(-5.38921e-06 20 3.72131e-19)
(-5.38799e-06 20 3.90352e-19)
(-5.38676e-06 20 3.62526e-19)
(-5.38552e-06 20 3.59011e-19)
(-5.38428e-06 20 3.57792e-19)
(-5.38304e-06 20 3.59552e-19)
(-5.38179e-06 20 3.59839e-19)
(-5.38054e-06 20 3.66516e-19)
(-5.37928e-06 20 3.45314e-19)
(-5.37802e-06 20 3.63307e-19)
(-5.37675e-06 20 3.24457e-19)
(-5.37548e-06 20 2.93575e-19)
(-5.3742e-06 20 3.09755e-19)
(-5.37292e-06 20 2.94868e-19)
(-5.37164e-06 20 3.05948e-19)
(-5.37035e-06 20 3.27565e-19)
(-5.36906e-06 20 3.37004e-19)
(-5.36776e-06 20 3.56391e-19)
(-5.36646e-06 20 3.52661e-19)
(-5.36515e-06 20 3.3736e-19)
(-5.36384e-06 20 3.22066e-19)
(-5.36252e-06 20 3.48452e-19)
(-5.3612e-06 20 3.24209e-19)
(-5.35988e-06 20 3.43424e-19)
(-5.35855e-06 20 3.32658e-19)
(-5.35722e-06 20 3.70615e-19)
(-5.35588e-06 20 3.36261e-19)
(-5.35453e-06 20 3.58789e-19)
(-5.35318e-06 20 3.35599e-19)
(-5.35183e-06 20 3.37563e-19)
(-5.35048e-06 20 3.46298e-19)
(-5.34911e-06 20 3.5154e-19)
(-5.34774e-06 20 3.70032e-19)
(-5.34637e-06 20 3.62343e-19)
(-5.34499e-06 20 3.8476e-19)
(-5.34361e-06 20 3.59087e-19)
(-5.34222e-06 20 3.5827e-19)
(-5.34082e-06 20 3.59651e-19)
(-5.33941e-06 20 3.63003e-19)
(-5.33799e-06 20 3.70237e-19)
(-5.33656e-06 20 3.71246e-19)
(-5.33511e-06 20 3.83103e-19)
(-5.33366e-06 20 3.69343e-19)
(-5.33218e-06 20 3.89417e-19)
(-5.33069e-06 20 3.61945e-19)
(-5.32917e-06 20 3.5795e-19)
(-5.32763e-06 20 3.60285e-19)
(-5.32607e-06 20 3.60351e-19)
(-5.32448e-06 20 3.74846e-19)
(-5.32287e-06 20 3.64971e-19)
(-5.32125e-06 20 3.87545e-19)
(-5.31958e-06 20 3.62772e-19)
(-5.31793e-06 20 3.57156e-19)
(-5.31618e-06 20 3.61718e-19)
(-5.3146e-06 20 3.58528e-19)
(-5.31275e-06 20 3.69338e-19)
(-5.31151e-06 20 3.5995e-19)
(-5.30958e-06 20 3.39883e-19)
(-5.30884e-06 20 3.22133e-19)
(-5.3073e-06 20 3.48232e-19)
(-5.30633e-06 20 3.24581e-19)
(-1.6576e-05 19.9999 4.07924e-19)
(-1.65821e-05 19.9999 4.16652e-19)
(-1.65829e-05 19.9999 4.08452e-19)
(-1.6585e-05 19.9999 4.14347e-19)
(-1.6585e-05 19.9999 4.0979e-19)
(-1.65848e-05 19.9999 4.05992e-19)
(-1.65845e-05 19.9999 4.07128e-19)
(-1.65823e-05 19.9999 4.08177e-19)
(-1.65804e-05 19.9999 4.0752e-19)
(-1.65789e-05 19.9999 4.17263e-19)
(-1.6577e-05 19.9999 4.11308e-19)
(-1.65749e-05 19.9999 4.08578e-19)
(-1.65725e-05 19.9999 4.07583e-19)
(-1.65697e-05 19.9999 4.036e-19)
(-1.65666e-05 19.9999 4.13266e-19)
(-1.6563e-05 19.9999 4.08382e-19)
(-1.6559e-05 19.9999 3.98745e-19)
(-1.65544e-05 19.9999 4.03832e-19)
(-1.65495e-05 19.9999 3.9635e-19)
(-1.65441e-05 19.9999 3.81259e-19)
(-1.65383e-05 19.9999 3.91288e-19)
(-1.65322e-05 19.9999 3.65474e-19)
(-1.65257e-05 19.9999 3.64271e-19)
(-1.65191e-05 19.9999 3.29903e-19)
(-1.65123e-05 19.9999 3.2804e-19)
(-1.65053e-05 19.9999 3.12547e-19)
(-1.64986e-05 19.9999 3.27341e-19)
(-1.64919e-05 19.9999 3.27117e-19)
(-1.64859e-05 19.9999 3.59827e-19)
(-1.64796e-05 19.9999 3.58825e-19)
(-1.64737e-05 19.9999 3.59814e-19)
(-1.64679e-05 19.9999 3.71598e-19)
(-1.64635e-05 19.9999 3.76113e-19)
(-1.64591e-05 19.9999 3.76884e-19)
(-1.64556e-05 19.9999 3.94881e-19)
(-1.64533e-05 19.9999 3.88622e-19)
(-1.64382e-05 19.9999 4.07575e-19)
(-1.64183e-05 19.9999 3.9261e-19)
(-1.64036e-05 19.9999 3.86413e-19)
(-1.6388e-05 19.9999 3.79309e-19)
(-1.63721e-05 19.9999 3.92739e-19)
(-1.63584e-05 19.9999 3.86949e-19)
(-1.63467e-05 19.9999 3.99817e-19)
(-1.63363e-05 19.9999 3.87338e-19)
(-1.63271e-05 19.9999 4.05103e-19)
(-1.6319e-05 19.9999 3.89739e-19)
(-1.6312e-05 19.9999 3.80623e-19)
(-1.63059e-05 19.9999 3.84865e-19)
(-1.63005e-05 19.9999 3.86996e-19)
(-1.62958e-05 19.9999 3.7752e-19)
(-1.62916e-05 19.9999 3.98639e-19)
(-1.6288e-05 19.9999 3.71867e-19)
(-1.62847e-05 19.9999 4.04003e-19)
(-1.62818e-05 19.9999 3.32557e-19)
(-1.62791e-05 19.9999 3.35818e-19)
(-1.62767e-05 19.9999 2.81887e-19)
(-1.62744e-05 19.9999 2.39627e-19)
(-1.62722e-05 19.9999 2.84041e-19)
(-1.62702e-05 19.9999 2.52973e-19)
(-1.62683e-05 19.9999 2.84742e-19)
(-1.62664e-05 19.9999 3.03068e-19)
(-1.62645e-05 19.9999 3.54827e-19)
(-1.62626e-05 19.9999 3.40346e-19)
(-1.62608e-05 19.9999 4.12146e-19)
(-1.62589e-05 19.9999 3.43647e-19)
(-1.6257e-05 19.9999 3.72503e-19)
(-1.62551e-05 19.9999 3.41974e-19)
(-1.62531e-05 19.9999 3.15231e-19)
(-1.62511e-05 19.9999 3.62965e-19)
(-1.6249e-05 19.9999 3.2368e-19)
(-1.62469e-05 19.9999 3.41863e-19)
(-1.62448e-05 19.9999 3.47151e-19)
(-1.62425e-05 19.9999 3.81346e-19)
(-1.62403e-05 19.9999 3.67686e-19)
(-1.6238e-05 19.9999 4.15979e-19)
(-1.62356e-05 19.9999 3.74696e-19)
(-1.62332e-05 19.9999 3.6395e-19)
(-1.62307e-05 19.9999 3.85485e-19)
(-1.62282e-05 19.9999 3.62287e-19)
(-1.62256e-05 19.9999 4.09383e-19)
(-1.6223e-05 19.9999 3.63993e-19)
(-1.62203e-05 19.9999 3.63643e-19)
(-1.62176e-05 19.9999 3.64873e-19)
(-1.62149e-05 19.9999 3.69294e-19)
(-1.62121e-05 19.9999 3.76981e-19)
(-1.62092e-05 19.9999 3.81013e-19)
(-1.62064e-05 19.9999 3.77687e-19)
(-1.62035e-05 19.9999 3.86481e-19)
(-1.62005e-05 19.9999 3.8163e-19)
(-1.61975e-05 19.9999 3.81869e-19)
(-1.61945e-05 19.9999 3.84361e-19)
(-1.61915e-05 19.9999 3.95182e-19)
(-1.61884e-05 19.9999 3.92382e-19)
(-1.61853e-05 19.9999 4.16886e-19)
(-1.61821e-05 20 3.89988e-19)
(-1.6179e-05 20 4.30251e-19)
(-1.61758e-05 20 3.76641e-19)
(-1.61726e-05 20 3.68056e-19)
(-1.61693e-05 20 3.77444e-19)
(-1.61661e-05 20 3.78827e-19)
(-1.61628e-05 20 3.87214e-19)
(-1.61595e-05 20 3.95245e-19)
(-1.61562e-05 20 4.07488e-19)
(-1.61529e-05 20 4.03349e-19)
(-1.61495e-05 20 4.25171e-19)
(-1.61462e-05 20 3.97131e-19)
(-1.61428e-05 20 4.34929e-19)
(-1.61394e-05 20 3.85047e-19)
(-1.6136e-05 20 3.65684e-19)
(-1.61326e-05 20 3.92783e-19)
(-1.61291e-05 20 3.6105e-19)
(-1.61257e-05 20 4.05463e-19)
(-1.61222e-05 20 3.58782e-19)
(-1.61188e-05 20 3.58171e-19)
(-1.61153e-05 20 3.7289e-19)
(-1.61118e-05 20 3.77305e-19)
(-1.61083e-05 20 3.88464e-19)
(-1.61048e-05 20 3.97708e-19)
(-1.61012e-05 20 4.10011e-19)
(-1.60977e-05 20 4.07355e-19)
(-1.60942e-05 20 4.29637e-19)
(-1.60906e-05 20 4.00077e-19)
(-1.60871e-05 20 4.38225e-19)
(-1.60835e-05 20 3.8243e-19)
(-1.60799e-05 20 3.7198e-19)
(-1.60763e-05 20 3.80233e-19)
(-1.60728e-05 20 3.80544e-19)
(-1.60692e-05 20 3.88006e-19)
(-1.60656e-05 20 3.9147e-19)
(-1.60619e-05 20 4.0189e-19)
(-1.60583e-05 20 3.94773e-19)
(-1.60547e-05 20 3.92434e-19)
(-1.60511e-05 20 3.72265e-19)
(-1.60474e-05 20 3.38044e-19)
(-1.60438e-05 20 3.08649e-19)
(-1.60401e-05 20 3.20433e-19)
(-1.60365e-05 20 3.16079e-19)
(-1.60328e-05 20 3.65783e-19)
(-1.60291e-05 20 3.36984e-19)
(-1.60255e-05 20 3.31156e-19)
(-1.60218e-05 20 3.58693e-19)
(-1.60181e-05 20 3.50603e-19)
(-1.60144e-05 20 3.66608e-19)
(-1.60107e-05 20 3.69323e-19)
(-1.60069e-05 20 3.76135e-19)
(-1.60032e-05 20 3.88525e-19)
(-1.59995e-05 20 4.02384e-19)
(-1.59958e-05 20 3.89943e-19)
(-1.5992e-05 20 4.11236e-19)
(-1.59883e-05 20 3.94026e-19)
(-1.59845e-05 20 3.8826e-19)
(-1.59807e-05 20 3.86128e-19)
(-1.5977e-05 20 4.02232e-19)
(-1.59732e-05 20 3.75365e-19)
(-1.59694e-05 20 4.18799e-19)
(-1.59656e-05 20 3.69041e-19)
(-1.59618e-05 20 3.67288e-19)
(-1.59579e-05 20 3.66194e-19)
(-1.59541e-05 20 3.81901e-19)
(-1.59503e-05 20 3.93991e-19)
(-1.59464e-05 20 3.9277e-19)
(-1.59426e-05 20 4.16684e-19)
(-1.59387e-05 20 3.90651e-19)
(-1.59348e-05 20 4.32264e-19)
(-1.59309e-05 20 3.7786e-19)
(-1.5927e-05 20 3.69615e-19)
(-1.5923e-05 20 3.71667e-19)
(-1.5919e-05 20 3.79539e-19)
(-1.5915e-05 20 4.02123e-19)
(-1.5911e-05 20 3.79149e-19)
(-1.5907e-05 20 4.21115e-19)
(-1.59029e-05 20 3.7411e-19)
(-1.58988e-05 20 3.62748e-19)
(-1.58947e-05 20 3.79124e-19)
(-1.58905e-05 20 3.68189e-19)
(-1.58864e-05 20 4.07372e-19)
(-1.58822e-05 20 3.648e-19)
(-1.58781e-05 20 3.48574e-19)
(-1.58738e-05 20 3.68706e-19)
(-1.587e-05 20 3.55979e-19)
(-1.58658e-05 20 3.67624e-19)
(-1.58623e-05 20 3.68679e-19)
(-1.5859e-05 20 3.74505e-19)
(-1.58564e-05 20 3.88142e-19)
(-2.7557e-05 19.9999 4.60742e-19)
(-2.75562e-05 19.9999 4.52489e-19)
(-2.75553e-05 19.9999 4.57513e-19)
(-2.75546e-05 19.9999 4.55674e-19)
(-2.75527e-05 19.9999 4.53758e-19)
(-2.755e-05 19.9999 4.48148e-19)
(-2.75451e-05 19.9999 4.50243e-19)
(-2.75408e-05 19.9999 4.43802e-19)
(-2.75367e-05 19.9999 4.49244e-19)
(-2.7532e-05 19.9999 4.49404e-19)
(-2.75271e-05 19.9999 4.45379e-19)
(-2.75219e-05 19.9999 4.48125e-19)
(-2.75162e-05 19.9999 4.41382e-19)
(-2.75103e-05 19.9999 4.44315e-19)
(-2.75038e-05 19.9999 4.46838e-19)
(-2.74969e-05 19.9999 4.39144e-19)
(-2.74895e-05 19.9999 4.35189e-19)
(-2.74816e-05 19.9999 4.42382e-19)
(-2.74734e-05 19.9999 4.13668e-19)
(-2.74647e-05 19.9999 4.38271e-19)
(-2.74557e-05 19.9999 3.92084e-19)
(-2.74464e-05 19.9999 4.26963e-19)
(-2.74369e-05 19.9999 3.9534e-19)
(-2.74273e-05 19.9999 3.87162e-19)
(-2.74175e-05 19.9999 3.71418e-19)
(-2.74081e-05 19.9999 3.75437e-19)
(-2.73987e-05 19.9999 3.74422e-19)
(-2.739e-05 19.9999 3.8986e-19)
(-2.73812e-05 19.9999 3.97261e-19)
(-2.73731e-05 19.9999 3.92505e-19)
(-2.73651e-05 19.9999 4.01715e-19)
(-2.73588e-05 19.9999 4.09313e-19)
(-2.73531e-05 19.9999 4.13501e-19)
(-2.73487e-05 19.9999 4.28153e-19)
(-2.73457e-05 19.9999 4.24362e-19)
(-2.73301e-05 19.9999 4.36859e-19)
(-2.73088e-05 19.9999 4.2442e-19)
(-2.72925e-05 19.9999 4.21756e-19)
(-2.72755e-05 19.9999 4.1109e-19)
(-2.72573e-05 19.9999 4.21684e-19)
(-2.72411e-05 19.9999 4.2223e-19)
(-2.72269e-05 19.9999 4.33146e-19)
(-2.72141e-05 19.9999 4.27868e-19)
(-2.72025e-05 19.9999 4.32647e-19)
(-2.7192e-05 19.9999 4.28183e-19)
(-2.71826e-05 19.9999 4.14566e-19)
(-2.71741e-05 19.9999 4.16846e-19)
(-2.71664e-05 19.9999 4.21732e-19)
(-2.71593e-05 19.9999 4.14701e-19)
(-2.71529e-05 19.9999 4.34667e-19)
(-2.71469e-05 19.9999 4.01185e-19)
(-2.71413e-05 19.9999 4.33649e-19)
(-2.71361e-05 19.9999 3.60571e-19)
(-2.71312e-05 19.9999 3.55998e-19)
(-2.71265e-05 19.9999 3.10588e-19)
(-2.71219e-05 19.9999 2.5462e-19)
(-2.71175e-05 19.9999 2.85328e-19)
(-2.71132e-05 19.9999 2.70314e-19)
(-2.7109e-05 19.9999 2.94898e-19)
(-2.71048e-05 19.9999 3.08281e-19)
(-2.71007e-05 19.9999 3.63859e-19)
(-2.70966e-05 19.9999 3.51496e-19)
(-2.70925e-05 19.9999 4.21733e-19)
(-2.70884e-05 19.9999 3.73547e-19)
(-2.70842e-05 19.9999 3.84335e-19)
(-2.708e-05 19.9999 3.65168e-19)
(-2.70758e-05 19.9999 3.24493e-19)
(-2.70715e-05 19.9999 3.58593e-19)
(-2.70672e-05 19.9999 3.37021e-19)
(-2.70628e-05 19.9999 3.49678e-19)
(-2.70584e-05 19.9999 3.51494e-19)
(-2.7054e-05 19.9999 3.88812e-19)
(-2.70495e-05 19.9999 3.79494e-19)
(-2.70449e-05 19.9999 4.25339e-19)
(-2.70403e-05 19.9999 4.05382e-19)
(-2.70356e-05 19.9999 3.846e-19)
(-2.70308e-05 19.9999 4.01641e-19)
(-2.70261e-05 19.9999 3.75989e-19)
(-2.70212e-05 19.9999 4.19081e-19)
(-2.70164e-05 19.9999 3.91629e-19)
(-2.70114e-05 19.9999 3.89919e-19)
(-2.70064e-05 19.9999 3.72602e-19)
(-2.70014e-05 19.9999 3.98543e-19)
(-2.69964e-05 19.9999 3.80751e-19)
(-2.69913e-05 19.9999 4.35055e-19)
(-2.69861e-05 19.9999 4.33804e-19)
(-2.69809e-05 19.9999 4.43764e-19)
(-2.69757e-05 19.9999 4.41535e-19)
(-2.69704e-05 19.9999 4.38107e-19)
(-2.69651e-05 19.9999 4.33517e-19)
(-2.69598e-05 19.9999 4.37887e-19)
(-2.69544e-05 19.9999 4.29029e-19)
(-2.69491e-05 19.9999 4.50717e-19)
(-2.69436e-05 20 4.23368e-19)
(-2.69382e-05 20 4.51527e-19)
(-2.69327e-05 20 4.18822e-19)
(-2.69272e-05 20 3.9475e-19)
(-2.69217e-05 20 3.95286e-19)
(-2.69161e-05 20 4.00021e-19)
(-2.69106e-05 20 4.13335e-19)
(-2.6905e-05 20 4.24209e-19)
(-2.68994e-05 20 4.37971e-19)
(-2.68937e-05 20 4.32657e-19)
(-2.68881e-05 20 4.54175e-19)
(-2.68824e-05 20 4.27157e-19)
(-2.68767e-05 20 4.53343e-19)
(-2.6871e-05 20 4.25327e-19)
(-2.68653e-05 20 3.89835e-19)
(-2.68595e-05 20 4.08447e-19)
(-2.68538e-05 20 3.81472e-19)
(-2.6848e-05 20 4.19423e-19)
(-2.68422e-05 20 3.98333e-19)
(-2.68364e-05 20 3.83275e-19)
(-2.68306e-05 20 3.89804e-19)
(-2.68248e-05 20 3.97378e-19)
(-2.6819e-05 20 4.13775e-19)
(-2.68131e-05 20 4.26217e-19)
(-2.68073e-05 20 4.39624e-19)
(-2.68014e-05 20 4.36369e-19)
(-2.67955e-05 20 4.5875e-19)
(-2.67896e-05 20 4.30146e-19)
(-2.67837e-05 20 4.57223e-19)
(-2.67778e-05 20 4.22646e-19)
(-2.67719e-05 20 3.97046e-19)
(-2.67659e-05 20 3.97389e-19)
(-2.676e-05 20 4.00865e-19)
(-2.67541e-05 20 4.14415e-19)
(-2.67481e-05 20 4.17546e-19)
(-2.67421e-05 20 4.35394e-19)
(-2.67361e-05 20 4.16968e-19)
(-2.67301e-05 20 4.25413e-19)
(-2.67241e-05 20 3.9219e-19)
(-2.67181e-05 20 3.56279e-19)
(-2.67121e-05 20 3.2794e-19)
(-2.67061e-05 20 3.37277e-19)
(-2.67e-05 20 3.32819e-19)
(-2.6694e-05 20 3.84612e-19)
(-2.66879e-05 20 3.76301e-19)
(-2.66819e-05 20 3.60911e-19)
(-2.66758e-05 20 3.7725e-19)
(-2.66697e-05 20 3.72176e-19)
(-2.66636e-05 20 3.84571e-19)
(-2.66575e-05 20 4.00841e-19)
(-2.66514e-05 20 4.07767e-19)
(-2.66453e-05 20 4.2243e-19)
(-2.66391e-05 20 4.36515e-19)
(-2.6633e-05 20 4.3214e-19)
(-2.66268e-05 20 4.41223e-19)
(-2.66207e-05 20 4.34088e-19)
(-2.66145e-05 20 4.2274e-19)
(-2.66083e-05 20 4.16492e-19)
(-2.66021e-05 20 4.38068e-19)
(-2.65959e-05 20 4.10627e-19)
(-2.65897e-05 20 4.47758e-19)
(-2.65834e-05 20 4.08662e-19)
(-2.65772e-05 20 3.97891e-19)
(-2.65709e-05 20 3.83473e-19)
(-2.65646e-05 20 3.96174e-19)
(-2.65584e-05 20 4.16928e-19)
(-2.65521e-05 20 4.20444e-19)
(-2.65457e-05 20 4.48611e-19)
(-2.65394e-05 20 4.20302e-19)
(-2.6533e-05 20 4.5619e-19)
(-2.65267e-05 20 4.133e-19)
(-2.65203e-05 20 3.96946e-19)
(-2.65139e-05 20 3.87942e-19)
(-2.65074e-05 20 3.92057e-19)
(-2.65009e-05 20 4.24462e-19)
(-2.64944e-05 20 4.05831e-19)
(-2.64879e-05 20 4.45374e-19)
(-2.64813e-05 20 4.11076e-19)
(-2.64747e-05 20 3.90447e-19)
(-2.64681e-05 20 3.95501e-19)
(-2.64615e-05 20 3.80418e-19)
(-2.64548e-05 20 4.21691e-19)
(-2.64482e-05 20 4.00756e-19)
(-2.64416e-05 20 3.75597e-19)
(-2.64349e-05 20 3.8474e-19)
(-2.64285e-05 20 3.75582e-19)
(-2.64221e-05 20 3.85003e-19)
(-2.64159e-05 20 3.99509e-19)
(-2.64105e-05 20 4.05309e-19)
(-2.64055e-05 20 4.20794e-19)
(-3.85316e-05 19.9999 4.60444e-19)
(-3.8528e-05 19.9999 4.6196e-19)
(-3.85239e-05 19.9999 4.61532e-19)
(-3.85209e-05 19.9999 4.6007e-19)
(-3.8516e-05 19.9999 4.54308e-19)
(-3.85086e-05 19.9999 4.54687e-19)
(-3.85018e-05 19.9999 4.49009e-19)
(-3.8495e-05 19.9999 4.49814e-19)
(-3.84876e-05 19.9999 4.50904e-19)
(-3.848e-05 19.9999 4.48128e-19)
(-3.84719e-05 19.9999 4.50756e-19)
(-3.84634e-05 19.9999 4.45959e-19)
(-3.84546e-05 19.9999 4.44566e-19)
(-3.84452e-05 19.9999 4.47214e-19)
(-3.84353e-05 19.9999 4.42722e-19)
(-3.8425e-05 19.9999 4.35664e-19)
(-3.84143e-05 19.9999 4.42596e-19)
(-3.84032e-05 19.9999 4.19812e-19)
(-3.83916e-05 19.9999 4.32645e-19)
(-3.83797e-05 19.9999 4.05684e-19)
(-3.83676e-05 19.9999 4.04871e-19)
(-3.83552e-05 19.9999 3.90418e-19)
(-3.83428e-05 19.9999 3.86097e-19)
(-3.83303e-05 19.9999 3.7701e-19)
(-3.83181e-05 19.9999 3.78794e-19)
(-3.83061e-05 19.9999 3.80424e-19)
(-3.82947e-05 19.9999 3.8963e-19)
(-3.82834e-05 19.9999 3.98616e-19)
(-3.82731e-05 19.9999 3.96347e-19)
(-3.8263e-05 19.9999 4.02645e-19)
(-3.82549e-05 19.9999 4.09792e-19)
(-3.82478e-05 19.9999 4.16111e-19)
(-3.82418e-05 19.9999 4.2704e-19)
(-3.8237e-05 19.9999 4.27082e-19)
(-3.82207e-05 19.9999 4.34305e-19)
(-3.81984e-05 19.9999 4.26146e-19)
(-3.81804e-05 19.9999 4.23349e-19)
(-3.81619e-05 19.9999 4.16099e-19)
(-3.81419e-05 19.9999 4.21682e-19)
(-3.81233e-05 19.9999 4.24559e-19)
(-3.81067e-05 19.9999 4.32842e-19)
(-3.80916e-05 19.9999 4.32465e-19)
(-3.80776e-05 19.9999 4.31871e-19)
(-3.80648e-05 19.9999 4.30214e-19)
(-3.80531e-05 19.9999 4.19687e-19)
(-3.80422e-05 19.9999 4.19053e-19)
(-3.80322e-05 19.9999 4.22663e-19)
(-3.80228e-05 19.9999 4.19274e-19)
(-3.80141e-05 19.9999 4.31818e-19)
(-3.80058e-05 19.9999 4.07393e-19)
(-3.7998e-05 19.9999 4.20568e-19)
(-3.79905e-05 19.9999 3.76267e-19)
(-3.79833e-05 19.9999 3.38256e-19)
(-3.79763e-05 19.9999 3.05631e-19)
(-3.79695e-05 19.9999 2.61775e-19)
(-3.79628e-05 19.9999 2.76934e-19)
(-3.79563e-05 19.9999 2.74893e-19)
(-3.79498e-05 19.9999 2.95621e-19)
(-3.79434e-05 19.9999 3.09268e-19)
(-3.7937e-05 19.9999 3.54746e-19)
(-3.79306e-05 19.9999 3.52787e-19)
(-3.79243e-05 19.9999 4.03512e-19)
(-3.79179e-05 19.9999 3.78488e-19)
(-3.79115e-05 19.9999 3.78346e-19)
(-3.7905e-05 19.9999 3.65912e-19)
(-3.78986e-05 19.9999 3.3236e-19)
(-3.7892e-05 19.9999 3.48227e-19)
(-3.78855e-05 19.9999 3.38909e-19)
(-3.78789e-05 19.9999 3.48155e-19)
(-3.78722e-05 19.9999 3.50721e-19)
(-3.78655e-05 19.9999 3.79129e-19)
(-3.78587e-05 19.9999 3.78515e-19)
(-3.78519e-05 19.9999 4.10807e-19)
(-3.7845e-05 19.9999 4.0532e-19)
(-3.7838e-05 19.9999 3.88685e-19)
(-3.7831e-05 19.9999 3.97688e-19)
(-3.7824e-05 19.9999 3.79365e-19)
(-3.78169e-05 19.9999 4.07269e-19)
(-3.78098e-05 19.9999 3.94506e-19)
(-3.78026e-05 19.9999 3.93864e-19)
(-3.77953e-05 19.9999 3.75532e-19)
(-3.7788e-05 19.9999 3.96771e-19)
(-3.77807e-05 19.9999 3.9121e-19)
(-3.77733e-05 19.9999 4.15366e-19)
(-3.77659e-05 19.9999 4.2983e-19)
(-3.77584e-05 19.9999 4.46104e-19)
(-3.77509e-05 19.9999 4.49963e-19)
(-3.77434e-05 19.9999 4.47634e-19)
(-3.77358e-05 19.9999 4.42614e-19)
(-3.77282e-05 19.9999 4.43217e-19)
(-3.77206e-05 19.9999 4.35418e-19)
(-3.77129e-05 20 4.48915e-19)
(-3.77052e-05 20 4.29918e-19)
(-3.76974e-05 20 4.43311e-19)
(-3.76897e-05 20 4.24556e-19)
(-3.76819e-05 20 4.02253e-19)
(-3.76741e-05 20 3.96897e-19)
(-3.76662e-05 20 4.00372e-19)
(-3.76583e-05 20 4.13225e-19)
(-3.76505e-05 20 4.24278e-19)
(-3.76425e-05 20 4.36504e-19)
(-3.76346e-05 20 4.34003e-19)
(-3.76266e-05 20 4.48695e-19)
(-3.76187e-05 20 4.30897e-19)
(-3.76107e-05 20 4.43074e-19)
(-3.76026e-05 20 4.28043e-19)
(-3.75946e-05 20 3.97784e-19)
(-3.75865e-05 20 4.04181e-19)
(-3.75785e-05 20 3.85609e-19)
(-3.75704e-05 20 4.09134e-19)
(-3.75623e-05 20 4.02934e-19)
(-3.75542e-05 20 3.89598e-19)
(-3.7546e-05 20 3.90441e-19)
(-3.75379e-05 20 3.96599e-19)
(-3.75297e-05 20 4.12384e-19)
(-3.75215e-05 20 4.25833e-19)
(-3.75133e-05 20 4.37309e-19)
(-3.75051e-05 20 4.37076e-19)
(-3.74969e-05 20 4.52725e-19)
(-3.74887e-05 20 4.33864e-19)
(-3.74804e-05 20 4.46931e-19)
(-3.74721e-05 20 4.26732e-19)
(-3.74639e-05 20 4.03796e-19)
(-3.74556e-05 20 3.98483e-19)
(-3.74473e-05 20 4.00835e-19)
(-3.7439e-05 20 4.13762e-19)
(-3.74307e-05 20 4.16625e-19)
(-3.74223e-05 20 4.34371e-19)
(-3.7414e-05 20 4.1369e-19)
(-3.74056e-05 20 4.25743e-19)
(-3.73972e-05 20 3.81684e-19)
(-3.73889e-05 20 3.51905e-19)
(-3.73805e-05 20 3.2846e-19)
(-3.73721e-05 20 3.34883e-19)
(-3.73636e-05 20 3.34915e-19)
(-3.73552e-05 20 3.74498e-19)
(-3.73468e-05 20 3.79785e-19)
(-3.73383e-05 20 3.69042e-19)
(-3.73299e-05 20 3.77596e-19)
(-3.73214e-05 20 3.75994e-19)
(-3.73129e-05 20 3.84066e-19)
(-3.73044e-05 20 4.01539e-19)
(-3.72959e-05 20 4.10888e-19)
(-3.72873e-05 20 4.23852e-19)
(-3.72788e-05 20 4.35149e-19)
(-3.72702e-05 20 4.35966e-19)
(-3.72617e-05 20 4.40323e-19)
(-3.72531e-05 20 4.36466e-19)
(-3.72445e-05 20 4.26874e-19)
(-3.72359e-05 20 4.19949e-19)
(-3.72273e-05 20 4.35546e-19)
(-3.72186e-05 20 4.17656e-19)
(-3.721e-05 20 4.39872e-19)
(-3.72013e-05 20 4.15744e-19)
(-3.71926e-05 20 4.03126e-19)
(-3.71839e-05 20 3.87889e-19)
(-3.71752e-05 20 3.94757e-19)
(-3.71665e-05 20 4.13601e-19)
(-3.71577e-05 20 4.20077e-19)
(-3.71489e-05 20 4.43108e-19)
(-3.71401e-05 20 4.24239e-19)
(-3.71313e-05 20 4.45901e-19)
(-3.71225e-05 20 4.18141e-19)
(-3.71136e-05 20 4.0084e-19)
(-3.71047e-05 20 3.90451e-19)
(-3.70958e-05 20 3.90884e-19)
(-3.70868e-05 20 4.16851e-19)
(-3.70779e-05 20 4.07855e-19)
(-3.70688e-05 20 4.34431e-19)
(-3.70598e-05 20 4.14295e-19)
(-3.70507e-05 20 3.95519e-19)
(-3.70416e-05 20 3.94046e-19)
(-3.70325e-05 20 3.8105e-19)
(-3.70234e-05 20 4.09216e-19)
(-3.70142e-05 20 4.02043e-19)
(-3.70051e-05 20 3.8151e-19)
(-3.69961e-05 20 3.82862e-19)
(-3.69871e-05 20 3.7774e-19)
(-3.69784e-05 20 3.83895e-19)
(-3.69697e-05 20 3.99167e-19)
(-3.6962e-05 20 4.07548e-19)
(-3.69547e-05 20 4.20601e-19)
(-4.95011e-05 19.9999 3.8716e-19)
(-4.94927e-05 19.9999 3.84905e-19)
(-4.94898e-05 19.9999 3.83959e-19)
(-4.94826e-05 19.9999 3.79438e-19)
(-4.94726e-05 19.9999 3.78803e-19)
(-4.94635e-05 19.9999 3.73797e-19)
(-4.94541e-05 19.9999 3.72614e-19)
(-4.94438e-05 19.9999 3.72886e-19)
(-4.94335e-05 19.9999 3.70582e-19)
(-4.94226e-05 19.9999 3.71493e-19)
(-4.94112e-05 19.9999 3.68353e-19)
(-4.93995e-05 19.9999 3.66649e-19)
(-4.93873e-05 19.9999 3.6685e-19)
(-4.93744e-05 19.9999 3.6474e-19)
(-4.93612e-05 19.9999 3.58709e-19)
(-4.93476e-05 19.9999 3.62435e-19)
(-4.93336e-05 19.9999 3.43102e-19)
(-4.93191e-05 19.9999 3.5111e-19)
(-4.93043e-05 19.9999 3.25675e-19)
(-4.92893e-05 19.9999 3.27447e-19)
(-4.92741e-05 19.9999 3.13281e-19)
(-4.92589e-05 19.9999 3.04973e-19)
(-4.92436e-05 19.9999 2.97504e-19)
(-4.92287e-05 19.9999 2.98765e-19)
(-4.9214e-05 19.9999 3.0248e-19)
(-4.92e-05 19.9999 3.10833e-19)
(-4.91862e-05 19.9999 3.19046e-19)
(-4.91736e-05 19.9999 3.20417e-19)
(-4.91614e-05 19.9999 3.25496e-19)
(-4.91513e-05 19.9999 3.32406e-19)
(-4.91425e-05 19.9999 3.38679e-19)
(-4.91346e-05 19.9999 3.47391e-19)
(-4.91276e-05 19.9999 3.47944e-19)
(-4.91104e-05 19.9999 3.52922e-19)
(-4.90872e-05 19.9999 3.47737e-19)
(-4.90675e-05 19.9999 3.46247e-19)
(-4.90476e-05 19.9999 3.41041e-19)
(-4.90259e-05 19.9999 3.44115e-19)
(-4.9005e-05 19.9999 3.48117e-19)
(-4.89862e-05 19.9999 3.54727e-19)
(-4.89689e-05 19.9999 3.5573e-19)
(-4.89526e-05 19.9999 3.5584e-19)
(-4.89375e-05 19.9999 3.5322e-19)
(-4.89235e-05 19.9999 3.45035e-19)
(-4.89103e-05 19.9999 3.42614e-19)
(-4.8898e-05 19.9999 3.44113e-19)
(-4.88864e-05 19.9999 3.41934e-19)
(-4.88753e-05 19.9999 3.49641e-19)
(-4.88648e-05 19.9999 3.32126e-19)
(-4.88547e-05 19.9999 3.36983e-19)
(-4.88449e-05 19.9999 2.98547e-19)
(-4.88355e-05 19.9999 2.71187e-19)
(-4.88262e-05 19.9999 2.3942e-19)
(-4.88172e-05 19.9999 2.0259e-19)
(-4.88082e-05 19.9999 2.06199e-19)
(-4.87994e-05 19.9999 2.07913e-19)
(-4.87907e-05 19.9999 2.24534e-19)
(-4.8782e-05 19.9999 2.39231e-19)
(-4.87734e-05 19.9999 2.73085e-19)
(-4.87648e-05 19.9999 2.80594e-19)
(-4.87561e-05 19.9999 3.14128e-19)
(-4.87475e-05 19.9999 3.03232e-19)
(-4.87388e-05 19.9999 2.99398e-19)
(-4.87301e-05 19.9999 2.88402e-19)
(-4.87214e-05 19.9999 2.64516e-19)
(-4.87126e-05 19.9999 2.70902e-19)
(-4.87038e-05 19.9999 2.67003e-19)
(-4.86949e-05 19.9999 2.72836e-19)
(-4.8686e-05 19.9999 2.76986e-19)
(-4.8677e-05 19.9999 2.98815e-19)
(-4.8668e-05 19.9999 3.03385e-19)
(-4.86589e-05 19.9999 3.25137e-19)
(-4.86498e-05 19.9999 3.25451e-19)
(-4.86406e-05 19.9999 3.14614e-19)
(-4.86313e-05 19.9999 3.18043e-19)
(-4.8622e-05 19.9999 3.07643e-19)
(-4.86126e-05 19.9999 3.24877e-19)
(-4.86032e-05 19.9999 3.18501e-19)
(-4.85938e-05 19.9999 3.20355e-19)
(-4.85843e-05 19.9999 3.04743e-19)
(-4.85747e-05 19.9999 3.26219e-19)
(-4.85651e-05 19.9999 3.17143e-19)
(-4.85554e-05 19.9999 3.45438e-19)
(-4.85457e-05 19.9999 3.59878e-19)
(-4.8536e-05 19.9999 3.72304e-19)
(-4.85262e-05 19.9999 3.75463e-19)
(-4.85164e-05 19.9999 3.73225e-19)
(-4.85066e-05 19.9999 3.69122e-19)
(-4.84967e-05 19.9999 3.68106e-19)
(-4.84867e-05 20 3.62293e-19)
(-4.84768e-05 20 3.68893e-19)
(-4.84668e-05 20 3.56609e-19)
(-4.84568e-05 20 3.60267e-19)
(-4.84467e-05 20 3.4779e-19)
(-4.84366e-05 20 3.30375e-19)
(-4.84265e-05 20 3.23695e-19)
(-4.84164e-05 20 3.26379e-19)
(-4.84062e-05 20 3.36206e-19)
(-4.8396e-05 20 3.46107e-19)
(-4.83858e-05 20 3.55776e-19)
(-4.83755e-05 20 3.56766e-19)
(-4.83653e-05 20 3.66426e-19)
(-4.8355e-05 20 3.55563e-19)
(-4.83447e-05 20 3.59091e-19)
(-4.83343e-05 20 3.48085e-19)
(-4.8324e-05 20 3.25464e-19)
(-4.83136e-05 20 3.25082e-19)
(-4.83032e-05 20 3.14652e-19)
(-4.82928e-05 20 3.2793e-19)
(-4.82824e-05 20 3.25453e-19)
(-4.82719e-05 20 3.16567e-19)
(-4.82615e-05 20 3.15821e-19)
(-4.8251e-05 20 3.22178e-19)
(-4.82405e-05 20 3.3474e-19)
(-4.823e-05 20 3.46288e-19)
(-4.82194e-05 20 3.57414e-19)
(-4.82089e-05 20 3.58537e-19)
(-4.81983e-05 20 3.68228e-19)
(-4.81877e-05 20 3.57143e-19)
(-4.81772e-05 20 3.62132e-19)
(-4.81665e-05 20 3.50052e-19)
(-4.81559e-05 20 3.32191e-19)
(-4.81453e-05 20 3.24757e-19)
(-4.81346e-05 20 3.262e-19)
(-4.8124e-05 20 3.35693e-19)
(-4.81133e-05 20 3.41466e-19)
(-4.81026e-05 20 3.49395e-19)
(-4.80919e-05 20 3.4099e-19)
(-4.80811e-05 20 3.34953e-19)
(-4.80704e-05 20 3.15983e-19)
(-4.80596e-05 20 2.88347e-19)
(-4.80489e-05 20 2.66412e-19)
(-4.80381e-05 20 2.66602e-19)
(-4.80273e-05 20 2.67659e-19)
(-4.80165e-05 20 2.94241e-19)
(-4.80057e-05 20 3.03054e-19)
(-4.79948e-05 20 2.98293e-19)
(-4.7984e-05 20 3.02929e-19)
(-4.79731e-05 20 3.03591e-19)
(-4.79622e-05 20 3.1104e-19)
(-4.79513e-05 20 3.24885e-19)
(-4.79404e-05 20 3.34613e-19)
(-4.79295e-05 20 3.45836e-19)
(-4.79185e-05 20 3.56133e-19)
(-4.79075e-05 20 3.58944e-19)
(-4.78966e-05 20 3.60992e-19)
(-4.78856e-05 20 3.58514e-19)
(-4.78746e-05 20 3.51309e-19)
(-4.78635e-05 20 3.4511e-19)
(-4.78525e-05 20 3.54452e-19)
(-4.78414e-05 20 3.44431e-19)
(-4.78303e-05 20 3.55826e-19)
(-4.78192e-05 20 3.40546e-19)
(-4.78081e-05 20 3.28649e-19)
(-4.7797e-05 20 3.17822e-19)
(-4.77858e-05 20 3.21144e-19)
(-4.77746e-05 20 3.3413e-19)
(-4.77634e-05 20 3.42261e-19)
(-4.77522e-05 20 3.5845e-19)
(-4.7741e-05 20 3.48995e-19)
(-4.77297e-05 20 3.58316e-19)
(-4.77184e-05 20 3.41112e-19)
(-4.7707e-05 20 3.27029e-19)
(-4.76957e-05 20 3.16763e-19)
(-4.76843e-05 20 3.16473e-19)
(-4.76728e-05 20 3.3414e-19)
(-4.76614e-05 20 3.31692e-19)