/*--------------------------------*- C++ -*----------------------------------*\
| =========                 |                                                 |
| \\      /  F ield         | OpenFOAM: The Open Source CFD Toolbox           |
|  \\    /   O peration     | Version:  2512                                  |
|   \\  /    A nd           | Website:  www.openfoam.com                      |
|    \\/     M anipulation  |                                                 |
\*---------------------------------------------------------------------------*/
FoamFile
{
    version     2.0;
    format      ascii;
    arch        "LSB;label=32;scalar=64";
    class       volScalarField;
    location    "0.1";
    object      p;
}
// * * * * * * * * * * * * * * * * * * * * * * * * * * * * * * * * * * * * * //

dimensions      [1 -1 -2 0 0 0 0];

internalField   nonuniform List<scalar> 
8334
(
-230.875
-231.105
-231.336
-231.569
-231.804
-232.04
-232.278
-232.517
-232.758
-233
-233.244
-233.489
-233.736
-233.984
-234.234
-234.486
-234.739
-234.993
-235.249
-235.506
-235.765
-236.026
-236.288
-236.551
-236.816
-237.083
-237.351
-237.621
-237.892
-238.164
-238.438
-238.714
-238.991
-239.27
-239.55
-239.832
-240.116
-240.401
-240.687
-240.975
-241.264
-241.555
-241.847
-242.141
-242.436
-242.732
-243.03
-243.329
-243.63
-243.932
-244.236
-244.541
-244.847
-245.155
-245.464
-245.775
-246.088
-246.401
-246.716
-247.033
-247.351
-247.67
-247.991
-248.313
-248.637
-248.962
-249.289
-249.617
-249.947
-250.277
-250.61
-250.944
-251.279
-251.615
-251.953
-252.293
-252.634
-252.976
-253.32
-253.665
-254.012
-254.36
-254.71
-255.06
-255.413
-255.767
-256.122
-256.478
-256.836
-257.196
-257.557
-257.919
-258.283
-258.648
-259.015
-259.383
-259.752
-260.123
-260.495
-260.869
-261.244
-261.621
-261.998
-262.378
-262.759
-263.141
-263.524
-263.909
-264.296
-264.684
-265.073
-265.463
-265.856
-266.249
-266.644
-267.04
-267.438
-267.837
-268.237
-268.639
-269.043
-269.447
-269.853
-270.261
-270.67
-271.08
-271.492
-271.905
-272.319
-272.735
-273.153
-273.571
-273.991
-274.413
-274.836
-275.26
-275.685
-276.113
-276.541
-276.971
-277.402
-277.834
-278.268
-278.704
-279.14
-279.579
-280.018
-280.459
-280.901
-281.345
-281.79
-282.236
-282.684
-283.133
-283.583
-284.035
-284.488
-284.943
-285.399
-285.856
-286.315
-286.775
-287.236
-287.699
-288.163
-288.629
-289.096
-289.564
-290.034
-290.504
-290.977
-291.45
-291.925
-292.402
-292.879
-293.358
-293.839
-294.321
-294.804
-295.288
-295.774
-296.261
-296.749
-297.239
-235.112
-235.343
-235.574
-235.807
-236.042
-236.278
-236.516
-236.755
-236.996
-237.238
-237.482
-237.727
-237.974
-238.223
-238.473
-238.724
-238.977
-239.231
-239.487
-239.745
-240.004
-240.264
-240.526
-240.79
-241.055
-241.321
-241.589
-241.859
-242.13
-242.402
-242.677
-242.952
-243.229
-243.508
-243.789
-244.07
-244.354
-244.639
-244.926
-245.213
-245.503
-245.793
-246.085
-246.379
-246.674
-246.97
-247.268
-247.567
-247.868
-248.17
-248.474
-248.779
-249.085
-249.393
-249.703
-250.013
-250.326
-250.639
-250.954
-251.271
-251.589
-251.908
-252.229
-252.552
-252.875
-253.201
-253.527
-253.855
-254.185
-254.516
-254.848
-255.182
-255.517
-255.854
-256.192
-256.531
-256.872
-257.214
-257.558
-257.903
-258.25
-258.598
-258.948
-259.299
-259.651
-260.005
-260.36
-260.717
-261.075
-261.434
-261.795
-262.157
-262.521
-262.886
-263.253
-263.621
-263.99
-264.361
-264.733
-265.107
-265.482
-265.859
-266.237
-266.616
-266.997
-267.379
-267.763
-268.148
-268.534
-268.922
-269.311
-269.702
-270.094
-270.487
-270.882
-271.278
-271.676
-272.075
-272.476
-272.877
-273.281
-273.685
-274.092
-274.499
-274.908
-275.318
-275.73
-276.143
-276.558
-276.973
-277.391
-277.809
-278.229
-278.651
-279.074
-279.498
-279.924
-280.351
-280.779
-281.209
-281.64
-282.073
-282.507
-282.942
-283.379
-283.817
-284.256
-284.697
-285.139
-285.583
-286.028
-286.474
-286.922
-287.371
-287.822
-288.274
-288.727
-289.181
-289.637
-290.095
-290.553
-291.013
-291.475
-291.938
-292.402
-292.867
-293.334
-293.802
-294.272
-294.743
-295.215
-295.689
-296.164
-296.64
-297.118
-297.597
-298.077
-298.559
-299.042
-299.527
-300.012
-300.499
-300.988
-301.478
-239.58
-239.812
-240.045
-240.28
-240.516
-240.754
-240.993
-241.234
-241.476
-241.72
-241.965
-242.212
-242.461
-242.711
-242.962
-243.215
-243.469
-243.725
-243.983
-244.242
-244.502
-244.764
-245.028
-245.293
-245.559
-245.827
-246.097
-246.368
-246.641
-246.915
-247.19
-247.468
-247.746
-248.027
-248.309
-248.592
-248.877
-249.164
-249.451
-249.741
-250.031
-250.323
-250.617
-250.912
-251.208
-251.506
-251.805
-252.106
-252.408
-252.712
-253.017
-253.323
-253.631
-253.941
-254.252
-254.564
-254.877
-255.193
-255.509
-255.827
-256.147
-256.467
-256.79
-257.113
-257.439
-257.765
-258.093
-258.423
-258.754
-259.086
-259.42
-259.755
-260.092
-260.43
-260.769
-261.11
-261.453
-261.796
-262.142
-262.488
-262.836
-263.186
-263.537
-263.889
-264.243
-264.598
-264.955
-265.313
-265.672
-266.033
-266.395
-266.759
-267.124
-267.491
-267.859
-268.228
-268.599
-268.972
-269.345
-269.72
-270.097
-270.475
-270.854
-271.235
-271.617
-272.001
-272.386
-272.772
-273.16
-273.549
-273.94
-274.332
-274.725
-275.12
-275.516
-275.914
-276.313
-276.714
-277.116
-277.519
-277.924
-278.33
-278.737
-279.146
-279.556
-279.968
-280.381
-280.796
-281.212
-281.629
-282.047
-282.468
-282.889
-283.312
-283.736
-284.162
-284.589
-285.017
-285.447
-285.878
-286.311
-286.745
-287.18
-287.617
-288.055
-288.494
-288.935
-289.377
-289.821
-290.266
-290.712
-291.16
-291.609
-292.06
-292.512
-292.965
-293.419
-293.875
-294.333
-294.791
-295.251
-295.713
-296.176
-296.64
-297.105
-297.572
-298.04
-298.51
-298.981
-299.453
-299.927
-300.402
-300.878
-301.356
-301.835
-302.315
-302.797
-303.28
-303.764
-304.25
-304.737
-305.226
-305.715
-244.05
-244.283
-244.518
-244.754
-244.992
-245.231
-245.472
-245.714
-245.958
-246.204
-246.45
-246.699
-246.949
-247.2
-247.453
-247.707
-247.963
-248.221
-248.48
-248.74
-249.002
-249.266
-249.531
-249.797
-250.066
-250.335
-250.606
-250.879
-251.153
-251.429
-251.706
-251.985
-252.265
-252.547
-252.83
-253.115
-253.402
-253.69
-253.979
-254.269
-254.562
-254.855
-255.15
-255.446
-255.744
-256.044
-256.344
-256.646
-256.95
-257.255
-257.562
-257.87
-258.179
-258.49
-258.802
-259.116
-259.431
-259.747
-260.065
-260.385
-260.706
-261.028
-261.352
-261.677
-262.003
-262.331
-262.661
-262.992
-263.324
-263.658
-263.993
-264.33
-264.668
-265.007
-265.348
-265.691
-266.034
-266.38
-266.726
-267.074
-267.424
-267.775
-268.127
-268.481
-268.836
-269.193
-269.551
-269.91
-270.271
-270.634
-270.997
-271.363
-271.729
-272.097
-272.467
-272.837
-273.21
-273.583
-273.958
-274.335
-274.713
-275.092
-275.473
-275.855
-276.239
-276.624
-277.01
-277.398
-277.787
-278.178
-278.57
-278.963
-279.358
-279.755
-280.152
-280.551
-280.952
-281.354
-281.757
-282.162
-282.568
-282.975
-283.384
-283.795
-284.206
-284.619
-285.034
-285.45
-285.867
-286.286
-286.706
-287.127
-287.55
-287.974
-288.4
-288.827
-289.255
-289.685
-290.116
-290.549
-290.983
-291.418
-291.855
-292.293
-292.732
-293.173
-293.616
-294.059
-294.504
-294.951
-295.398
-295.847
-296.298
-296.75
-297.203
-297.658
-298.114
-298.571
-299.03
-299.49
-299.951
-300.414
-300.878
-301.344
-301.81
-302.279
-302.748
-303.219
-303.691
-304.165
-304.64
-305.116
-305.594
-306.073
-306.553
-307.035
-307.518
-308.003
-308.488
-308.975
-309.464
-309.954
-248.521
-248.756
-248.992
-249.23
-249.469
-249.71
-249.952
-250.196
-250.442
-250.688
-250.937
-251.187
-251.438
-251.691
-251.946
-252.201
-252.459
-252.718
-252.978
-253.24
-253.504
-253.769
-254.036
-254.304
-254.573
-254.844
-255.117
-255.391
-255.667
-255.944
-256.223
-256.503
-256.785
-257.069
-257.354
-257.64
-257.928
-258.217
-258.508
-258.8
-259.093
-259.388
-259.685
-259.982
-260.282
-260.582
-260.885
-261.188
-261.493
-261.8
-262.108
-262.417
-262.728
-263.04
-263.354
-263.669
-263.985
-264.303
-264.623
-264.944
-265.266
-265.59
-265.915
-266.242
-266.57
-266.899
-267.23
-267.562
-267.896
-268.231
-268.568
-268.906
-269.246
-269.586
-269.929
-270.273
-270.618
-270.964
-271.313
-271.662
-272.013
-272.365
-272.719
-273.074
-273.431
-273.789
-274.148
-274.509
-274.872
-275.235
-275.601
-275.967
-276.335
-276.705
-277.076
-277.448
-277.821
-278.197
-278.573
-278.951
-279.33
-279.711
-280.093
-280.477
-280.862
-281.248
-281.636
-282.025
-282.416
-282.808
-283.202
-283.596
-283.993
-284.39
-284.789
-285.19
-285.592
-285.995
-286.4
-286.806
-287.213
-287.622
-288.033
-288.444
-288.857
-289.272
-289.688
-290.105
-290.524
-290.944
-291.365
-291.788
-292.212
-292.638
-293.065
-293.493
-293.923
-294.354
-294.787
-295.221
-295.656
-296.093
-296.531
-296.971
-297.411
-297.854
-298.297
-298.742
-299.189
-299.636
-300.085
-300.536
-300.988
-301.441
-301.896
-302.352
-302.809
-303.268
-303.728
-304.189
-304.652
-305.116
-305.582
-306.048
-306.517
-306.986
-307.457
-307.929
-308.403
-308.878
-309.354
-309.832
-310.311
-310.791
-311.273
-311.756
-312.241
-312.726
-313.213
-313.702
-314.192
-252.759
-252.994
-253.23
-253.468
-253.707
-253.948
-254.19
-254.434
-254.68
-254.927
-255.175
-255.425
-255.676
-255.929
-256.184
-256.44
-256.697
-256.956
-257.217
-257.479
-257.742
-258.007
-258.274
-258.542
-258.811
-259.083
-259.355
-259.629
-259.905
-260.182
-260.461
-260.741
-261.023
-261.307
-261.592
-261.878
-262.166
-262.455
-262.746
-263.038
-263.331
-263.626
-263.923
-264.22
-264.52
-264.82
-265.123
-265.426
-265.731
-266.038
-266.346
-266.655
-266.966
-267.278
-267.592
-267.907
-268.224
-268.542
-268.861
-269.182
-269.504
-269.828
-270.153
-270.48
-270.808
-271.137
-271.468
-271.8
-272.134
-272.469
-272.806
-273.144
-273.484
-273.825
-274.167
-274.511
-274.856
-275.203
-275.551
-275.9
-276.251
-276.603
-276.957
-277.312
-277.669
-278.027
-278.387
-278.748
-279.11
-279.474
-279.839
-280.205
-280.573
-280.943
-281.314
-281.686
-282.06
-282.435
-282.811
-283.189
-283.568
-283.949
-284.331
-284.715
-285.1
-285.486
-285.874
-286.263
-286.654
-287.046
-287.44
-287.835
-288.231
-288.628
-289.028
-289.428
-289.83
-290.233
-290.638
-291.044
-291.452
-291.86
-292.271
-292.682
-293.096
-293.51
-293.926
-294.343
-294.762
-295.182
-295.603
-296.026
-296.451
-296.876
-297.303
-297.732
-298.161
-298.593
-299.025
-299.459
-299.894
-300.331
-300.769
-301.209
-301.65
-302.092
-302.535
-302.98
-303.427
-303.874
-304.324
-304.774
-305.226
-305.679
-306.134
-306.59
-307.047
-307.506
-307.966
-308.427
-308.89
-309.354
-309.82
-310.287
-310.755
-311.224
-311.695
-312.168
-312.641
-313.116
-313.592
-314.07
-314.549
-315.03
-315.511
-315.994
-316.479
-316.964
-317.452
-317.94
-318.43
-257.231
-257.468
-257.706
-257.945
-258.186
-258.428
-258.672
-258.918
-259.165
-259.413
-259.663
-259.914
-260.167
-260.422
-260.678
-260.935
-261.194
-261.455
-261.717
-261.98
-262.245
-262.512
-262.78
-263.05
-263.321
-263.593
-263.868
-264.143
-264.421
-264.699
-264.98
-265.262
-265.545
-265.83
-266.116
-266.404
-266.693
-266.984
-267.276
-267.569
-267.864
-268.161
-268.459
-268.758
-269.059
-269.361
-269.664
-269.969
-270.276
-270.584
-270.893
-271.204
-271.516
-271.83
-272.145
-272.462
-272.78
-273.099
-273.42
-273.742
-274.066
-274.391
-274.718
-275.046
-275.375
-275.706
-276.039
-276.372
-276.708
-277.044
-277.382
-277.722
-278.063
-278.405
-278.749
-279.094
-279.441
-279.789
-280.138
-280.489
-280.842
-281.195
-281.551
-281.907
-282.265
-282.625
-282.986
-283.348
-283.712
-284.077
-284.443
-284.811
-285.181
-285.552
-285.924
-286.298
-286.673
-287.049
-287.427
-287.807
-288.187
-288.57
-288.953
-289.338
-289.725
-290.112
-290.502
-290.892
-291.284
-291.678
-292.073
-292.469
-292.867
-293.266
-293.666
-294.068
-294.471
-294.876
-295.282
-295.69
-296.099
-296.509
-296.921
-297.334
-297.748
-298.164
-298.581
-299
-299.42
-299.842
-300.264
-300.689
-301.114
-301.541
-301.97
-302.399
-302.831
-303.263
-303.697
-304.133
-304.569
-305.007
-305.447
-305.888
-306.33
-306.773
-307.218
-307.665
-308.113
-308.562
-309.012
-309.464
-309.917
-310.372
-310.828
-311.285
-311.744
-312.204
-312.665
-313.128
-313.592
-314.058
-314.525
-314.993
-315.462
-315.933
-316.406
-316.879
-317.354
-317.831
-318.308
-318.787
-319.268
-319.749
-320.232
-320.717
-321.203
-321.69
-322.178
-322.668
-261.706
-261.944
-262.183
-262.424
-262.666
-262.91
-263.156
-263.403
-263.651
-263.901
-264.152
-264.405
-264.66
-264.916
-265.173
-265.432
-265.693
-265.955
-266.218
-266.483
-266.75
-267.018
-267.288
-267.559
-267.832
-268.106
-268.381
-268.659
-268.938
-269.218
-269.5
-269.783
-270.068
-270.354
-270.642
-270.931
-271.222
-271.514
-271.807
-272.102
-272.399
-272.697
-272.996
-273.297
-273.599
-273.902
-274.208
-274.514
-274.822
-275.131
-275.442
-275.754
-276.068
-276.383
-276.7
-277.018
-277.337
-277.658
-277.98
-278.304
-278.629
-278.956
-279.284
-279.613
-279.944
-280.277
-280.61
-280.946
-281.282
-281.62
-281.96
-282.301
-282.643
-282.987
-283.332
-283.679
-284.027
-284.376
-284.727
-285.08
-285.433
-285.789
-286.145
-286.503
-286.863
-287.224
-287.586
-287.95
-288.315
-288.682
-289.05
-289.419
-289.79
-290.162
-290.536
-290.911
-291.287
-291.665
-292.045
-292.425
-292.808
-293.191
-293.576
-293.963
-294.35
-294.74
-295.13
-295.522
-295.916
-296.311
-296.707
-297.105
-297.504
-297.904
-298.306
-298.709
-299.114
-299.52
-299.928
-300.337
-300.747
-301.159
-301.572
-301.986
-302.402
-302.819
-303.238
-303.658
-304.08
-304.502
-304.927
-305.352
-305.779
-306.208
-306.638
-307.069
-307.501
-307.935
-308.371
-308.807
-309.245
-309.685
-310.126
-310.568
-311.012
-311.457
-311.903
-312.351
-312.8
-313.25
-313.702
-314.155
-314.61
-315.066
-315.523
-315.982
-316.442
-316.903
-317.366
-317.83
-318.296
-318.763
-319.231
-319.701
-320.171
-320.644
-321.117
-321.592
-322.069
-322.546
-323.025
-323.506
-323.987
-324.471
-324.955
-325.441
-325.928
-326.416
-326.906
-265.944
-266.182
-266.421
-266.662
-266.904
-267.148
-267.394
-267.641
-267.889
-268.139
-268.39
-268.643
-268.898
-269.154
-269.411
-269.67
-269.931
-270.193
-270.456
-270.722
-270.988
-271.256
-271.526
-271.797
-272.07
-272.344
-272.62
-272.897
-273.176
-273.456
-273.738
-274.021
-274.306
-274.592
-274.88
-275.169
-275.46
-275.752
-276.045
-276.34
-276.637
-276.935
-277.234
-277.535
-277.837
-278.141
-278.446
-278.752
-279.06
-279.369
-279.68
-279.992
-280.306
-280.621
-280.938
-281.256
-281.575
-281.896
-282.218
-282.542
-282.867
-283.194
-283.522
-283.851
-284.182
-284.515
-284.849
-285.184
-285.52
-285.858
-286.198
-286.539
-286.881
-287.225
-287.57
-287.917
-288.265
-288.614
-288.965
-289.318
-289.672
-290.027
-290.383
-290.741
-291.101
-291.462
-291.824
-292.188
-292.553
-292.92
-293.288
-293.657
-294.028
-294.4
-294.774
-295.149
-295.526
-295.903
-296.283
-296.664
-297.046
-297.429
-297.814
-298.201
-298.589
-298.978
-299.368
-299.761
-300.154
-300.549
-300.945
-301.343
-301.742
-302.142
-302.544
-302.948
-303.352
-303.758
-304.166
-304.575
-304.985
-305.397
-305.81
-306.224
-306.64
-307.058
-307.476
-307.896
-308.318
-308.741
-309.165
-309.59
-310.017
-310.446
-310.876
-311.307
-311.739
-312.173
-312.609
-313.045
-313.484
-313.923
-314.364
-314.806
-315.25
-315.695
-316.141
-316.589
-317.038
-317.488
-317.94
-318.393
-318.848
-319.304
-319.761
-320.22
-320.68
-321.142
-321.604
-322.068
-322.534
-323.001
-323.469
-323.939
-324.41
-324.882
-325.355
-325.83
-326.307
-326.784
-327.263
-327.744
-328.226
-328.709
-329.193
-329.679
-330.166
-330.654
-331.144
-270.419
-270.659
-270.9
-271.142
-271.386
-271.632
-271.879
-272.127
-272.377
-272.628
-272.881
-273.136
-273.392
-273.649
-273.908
-274.169
-274.431
-274.695
-274.96
-275.226
-275.494
-275.764
-276.035
-276.308
-276.582
-276.858
-277.135
-277.414
-277.694
-277.976
-278.259
-278.544
-278.83
-279.118
-279.407
-279.698
-279.99
-280.284
-280.579
-280.875
-281.173
-281.472
-281.773
-282.075
-282.379
-282.684
-282.99
-283.298
-283.607
-283.918
-284.231
-284.544
-284.859
-285.176
-285.494
-285.813
-286.134
-286.457
-286.78
-287.105
-287.432
-287.76
-288.09
-288.42
-288.753
-289.087
-289.422
-289.758
-290.097
-290.436
-290.777
-291.119
-291.463
-291.808
-292.155
-292.503
-292.853
-293.204
-293.556
-293.91
-294.265
-294.622
-294.98
-295.339
-295.7
-296.062
-296.426
-296.791
-297.158
-297.526
-297.895
-298.266
-298.638
-299.012
-299.387
-299.764
-300.142
-300.521
-300.902
-301.284
-301.667
-302.052
-302.439
-302.827
-303.216
-303.607
-303.999
-304.392
-304.787
-305.183
-305.581
-305.98
-306.38
-306.782
-307.186
-307.59
-307.996
-308.404
-308.813
-309.223
-309.635
-310.048
-310.462
-310.878
-311.296
-311.714
-312.134
-312.556
-312.979
-313.403
-313.829
-314.256
-314.684
-315.114
-315.545
-315.978
-316.411
-316.847
-317.284
-317.722
-318.161
-318.602
-319.044
-319.488
-319.933
-320.379
-320.827
-321.276
-321.726
-322.178
-322.632
-323.086
-323.542
-323.999
-324.458
-324.918
-325.38
-325.842
-326.307
-326.772
-327.239
-327.707
-328.177
-328.648
-329.12
-329.594
-330.069
-330.545
-331.023
-331.502
-331.982
-332.464
-332.947
-333.431
-333.917
-334.404
-334.892
-335.382
-274.897
-275.138
-275.38
-275.624
-275.87
-276.117
-276.365
-276.615
-276.866
-277.119
-277.374
-277.63
-277.887
-278.146
-278.407
-278.669
-278.933
-279.198
-279.464
-279.732
-280.002
-280.273
-280.546
-280.82
-281.096
-281.373
-281.652
-281.932
-282.214
-282.497
-282.782
-283.068
-283.356
-283.645
-283.936
-284.228
-284.522
-284.817
-285.113
-285.411
-285.71
-286.011
-286.313
-286.617
-286.922
-287.228
-287.536
-287.846
-288.156
-288.469
-288.782
-289.097
-289.414
-289.732
-290.051
-290.372
-290.695
-291.018
-291.344
-291.67
-291.998
-292.328
-292.659
-292.991
-293.325
-293.66
-293.997
-294.335
-294.674
-295.015
-295.357
-295.701
-296.046
-296.393
-296.741
-297.091
-297.442
-297.794
-298.148
-298.503
-298.86
-299.218
-299.577
-299.938
-300.3
-300.664
-301.029
-301.396
-301.764
-302.133
-302.504
-302.876
-303.25
-303.625
-304.002
-304.38
-304.759
-305.14
-305.522
-305.906
-306.291
-306.677
-307.065
-307.454
-307.845
-308.237
-308.63
-309.025
-309.421
-309.819
-310.218
-310.619
-311.02
-311.424
-311.828
-312.235
-312.642
-313.051
-313.461
-313.873
-314.286
-314.701
-315.116
-315.534
-315.952
-316.372
-316.794
-317.217
-317.641
-318.067
-318.494
-318.922
-319.352
-319.783
-320.216
-320.65
-321.085
-321.522
-321.96
-322.399
-322.84
-323.282
-323.726
-324.171
-324.617
-325.065
-325.514
-325.965
-326.416
-326.87
-327.324
-327.78
-328.238
-328.696
-329.156
-329.618
-330.081
-330.545
-331.01
-331.477
-331.945
-332.415
-332.886
-333.358
-333.832
-334.307
-334.783
-335.261
-335.74
-336.22
-336.702
-337.185
-337.669
-338.155
-338.642
-339.131
-339.62
-279.376
-279.618
-279.862
-280.108
-280.354
-280.603
-280.853
-281.104
-281.357
-281.612
-281.868
-282.125
-282.384
-282.645
-282.907
-283.171
-283.436
-283.702
-283.97
-284.24
-284.511
-284.784
-285.058
-285.334
-285.611
-285.89
-286.17
-286.452
-286.735
-287.02
-287.307
-287.594
-287.883
-288.174
-288.466
-288.76
-289.055
-289.351
-289.649
-289.948
-290.249
-290.551
-290.855
-291.16
-291.466
-291.774
-292.084
-292.394
-292.707
-293.02
-293.336
-293.652
-293.97
-294.29
-294.61
-294.933
-295.256
-295.582
-295.908
-296.236
-296.566
-296.897
-297.229
-297.563
-297.898
-298.235
-298.573
-298.912
-299.253
-299.596
-299.939
-300.285
-300.631
-300.979
-301.329
-301.68
-302.032
-302.386
-302.741
-303.098
-303.456
-303.815
-304.176
-304.538
-304.902
-305.267
-305.634
-306.002
-306.371
-306.742
-307.115
-307.488
-307.863
-308.24
-308.618
-308.997
-309.378
-309.76
-310.144
-310.529
-310.915
-311.303
-311.692
-312.083
-312.475
-312.868
-313.263
-313.659
-314.057
-314.456
-314.857
-315.259
-315.662
-316.067
-316.473
-316.88
-317.289
-317.699
-318.111
-318.524
-318.939
-319.355
-319.772
-320.19
-320.611
-321.032
-321.455
-321.879
-322.305
-322.732
-323.16
-323.59
-324.021
-324.454
-324.888
-325.323
-325.76
-326.198
-326.637
-327.078
-327.52
-327.964
-328.409
-328.855
-329.303
-329.752
-330.203
-330.655
-331.108
-331.562
-332.018
-332.476
-332.934
-333.394
-333.856
-334.319
-334.783
-335.248
-335.715
-336.183
-336.653
-337.124
-337.596
-338.07
-338.545
-339.021
-339.499
-339.978
-340.458
-340.94
-341.423
-341.907
-342.393
-342.88
-343.369
-343.858
-283.613
-283.856
-284.1
-284.346
-284.592
-284.841
-285.091
-285.342
-285.595
-285.85
-286.106
-286.363
-286.622
-286.883
-287.145
-287.409
-287.674
-287.94
-288.209
-288.478
-288.749
-289.022
-289.296
-289.572
-289.849
-290.128
-290.408
-290.69
-290.974
-291.258
-291.545
-291.832
-292.122
-292.412
-292.704
-292.998
-293.293
-293.589
-293.887
-294.186
-294.487
-294.789
-295.093
-295.398
-295.704
-296.012
-296.322
-296.633
-296.945
-297.258
-297.574
-297.89
-298.208
-298.528
-298.848
-299.171
-299.495
-299.82
-300.146
-300.474
-300.804
-301.135
-301.467
-301.801
-302.136
-302.473
-302.811
-303.15
-303.491
-303.834
-304.177
-304.523
-304.869
-305.217
-305.567
-305.918
-306.27
-306.624
-306.979
-307.336
-307.694
-308.053
-308.414
-308.777
-309.14
-309.505
-309.872
-310.24
-310.609
-310.98
-311.353
-311.726
-312.101
-312.478
-312.856
-313.235
-313.616
-313.998
-314.382
-314.767
-315.153
-315.541
-315.93
-316.321
-316.713
-317.106
-317.501
-317.897
-318.295
-318.694
-319.095
-319.497
-319.9
-320.305
-320.711
-321.118
-321.527
-321.937
-322.349
-322.762
-323.177
-323.593
-324.01
-324.429
-324.849
-325.27
-325.693
-326.117
-326.543
-326.97
-327.398
-327.828
-328.259
-328.692
-329.126
-329.561
-329.998
-330.436
-330.875
-331.316
-331.758
-332.202
-332.647
-333.093
-333.541
-333.99
-334.441
-334.893
-335.346
-335.8
-336.256
-336.714
-337.172
-337.632
-338.094
-338.557
-339.021
-339.486
-339.953
-340.421
-340.891
-341.362
-341.834
-342.308
-342.783
-343.259
-343.737
-344.216
-344.696
-345.178
-345.661
-346.145
-346.631
-347.118
-347.607
-348.097
-288.094
-288.338
-288.583
-288.83
-289.079
-289.329
-289.58
-289.833
-290.088
-290.344
-290.601
-290.86
-291.121
-291.383
-291.647
-291.912
-292.178
-292.447
-292.716
-292.987
-293.26
-293.534
-293.81
-294.087
-294.366
-294.647
-294.928
-295.212
-295.496
-295.783
-296.07
-296.36
-296.65
-296.942
-297.236
-297.531
-297.827
-298.125
-298.424
-298.725
-299.027
-299.331
-299.636
-299.942
-300.25
-300.56
-300.871
-301.183
-301.497
-301.812
-302.128
-302.446
-302.766
-303.087
-303.409
-303.733
-304.058
-304.384
-304.712
-305.042
-305.373
-305.705
-306.039
-306.374
-306.711
-307.049
-307.388
-307.729
-308.072
-308.415
-308.761
-309.107
-309.455
-309.805
-310.156
-310.508
-310.862
-311.217
-311.574
-311.932
-312.291
-312.652
-313.015
-313.378
-313.744
-314.11
-314.478
-314.848
-315.218
-315.591
-315.964
-316.339
-316.716
-317.094
-317.473
-317.854
-318.236
-318.62
-319.005
-319.391
-319.779
-320.168
-320.559
-320.951
-321.344
-321.739
-322.136
-322.533
-322.932
-323.333
-323.735
-324.138
-324.543
-324.949
-325.356
-325.765
-326.175
-326.587
-327
-327.415
-327.831
-328.248
-328.667
-329.087
-329.508
-329.931
-330.355
-330.781
-331.208
-331.636
-332.066
-332.497
-332.93
-333.364
-333.799
-334.236
-334.674
-335.113
-335.554
-335.996
-336.44
-336.885
-337.331
-337.779
-338.228
-338.679
-339.131
-339.584
-340.038
-340.494
-340.952
-341.41
-341.871
-342.332
-342.795
-343.259
-343.724
-344.191
-344.659
-345.129
-345.6
-346.072
-346.546
-347.021
-347.497
-347.975
-348.454
-348.934
-349.416
-349.899
-350.383
-350.869
-351.356
-351.845
-352.335
-292.576
-292.821
-293.068
-293.317
-293.567
-293.818
-294.071
-294.326
-294.582
-294.839
-295.098
-295.359
-295.621
-295.885
-296.15
-296.416
-296.685
-296.954
-297.225
-297.498
-297.772
-298.048
-298.325
-298.604
-298.885
-299.166
-299.45
-299.734
-300.021
-300.308
-300.598
-300.888
-301.18
-301.474
-301.769
-302.065
-302.363
-302.662
-302.963
-303.265
-303.569
-303.874
-304.181
-304.488
-304.798
-305.109
-305.421
-305.735
-306.05
-306.366
-306.684
-307.004
-307.325
-307.647
-307.971
-308.296
-308.622
-308.95
-309.28
-309.611
-309.943
-310.277
-310.612
-310.949
-311.287
-311.626
-311.967
-312.31
-312.654
-312.999
-313.345
-313.693
-314.043
-314.394
-314.746
-315.1
-315.455
-315.812
-316.17
-316.529
-316.89
-317.253
-317.616
-317.982
-318.348
-318.716
-319.086
-319.456
-319.829
-320.202
-320.578
-320.954
-321.332
-321.711
-322.092
-322.474
-322.858
-323.243
-323.629
-324.017
-324.406
-324.797
-325.189
-325.582
-325.977
-326.374
-326.771
-327.17
-327.571
-327.973
-328.376
-328.781
-329.187
-329.594
-330.003
-330.414
-330.825
-331.238
-331.653
-332.069
-332.486
-332.905
-333.325
-333.746
-334.169
-334.593
-335.019
-335.446
-335.874
-336.304
-336.735
-337.168
-337.602
-338.037
-338.474
-338.912
-339.351
-339.792
-340.235
-340.678
-341.123
-341.57
-342.017
-342.466
-342.917
-343.369
-343.822
-344.277
-344.733
-345.19
-345.649
-346.109
-346.57
-347.033
-347.497
-347.962
-348.429
-348.898
-349.367
-349.838
-350.31
-350.784
-351.259
-351.735
-352.213
-352.692
-353.172
-353.654
-354.137
-354.622
-355.107
-355.594
-356.083
-356.573
-296.813
-297.059
-297.306
-297.555
-297.805
-298.056
-298.309
-298.564
-298.82
-299.077
-299.336
-299.597
-299.859
-300.123
-300.388
-300.654
-300.923
-301.192
-301.463
-301.736
-302.01
-302.286
-302.564
-302.842
-303.123
-303.404
-303.688
-303.973
-304.259
-304.546
-304.836
-305.126
-305.418
-305.712
-306.007
-306.303
-306.601
-306.9
-307.201
-307.503
-307.807
-308.112
-308.419
-308.727
-309.036
-309.347
-309.659
-309.973
-310.288
-310.604
-310.922
-311.242
-311.563
-311.885
-312.209
-312.534
-312.861
-313.189
-313.518
-313.849
-314.181
-314.515
-314.85
-315.187
-315.525
-315.865
-316.205
-316.548
-316.892
-317.237
-317.583
-317.932
-318.281
-318.632
-318.984
-319.338
-319.693
-320.05
-320.408
-320.767
-321.128
-321.491
-321.854
-322.22
-322.586
-322.954
-323.324
-323.695
-324.067
-324.44
-324.816
-325.192
-325.57
-325.949
-326.33
-326.712
-327.096
-327.481
-327.867
-328.255
-328.644
-329.035
-329.427
-329.821
-330.215
-330.612
-331.009
-331.408
-331.809
-332.211
-332.614
-333.019
-333.425
-333.832
-334.241
-334.652
-335.063
-335.476
-335.891
-336.307
-336.724
-337.143
-337.563
-337.984
-338.407
-338.831
-339.257
-339.684
-340.112
-340.542
-340.973
-341.406
-341.84
-342.275
-342.712
-343.15
-343.59
-344.03
-344.473
-344.916
-345.361
-345.808
-346.255
-346.704
-347.155
-347.607
-348.06
-348.515
-348.971
-349.428
-349.887
-350.347
-350.808
-351.271
-351.735
-352.2
-352.667
-353.136
-353.605
-354.076
-354.548
-355.022
-355.497
-355.973
-356.451
-356.93
-357.41
-357.892
-358.375
-358.86
-359.345
-359.832
-360.321
-360.811
-301.297
-301.544
-301.793
-302.043
-302.294
-302.547
-302.802
-303.058
-303.315
-303.574
-303.835
-304.097
-304.361
-304.626
-304.892
-305.161
-305.43
-305.701
-305.974
-306.248
-306.524
-306.802
-307.08
-307.361
-307.642
-307.926
-308.211
-308.497
-308.785
-309.074
-309.364
-309.656
-309.95
-310.245
-310.541
-310.839
-311.139
-311.439
-311.741
-312.045
-312.35
-312.657
-312.965
-313.274
-313.585
-313.897
-314.211
-314.526
-314.842
-315.16
-315.48
-315.801
-316.123
-316.447
-316.772
-317.099
-317.427
-317.756
-318.087
-318.419
-318.753
-319.088
-319.425
-319.763
-320.103
-320.443
-320.786
-321.13
-321.475
-321.822
-322.17
-322.519
-322.87
-323.222
-323.576
-323.931
-324.288
-324.646
-325.006
-325.366
-325.729
-326.093
-326.458
-326.824
-327.192
-327.562
-327.933
-328.305
-328.679
-329.054
-329.43
-329.808
-330.187
-330.568
-330.95
-331.334
-331.719
-332.105
-332.493
-332.882
-333.273
-333.665
-334.059
-334.453
-334.85
-335.247
-335.646
-336.047
-336.449
-336.852
-337.257
-337.663
-338.07
-338.479
-338.89
-339.301
-339.714
-340.129
-340.545
-340.962
-341.381
-341.801
-342.222
-342.645
-343.069
-343.495
-343.922
-344.35
-344.78
-345.211
-345.644
-346.078
-346.513
-346.95
-347.388
-347.828
-348.268
-348.711
-349.154
-349.599
-350.046
-350.493
-350.942
-351.393
-351.845
-352.298
-352.753
-353.209
-353.666
-354.125
-354.585
-355.046
-355.509
-355.973
-356.439
-356.905
-357.374
-357.843
-358.314
-358.786
-359.26
-359.735
-360.211
-360.689
-361.168
-361.648
-362.13
-362.613
-363.098
-363.583
-364.071
-364.559
-365.049
-305.781
-306.03
-306.28
-306.532
-306.785
-307.039
-307.296
-307.553
-307.812
-308.073
-308.335
-308.599
-308.864
-309.13
-309.399
-309.668
-309.939
-310.212
-310.486
-310.762
-311.04
-311.318
-311.599
-311.88
-312.164
-312.449
-312.735
-313.023
-313.312
-313.602
-313.894
-314.188
-314.483
-314.779
-315.077
-315.377
-315.677
-315.979
-316.283
-316.588
-316.895
-317.203
-317.512
-317.823
-318.135
-318.449
-318.764
-319.08
-319.398
-319.718
-320.039
-320.361
-320.685
-321.01
-321.337
-321.665
-321.994
-322.325
-322.657
-322.991
-323.326
-323.663
-324.001
-324.341
-324.682
-325.024
-325.368
-325.713
-326.06
-326.408
-326.757
-327.108
-327.46
-327.814
-328.169
-328.526
-328.884
-329.244
-329.605
-329.967
-330.331
-330.696
-331.062
-331.43
-331.8
-332.171
-332.543
-332.917
-333.292
-333.668
-334.046
-334.425
-334.806
-335.188
-335.572
-335.957
-336.343
-336.731
-337.12
-337.511
-337.903
-338.297
-338.691
-339.088
-339.485
-339.885
-340.285
-340.687
-341.09
-341.495
-341.901
-342.309
-342.717
-343.128
-343.539
-343.953
-344.367
-344.783
-345.2
-345.619
-346.039
-346.46
-346.883
-347.307
-347.733
-348.16
-348.589
-349.018
-349.45
-349.882
-350.316
-350.751
-351.188
-351.626
-352.066
-352.506
-352.949
-353.392
-353.837
-354.284
-354.731
-355.181
-355.631
-356.083
-356.536
-356.991
-357.447
-357.904
-358.363
-358.823
-359.284
-359.747
-360.211
-360.677
-361.143
-361.612
-362.081
-362.552
-363.024
-363.498
-363.973
-364.449
-364.927
-365.406
-365.886
-366.368
-366.851
-367.336
-367.821
-368.309
-368.797
-369.287
-310.269
-310.518
-310.77
-311.023
-311.277
-311.533
-311.791
-312.05
-312.311
-312.573
-312.836
-313.102
-313.368
-313.636
-313.906
-314.177
-314.45
-314.724
-315
-315.278
-315.556
-315.837
-316.118
-316.402
-316.687
-316.973
-317.261
-317.55
-317.84
-318.132
-318.426
-318.721
-319.017
-319.315
-319.615
-319.915
-320.217
-320.521
-320.826
-321.133
-321.441
-321.75
-322.061
-322.373
-322.687
-323.002
-323.318
-323.636
-323.956
-324.277
-324.599
-324.923
-325.248
-325.575
-325.903
-326.232
-326.563
-326.895
-327.229
-327.564
-327.901
-328.239
-328.579
-328.92
-329.262
-329.606
-329.951
-330.298