/*--------------------------------*- C++ -*----------------------------------*\
| =========                 |                                                 |
| \\      /  F ield         | OpenFOAM: The Open Source CFD Toolbox           |
|  \\    /   O peration     | Version:  2512                                  |
|   \\  /    A nd           | Website:  www.openfoam.com                      |
|    \\/     M anipulation  |                                                 |
\*---------------------------------------------------------------------------*/
FoamFile
{
    version     2.0;
    format      ascii;
    arch        "LSB;label=32;scalar=64";
    class       volScalarField;
    location    "0.1";
    object      pB;
}
// * * * * * * * * * * * * * * * * * * * * * * * * * * * * * * * * * * * * * //

dimensions      [1 1 -3 0 0 -1 0];

internalField   nonuniform List<scalar> 
8334
(
1.07832
1.08726
1.09593
1.10432
1.11243
1.12022
1.1277
1.13489
1.14178
1.1484
1.15477
1.16092
1.16687
1.17265
1.17829
1.18383
1.1893
1.19473
1.20017
1.20564
1.21119
1.21685
1.22265
1.22863
1.23481
1.24123
1.24792
1.25489
1.26217
1.26978
1.27771
1.28598
1.29457
1.30349
1.31271
1.32221
1.33191
1.34156
1.35121
1.36086
1.37051
1.38014
1.38978
1.39942
1.40906
1.4187
1.42833
1.43795
1.44755
1.45714
1.46671
1.47626
1.48579
1.49529
1.50477
1.51422
1.52364
1.53304
1.54241
1.55175
1.56107
1.57036
1.57963
1.58887
1.59809
1.60729
1.61646
1.62562
1.63475
1.64387
1.65296
1.66204
1.6711
1.68015
1.68918
1.6982
1.7072
1.7162
1.72518
1.73416
1.74312
1.75208
1.76103
1.76997
1.7789
1.78783
1.79676
1.80568
1.81459
1.8235
1.8324
1.84131
1.8502
1.8591
1.868
1.87689
1.88578
1.89467
1.90356
1.91245
1.92134
1.93023
1.93912
1.94801
1.95691
1.9658
1.97469
1.98359
1.99248
2.00138
2.01028
2.01918
2.02808
2.03698
2.04589
2.0548
2.06371
2.07262
2.08154
2.09046
2.09938
2.1083
2.11723
2.12616
2.13509
2.14402
2.15296
2.1619
2.17085
2.1798
2.18875
2.1977
2.20666
2.21562
2.22458
2.23355
2.24252
2.2515
2.26047
2.26945
2.27844
2.28743
2.29642
2.30541
2.31441
2.32341
2.33242
2.34143
2.35044
2.35945
2.36847
2.37749
2.38652
2.39555
2.40458
2.41362
2.42266
2.4317
2.44074
2.44979
2.45885
2.4679
2.47696
2.48602
2.49508
2.50415
2.51322
2.52229
2.53136
2.54044
2.54951
2.55859
2.56766
2.57673
2.58581
2.59488
2.60394
2.61301
2.62207
2.63113
2.6402
2.64925
2.65832
2.66738
0.655388
0.664814
0.674005
0.682937
0.691613
0.699999
0.708109
0.715938
0.723487
0.730787
0.737862
0.744733
0.751425
0.75797
0.764398
0.770742
0.777038
0.78332
0.789623
0.795984
0.802439
0.809024
0.815772
0.822718
0.829891
0.837322
0.845036
0.853061
0.861411
0.870108
0.879151
0.888552
0.898293
0.908405
0.918842
0.929635
0.940676
0.951699
0.96273
0.97378
0.984812
0.995822
1.00682
1.01782
1.02881
1.03978
1.05074
1.06168
1.07259
1.08348
1.09434
1.10517
1.11597
1.12674
1.13747
1.14817
1.15884
1.16947
1.18007
1.19063
1.20117
1.21167
1.22215
1.23259
1.24301
1.2534
1.26377
1.27411
1.28443
1.29473
1.30501
1.31527
1.32552
1.33574
1.34595
1.35615
1.36634
1.37651
1.38668
1.39684
1.40698
1.41713
1.42726
1.43739
1.44752
1.45764
1.46775
1.47787
1.48798
1.49809
1.5082
1.51831
1.52842
1.53853
1.54864
1.55875
1.56886
1.57898
1.58909
1.59921
1.60934
1.61947
1.6296
1.63973
1.64987
1.66002
1.67017
1.68032
1.69048
1.70064
1.71081
1.72098
1.73116
1.74134
1.75154
1.76173
1.77194
1.78214
1.79236
1.80258
1.81281
1.82305
1.83329
1.84353
1.85379
1.86405
1.87432
1.88459
1.89487
1.90516
1.91545
1.92575
1.93606
1.94638
1.9567
1.96703
1.97736
1.9877
1.99805
2.00841
2.01877
2.02914
2.03951
2.04989
2.06028
2.07068
2.08108
2.09148
2.1019
2.11232
2.12275
2.13318
2.14362
2.15406
2.16451
2.17497
2.18543
2.1959
2.20638
2.21686
2.22734
2.23783
2.24833
2.25883
2.26934
2.27985
2.29037
2.30089
2.31141
2.32194
2.33248
2.34302
2.35356
2.3641
2.37465
2.3852
2.39576
2.40632
2.41688
2.42745
2.43802
2.4486
2.4592
2.46981
0.242862
0.252613
0.262105
0.271368
0.280364
0.28911
0.297588
0.305805
0.313794
0.32158
0.32918
0.336624
0.34394
0.35116
0.358316
0.365444
0.372579
0.379754
0.387009
0.394377
0.401895
0.409597
0.417517
0.425686
0.434134
0.442885
0.451966
0.461394
0.471187
0.481349
0.49189
0.502798
0.514106
0.525776
0.537845
0.550189
0.562557
0.574947
0.587371
0.599781
0.612159
0.624521
0.636869
0.649198
0.661508
0.673789
0.686043
0.698264
0.71045
0.722601
0.734712
0.746781
0.758811
0.770797
0.782743
0.794648
0.806512
0.818336
0.830122
0.841871
0.853583
0.865261
0.876907
0.888521
0.900105
0.911663
0.923194
0.9347
0.946183
0.957645
0.969086
0.980508
0.991914
1.0033
1.01468
1.02605
1.0374
1.04875
1.06008
1.07141
1.08274
1.09406
1.10537
1.11668
1.128
1.1393
1.15061
1.16192
1.17323
1.18454
1.19585
1.20717
1.21849
1.22981
1.24114
1.25247
1.26381
1.27515
1.2865
1.29786
1.30922
1.32059
1.33197
1.34336
1.35475
1.36615
1.37756
1.38898
1.40041
1.41184
1.42329
1.43474
1.4462
1.45768
1.46916
1.48065
1.49216
1.50367
1.51519
1.52673
1.53827
1.54982
1.56139
1.57296
1.58454
1.59614
1.60774
1.61936
1.63098
1.64262
1.65426
1.66592
1.67758
1.68926
1.70095
1.71265
1.72435
1.73607
1.7478
1.75953
1.77128
1.78304
1.7948
1.80658
1.81837
1.83016
1.84197
1.85378
1.8656
1.87743
1.88927
1.90112
1.91298
1.92485
1.93673
1.94861
1.9605
1.9724
1.98431
1.99623
2.00815
2.02008
2.03202
2.04397
2.05593
2.06789
2.07986
2.09184
2.10382
2.11581
2.12781
2.13982
2.15183
2.16385
2.17589
2.18792
2.19997
2.21203
2.2241
2.23619
2.24829
2.26042
2.27258
-0.167943
-0.157837
-0.14799
-0.138374
-0.12898
-0.119844
-0.110949
-0.102263
-0.0937609
-0.085424
-0.077222
-0.069129
-0.0611115
-0.0531375
-0.0451719
-0.0371798
-0.029127
-0.0209748
-0.0126887
-0.00423227
0.00442924
0.0133296
0.0224985
0.0319677
0.0417606
0.0519043
0.0624157
0.0733109
0.0845992
0.0962879
0.108373
0.120881
0.13379
0.147116
0.160739
0.174431
0.188161
0.20194
0.215714
0.229453
0.243169
0.256863
0.27053
0.284168
0.29777
0.311335
0.32486
0.338339
0.351775
0.365162
0.378499
0.391788
0.405025
0.418215
0.431355
0.444449
0.457496
0.470497
0.483457
0.496375
0.509254
0.522098
0.534906
0.54768
0.560424
0.57314
0.585828
0.598491
0.611132
0.62375
0.636349
0.648931
0.661497
0.674049
0.68659
0.69912
0.711642
0.724157
0.736666
0.74917
0.761672
0.77417
0.786666
0.799163
0.811662
0.824162
0.836663
0.849169
0.861678
0.874192
0.886711
0.899238
0.91177
0.92431
0.936859
0.949416
0.961983
0.974558
0.987144
0.999739
1.01235
1.02496
1.03759
1.05023
1.06288
1.07555
1.08822
1.10091
1.11361
1.12633
1.13905
1.15179
1.16454
1.17731
1.19009
1.20288
1.21569
1.22851
1.24134
1.25419
1.26706
1.27993
1.29282
1.30572
1.31864
1.33157
1.34452
1.35748
1.37045
1.38344
1.39644
1.40945
1.42248
1.43552
1.44858
1.46165
1.47473
1.48783
1.50094
1.51406
1.52719
1.54034
1.5535
1.56668
1.57986
1.59306
1.60627
1.61949
1.63272
1.64597
1.65923
1.6725
1.68578
1.69907
1.71237
1.72568
1.739
1.75234
1.76568
1.77903
1.7924
1.80577
1.81916
1.83255
1.84596
1.85937
1.8728
1.88623
1.89968
1.91313
1.9266
1.94008
1.95358
1.96708
1.9806
1.99414
2.00769
2.02126
2.03486
2.04848
2.06213
2.07584
-0.576574
-0.566133
-0.555896
-0.545844
-0.53604
-0.52646
-0.517068
-0.507844
-0.498764
-0.489798
-0.480922
-0.472103
-0.463306
-0.454498
-0.445645
-0.43671
-0.427656
-0.418447
-0.409048
-0.399423
-0.389539
-0.379365
-0.368871
-0.358031
-0.346822
-0.335223
-0.32322
-0.3108
-0.297958
-0.284691
-0.270979
-0.256835
-0.242263
-0.227379
-0.212382
-0.197327
-0.182211
-0.167087
-0.151997
-0.136936
-0.121903
-0.106904
-0.0919414
-0.0770241
-0.0621527
-0.0473296
-0.0325613
-0.0178453
-0.00318577
0.0114142
0.0259585
0.0404421
0.0548707
0.0692424
0.0835599
0.0978257
0.112039
0.126207
0.140327
0.154403
0.16844
0.182437
0.196397
0.210325
0.224221
0.238087
0.251926
0.265741
0.279534
0.293305
0.30706
0.320797
0.334521
0.348234
0.361936
0.375631
0.38932
0.403004
0.416683
0.430362
0.444039
0.457716
0.471396
0.485081
0.498768
0.512458
0.526156
0.539861
0.553572
0.567291
0.58102
0.594759
0.608509
0.62227
0.636042
0.649827
0.663625
0.677435
0.691259
0.705097
0.71895
0.732818
0.7467
0.760598
0.774512
0.788441
0.802386
0.816347
0.830325
0.844319
0.858329
0.872357
0.886402
0.900464
0.914544
0.928641
0.942755
0.956887
0.971037
0.985203
0.999388
1.01359
1.02781
1.04205
1.0563
1.07057
1.08486
1.09917
1.11349
1.12783
1.14219
1.15657
1.17096
1.18537
1.1998
1.21424
1.2287
1.24318
1.25767
1.27218
1.2867
1.30124
1.3158
1.33037
1.34496
1.35956
1.37418
1.38881
1.40345
1.41811
1.43279
1.44748
1.46218
1.47689
1.49162
1.50636
1.52111
1.53588
1.55066
1.56545
1.58026
1.59507
1.6099
1.62474
1.6396
1.65447
1.66935
1.68424
1.69915
1.71408
1.72902
1.74398
1.75896
1.77395
1.78897
1.80401
1.81908
1.83418
1.84932
1.86449
1.87973
-0.993796
-0.982737
-0.971874
-0.961165
-0.950683
-0.940409
-0.930305
-0.920352
-0.910524
-0.900787
-0.891124
-0.881497
-0.871874
-0.86222
-0.852501
-0.842681
-0.832721
-0.822586
-0.812241
-0.801649
-0.790777
-0.779596
-0.768073
-0.756184
-0.743905
-0.731216
-0.718101
-0.704547
-0.690548
-0.676096
-0.66118
-0.645806
-0.629999
-0.613866
-0.59758
-0.581215
-0.564779
-0.54832
-0.53189
-0.515492
-0.499128
-0.482803
-0.466525
-0.450297
-0.434126
-0.41801
-0.401959
-0.385967
-0.370042
-0.354184
-0.338391
-0.322666
-0.307004
-0.291406
-0.275869
-0.26039
-0.244969
-0.2296
-0.214282
-0.199014
-0.183789
-0.168608
-0.153466
-0.13836
-0.123289
-0.108249
-0.093239
-0.078254
-0.0632933
-0.0483539
-0.0334316
-0.0185267
-0.00363661
0.0112435
0.0261137
0.0409758
0.0558338
0.0706882
0.0855388
0.100389
0.115241
0.130095
0.144953
0.159817
0.174687
0.189562
0.204447
0.219342
0.234246
0.24916
0.264087
0.279028
0.293981
0.30895
0.323933
0.338931
0.353946
0.368976
0.384024
0.399089
0.414172
0.429274
0.444394
0.459533
0.474691
0.489869
0.505066
0.520282
0.535519
0.550775
0.566052
0.58135
0.596669
0.612008
0.627369
0.642751
0.658154
0.673578
0.689023
0.704489
0.719976
0.735485
0.751014
0.766565
0.782137
0.79773
0.813344
0.828979
0.844635
0.860311
0.876009
0.891727
0.907465
0.923223
0.939002
0.9548
0.970619
0.986457
1.00231
1.01819
1.03409
1.05
1.06594
1.08189
1.09786
1.11385
1.12985
1.14587
1.16191
1.17797
1.19405
1.21014
1.22624
1.24237
1.2585
1.27466
1.29082
1.30701
1.32321
1.33942
1.35565
1.37189
1.38815
1.40442
1.42071
1.43702
1.45334
1.46968
1.48604
1.50241
1.51881
1.53523
1.55167
1.56814
1.58463
1.60116
1.61772
1.63432
1.65096
1.66765
1.68441
-1.3975
-1.38598
-1.37462
-1.36346
-1.35248
-1.34166
-1.33097
-1.32039
-1.30988
-1.29942
-1.28898
-1.27853
-1.26802
-1.25744
-1.24673
-1.23586
-1.2248
-1.2135
-1.20194
-1.19008
-1.17789
-1.16533
-1.15239
-1.13904
-1.12526
-1.11103
-1.09634
-1.08118
-1.06555
-1.04943
-1.03283
-1.0158
-0.998426
-0.980867
-0.963206
-0.945463
-0.927685
-0.909927
-0.892202
-0.874516
-0.856875
-0.839287
-0.821757
-0.804292
-0.786891
-0.769563
-0.752303
-0.735119
-0.71801
-0.700974
-0.684014
-0.667126
-0.650307
-0.633557
-0.616871
-0.600248
-0.583683
-0.567174
-0.55072
-0.534313
-0.517953
-0.501636
-0.485358
-0.469117
-0.45291
-0.436735
-0.420586
-0.404462
-0.38836
-0.372276
-0.356209
-0.340159
-0.324118
-0.308085
-0.292061
-0.27604
-0.260021
-0.244005
-0.227988
-0.211967
-0.195943
-0.179913
-0.163875
-0.147828
-0.131773
-0.115707
-0.0996284
-0.0835373
-0.0674332
-0.0513138
-0.0351781
-0.0190259
-0.0028562
0.0133317
0.029538
0.0457632
0.0620079
0.078273
0.0945593
0.110867
0.127197
0.143548
0.159922
0.176319
0.192739
0.209182
0.225648
0.242137
0.258651
0.275188
0.291749
0.308335
0.324946
0.341582
0.358242
0.374927
0.391637
0.408372
0.425131
0.441915
0.458724
0.475557
0.492416
0.509299
0.526207
0.543139
0.560095
0.577076
0.594081
0.611111
0.628164
0.645241
0.662342
0.679466
0.696613
0.713784
0.730978
0.748194
0.765433
0.782694
0.799977
0.817281
0.834607
0.851953
0.86932
0.886707
0.904115
0.921543
0.938991
0.956458
0.973944
0.991449
1.00897
1.02651
1.04407
1.06165
1.07924
1.09685
1.11448
1.13213
1.14979
1.16747
1.18517
1.20289
1.22062
1.23838
1.25615
1.27395
1.29177
1.30961
1.32749
1.34538
1.36332
1.38128
1.39928
1.41733
1.43542
1.45356
1.47176
1.49003
-1.79788
-1.78589
-1.77404
-1.76235
-1.75081
-1.73938
-1.72803
-1.71674
-1.70549
-1.69424
-1.68295
-1.6716
-1.66014
-1.64854
-1.63676
-1.62477
-1.61252
-1.59999
-1.58714
-1.57393
-1.56035
-1.54635
-1.53193
-1.51705
-1.50171
-1.48588
-1.46956
-1.45275
-1.43543
-1.41762
-1.39937
-1.38076
-1.36194
-1.343
-1.32396
-1.30488
-1.28581
-1.26677
-1.24777
-1.22882
-1.20993
-1.19111
-1.17236
-1.15368
-1.13508
-1.11656
-1.09813
-1.07977
-1.0615
-1.04332
-1.02521
-1.00718
-0.98922
-0.971334
-0.953517
-0.935763
-0.918071
-0.900437
-0.882855
-0.865323
-0.847838
-0.830394
-0.81299
-0.795623
-0.778289
-0.760983
-0.743702
-0.726446
-0.709207
-0.691985
-0.67478
-0.657585
-0.640396
-0.623216
-0.606039
-0.588863
-0.571688
-0.554511
-0.537328
-0.520139
-0.502944
-0.485738
-0.468521
-0.451294
-0.434053
-0.416797
-0.399526
-0.382239
-0.364934
-0.34761
-0.330266
-0.312901
-0.295516
-0.278109
-0.260679
-0.243227
-0.225751
-0.208251
-0.190726
-0.173175
-0.155599
-0.137997
-0.120369
-0.102713
-0.0850317
-0.0673233
-0.0495879
-0.0318252
-0.014035
0.00378321
0.0216297
0.0395045
0.0574078
0.0753395
0.0932995
0.111288
0.129305
0.14735
0.165423
0.183525
0.201655
0.219814
0.238001
0.256216
0.274459
0.292729
0.311028
0.329354
0.347708
0.36609
0.384498
0.402933
0.421395
0.439884
0.458399
0.47694
0.495507
0.5141
0.532718
0.551361
0.570028
0.58872
0.607435
0.626173
0.644935
0.66372
0.682528
0.701358
0.720211
0.739084
0.757979
0.776895
0.795832
0.814788
0.833764
0.852759
0.871775
0.89081
0.909865
0.92894
0.948035
0.967151
0.986287
1.00545
1.02463
1.04383
1.06306
1.08232
1.1016
1.12092
1.14026
1.15965
1.17908
1.19855
1.21807
1.23764
1.25727
1.27697
1.29675
-2.20728
-2.19464
-2.18212
-2.16972
-2.15744
-2.14526
-2.13315
-2.12108
-2.10903
-2.09696
-2.08484
-2.07263
-2.0603
-2.04781
-2.03511
-2.02219
-2.00899
-1.99548
-1.98164
-1.96742
-1.9528
-1.93776
-1.92226
-1.90629
-1.88983
-1.87287
-1.85539
-1.8374
-1.81888
-1.79987
-1.7804
-1.76058
-1.74051
-1.7203
-1.69998
-1.67961
-1.65924
-1.63889
-1.61859
-1.59835
-1.57817
-1.55806
-1.53803
-1.51808
-1.49823
-1.47846
-1.45878
-1.43919
-1.41969
-1.40029
-1.38097
-1.36173
-1.34258
-1.3235
-1.3045
-1.28556
-1.26669
-1.24789
-1.22914
-1.21044
-1.1918
-1.17319
-1.15464
-1.13612
-1.11763
-1.09918
-1.08075
-1.06234
-1.04396
-1.02559
-1.00723
-0.988892
-0.970557
-0.952228
-0.933902
-0.915576
-0.897249
-0.878919
-0.860583
-0.842238
-0.823884
-0.805518
-0.787139
-0.768747
-0.750339
-0.731914
-0.71347
-0.695008
-0.676525
-0.65802
-0.639492
-0.620941
-0.602365
-0.583765
-0.565139
-0.546488
-0.527809
-0.509102
-0.490367
-0.471604
-0.452811
-0.433989
-0.415137
-0.396254
-0.377342
-0.358399
-0.339426
-0.320422
-0.301387
-0.28232
-0.263221
-0.244091
-0.224928
-0.205733
-0.186507
-0.167248
-0.147957
-0.128635
-0.10928
-0.0898941
-0.0704757
-0.0510251
-0.0315428
-0.0120291
0.00751598
0.0270924
0.0467002
0.0663391
0.0860092
0.10571
0.125441
0.145202
0.164993
0.184815
0.204665
0.224545
0.244454
0.264392
0.284358
0.304352
0.324374
0.344423
0.364498
0.384599
0.404726
0.42488
0.445058
0.465262
0.485491
0.505743
0.52602
0.54632
0.566642
0.586986
0.607353
0.627742
0.648153
0.668586
0.689041
0.709519
0.730019
0.750542
0.771089
0.79166
0.812257
0.83288
0.853533
0.874216
0.89493
0.915682
0.936471
0.957302
0.978181
0.99911
1.02009
1.04114
1.06225
1.08344
1.10471
-2.60058
-2.58736
-2.57425
-2.56123
-2.54831
-2.53542
-2.52257
-2.50972
-2.49683
-2.48387
-2.4708
-2.4576
-2.44421
-2.4306
-2.41674
-2.40259
-2.38811
-2.37328
-2.35805
-2.3424
-2.3263
-2.30973
-2.29267
-2.2751
-2.257
-2.23837
-2.2192
-2.1995
-2.17929
-2.15862
-2.13758
-2.11627
-2.09481
-2.07322
-2.05157
-2.02991
-2.00828
-1.98669
-1.96515
-1.94369
-1.92231
-1.90102
-1.87981
-1.85871
-1.83769
-1.81678
-1.79597
-1.77526
-1.75464
-1.73412
-1.71369
-1.69334
-1.67308
-1.6529
-1.6328
-1.61276
-1.59279
-1.57288
-1.55303
-1.53324
-1.51349
-1.49378
-1.47412
-1.45449
-1.43489
-1.41532
-1.39578
-1.37625
-1.35675
-1.33726
-1.31778
-1.2983
-1.27883
-1.25937
-1.2399
-1.22043
-1.20096
-1.18147
-1.16198
-1.14248
-1.12296
-1.10343
-1.08388
-1.06431
-1.04473
-1.02512
-1.00549
-0.985838
-0.96616
-0.946457
-0.926727
-0.906971
-0.887186
-0.867373
-0.847531
-0.827658
-0.807754
-0.787818
-0.76785
-0.74785
-0.727817
-0.70775
-0.687649
-0.667515
-0.647347
-0.627145
-0.606909
-0.586638
-0.566332
-0.54599
-0.525613
-0.5052
-0.484752
-0.464268
-0.443748
-0.423193
-0.402602
-0.381976
-0.361315
-0.340617
-0.319885
-0.299116
-0.278313
-0.257476
-0.236603
-0.215696
-0.194754
-0.173778
-0.152767
-0.131723
-0.110646
-0.0895348
-0.0683907
-0.047214
-0.0260051
-0.00476396
0.016509
0.0378135
0.059149
0.0805148
0.101911
0.123335
0.14479
0.166273
0.187784
0.209324
0.230891
0.252486
0.274107
0.295755
0.317428
0.339126
0.360849
0.382597
0.404369
0.426165
0.447986
0.469831
0.491701
0.513596
0.535516
0.557463
0.579436
0.60144
0.623472
0.645537
0.667636
0.68977
0.711947
0.734166
0.756432
0.778752
0.801128
0.823567
0.846076
0.868659
0.891324
0.914079
-2.98947
-2.97561
-2.96187
-2.94819
-2.93453
-2.92089
-2.90724
-2.89353
-2.87973
-2.8658
-2.85172
-2.83744
-2.82292
-2.80813
-2.79302
-2.77757
-2.76175
-2.74551
-2.72883
-2.71168
-2.69404
-2.67588
-2.6572
-2.63797
-2.61819
-2.59786
-2.57698
-2.55557
-2.5337
-2.51146
-2.48893
-2.46622
-2.44338
-2.42047
-2.39753
-2.37462
-2.35175
-2.32895
-2.30622
-2.28357
-2.26102
-2.23857
-2.21623
-2.19399
-2.17185
-2.14983
-2.12791
-2.10609
-2.08437
-2.06276
-2.04124
-2.01981
-1.99846
-1.97719
-1.956
-1.93488
-1.91382
-1.89282
-1.87188
-1.85099
-1.83015
-1.80935
-1.78859
-1.76786
-1.74716
-1.72649
-1.70584
-1.6852
-1.66458
-1.64397
-1.62337
-1.60277
-1.58217
-1.56157
-1.54097
-1.52036
-1.49974
-1.47911
-1.45847
-1.43781
-1.41713
-1.39643
-1.37572
-1.35498
-1.33422
-1.31343
-1.29262
-1.27178
-1.25091
-1.23002
-1.20909
-1.18813
-1.16714
-1.14611
-1.12506
-1.10397
-1.08284
-1.06168
-1.04048
-1.01924
-0.997973
-0.976665
-0.955319
-0.933936
-0.912515
-0.891057
-0.86956
-0.848025
-0.82645
-0.804836
-0.783184
-0.761492
-0.73976
-0.71799
-0.69618
-0.674332
-0.652445
-0.630519
-0.608553
-0.586549
-0.564505
-0.542424
-0.520304
-0.498146
-0.475949
-0.453715
-0.431443
-0.409134
-0.386788
-0.364405
-0.341985
-0.319529
-0.297037
-0.27451
-0.251948
-0.22935
-0.206719
-0.184053
-0.161354
-0.138622
-0.115858
-0.093062
-0.0702345
-0.0473758
-0.0244862
-0.0015665
0.0213833
0.0443621
0.0673693
0.0904051
0.113468
0.136558
0.159675
0.182819
0.205989
0.229186
0.25241
0.275661
0.298939
0.322245
0.34558
0.368945
0.392343
0.415773
0.439238
0.462742
0.486285
0.509874
0.533511
0.5572
0.58095
0.604762
0.628643
0.652602
0.676642
0.700771
0.724999
-3.37348
-3.35901
-3.34459
-3.33015
-3.31573
-3.30127
-3.28674
-3.2721
-3.25732
-3.24236
-3.22718
-3.21175
-3.19602
-3.17997
-3.16355
-3.14673
-3.12949
-3.11178
-3.09358
-3.07487
-3.05563
-3.03584
-3.01549
-2.99456
-2.97307
-2.95101
-2.92843
-2.90537
-2.88193
-2.85819
-2.83424
-2.81016
-2.786
-2.7618
-2.73763
-2.7135
-2.68943
-2.66545
-2.64155
-2.61776
-2.59408
-2.5705
-2.54704
-2.5237
-2.50047
-2.47735
-2.45435
-2.43146
-2.40867
-2.38598
-2.36338
-2.34088
-2.31846
-2.29612
-2.27386
-2.25166
-2.22953
-2.20746
-2.18544
-2.16348
-2.14155
-2.11967
-2.09782
-2.076
-2.05421
-2.03243
-2.01068
-1.98894
-1.96721
-1.94549
-1.92377
-1.90205
-1.88033
-1.85861
-1.83687
-1.81513
-1.79337
-1.7716
-1.74981
-1.72799
-1.70616
-1.68431
-1.66243
-1.64053
-1.61859
-1.59663
-1.57464
-1.55262
-1.53056
-1.50847
-1.48635
-1.46419
-1.442
-1.41977
-1.3975
-1.37519
-1.35285
-1.33046
-1.30804
-1.28557
-1.26307
-1.24052
-1.21793
-1.1953
-1.17263
-1.14992
-1.12717
-1.10437
-1.08153
-1.05865
-1.03573
-1.01276
-0.989751
-0.966699
-0.943605
-0.920468
-0.897288
-0.874066
-0.850801
-0.827494
-0.804146
-0.780755
-0.757323
-0.733849
-0.710335
-0.686779
-0.663182
-0.639546
-0.615869
-0.592152
-0.568396
-0.544601
-0.520768
-0.496896
-0.472987
-0.44904
-0.425056
-0.401035
-0.37698
-0.352889
-0.328763
-0.304604
-0.28041
-0.256183
-0.231923
-0.20763
-0.183306
-0.158951
-0.134566
-0.11015
-0.0857055
-0.0612315
-0.0367288
-0.0121971
0.0123637
0.0369537
0.0615733
0.0862221
0.110902
0.135613
0.160356
0.185136
0.209951
0.234803
0.2597
0.284638
0.309627
0.334669
0.359769
0.384934
0.410168
0.435478
0.460873
0.486358
0.511938
0.537625
-3.76755
-3.75235
-3.73719
-3.72198
-3.70677
-3.69151
-3.67615
-3.66067
-3.64504
-3.6292
-3.61313
-3.59678
-3.58013
-3.56312
-3.54574
-3.52793
-3.50968
-3.49094
-3.4717
-3.45193
-3.43161
-3.41071
-3.38924
-3.36718
-3.34453
-3.32131
-3.29755
-3.27332
-3.24868
-3.22374
-3.19858
-3.17327
-3.14786
-3.12243
-3.097
-3.07162
-3.04631
-3.02108
-2.99595
-2.97093
-2.94603
-2.92124
-2.89657
-2.87203
-2.84761
-2.82331
-2.79914
-2.77507
-2.75112
-2.72728
-2.70353
-2.67989
-2.65633
-2.63286
-2.60946
-2.58614
-2.56289
-2.5397
-2.51656
-2.49348
-2.47044
-2.44745
-2.42449
-2.40156
-2.37866
-2.35578
-2.33292
-2.31007
-2.28724
-2.26441
-2.24158
-2.21875
-2.19592
-2.17308
-2.15024
-2.12738
-2.1045
-2.08161
-2.0587
-2.03577
-2.01281
-1.98983
-1.96682
-1.94378
-1.92072
-1.89762
-1.87448
-1.85132
-1.82812
-1.80488
-1.7816
-1.75829
-1.73494
-1.71154
-1.68811
-1.66464
-1.64112
-1.61756
-1.59395
-1.57031
-1.54662
-1.52288
-1.4991
-1.47528
-1.45141
-1.4275
-1.40354
-1.37953
-1.35548
-1.33138
-1.30724
-1.28305
-1.25881
-1.23453
-1.2102
-1.18583
-1.1614
-1.13694
-1.11243
-1.08787
-1.06326
-1.03862
-1.01392
-0.989185
-0.964402
-0.939576
-0.914705
-0.88979
-0.864833
-0.839832
-0.814789
-0.789704
-0.764578
-0.73941
-0.714201
-0.688952
-0.663663
-0.638334
-0.612968
-0.587563
-0.562121
-0.536643
-0.511127
-0.485576
-0.459989
-0.434367
-0.408711
-0.383022
-0.3573
-0.331546
-0.30576
-0.279942
-0.254094
-0.228214
-0.202303
-0.176361
-0.150386
-0.12438
-0.0983409
-0.0722669
-0.0461589
-0.0200119
0.00617427
0.0324007
0.0586746
0.0849951
0.111369
0.137802
0.164298
0.190864
0.217506
0.244231
0.271048
0.297962
0.324978
0.352108
-4.14158
-4.12565
-4.1097
-4.0937
-4.07763
-4.06145
-4.04513
-4.02864
-4.01193
-3.99496
-3.97771
-3.96012
-3.94217
-3.92382
-3.90503
-3.88578
-3.86602
-3.84574
-3.82491
-3.8035
-3.78152
-3.75893
-3.73573
-3.71194
-3.68757
-3.66265
-3.63724
-3.61143
-3.58529
-3.55893
-3.5324
-3.50577
-3.4791
-3.45245
-3.42583
-3.39929
-3.37283
-3.34648
-3.32025
-3.29413
-3.26815
-3.24229
-3.21656
-3.19097
-3.1655
-3.14016
-3.11494
-3.08984
-3.06486
-3.03998
-3.0152
-2.99052
-2.96592
-2.94141
-2.91697
-2.89261
-2.86831
-2.84407
-2.81989
-2.79575
-2.77166
-2.7476
-2.72358
-2.69958
-2.67561
-2.65165
-2.62771
-2.60378
-2.57985
-2.55593
-2.532
-2.50807
-2.48414
-2.46019
-2.43623
-2.41225
-2.38825
-2.36423
-2.34019
-2.31612
-2.29202
-2.2679
-2.24374
-2.21955
-2.19533
-2.17107
-2.14677
-2.12243
-2.09806
-2.07364
-2.04919
-2.02469
-2.00015
-1.97556
-1.95093
-1.92625
-1.90153
-1.87676
-1.85195
-1.82709
-1.80217
-1.77722
-1.75221
-1.72716
-1.70205
-1.6769
-1.6517
-1.62645
-1.60115
-1.57579
-1.55039
-1.52494
-1.49944
-1.4739
-1.4483
-1.42265
-1.39695
-1.37121
-1.34541
-1.31957
-1.29367
-1.26773
-1.24174
-1.21571
-1.18962
-1.16349
-1.13732
-1.11109
-1.08482
-1.0585
-1.03214
-1.00574
-0.979287
-0.952793
-0.926256
-0.899676
-0.873054
-0.846391
-0.819687
-0.792943
-0.76616
-0.739337
-0.712476
-0.685577
-0.65864
-0.631667
-0.604658
-0.577614
-0.550535
-0.523423
-0.496276
-0.469097
-0.441884
-0.414637
-0.387357
-0.360042
-0.332694
-0.30531
-0.277888
-0.25043
-0.222931
-0.195388
-0.167803
-0.140167
-0.11248
-0.0847351
-0.0569268
-0.029051
-0.0010992
0.0269352
0.0550592
0.0832813
0.111609
0.140045
0.168602
-4.50966
-4.49297
-4.47619
-4.45932
-4.44231
-4.42516
-4.40781
-4.39023
-4.37237
-4.35421
-4.3357
-4.3168
-4.29749
-4.27772
-4.25747
-4.2367
-4.21538
-4.19349
-4.17102
-4.14794
-4.12425
-4.09993
-4.07501
-4.04949
-4.02342
-3.99685
-3.96986
-3.94255
-3.91499
-3.88725
-3.85942
-3.83154
-3.80366
-3.77583
-3.74807
-3.7204
-3.69285
-3.66541
-3.6381
-3.61093
-3.5839
-3.557
-3.53025
-3.50363
-3.47714
-3.45078
-3.42455
-3.39843
-3.37243
-3.34654
-3.32074
-3.29504
-3.26942
-3.24389
-3.21843
-3.19303
-3.1677
-3.14243
-3.11721
-3.09203
-3.06689
-3.04178
-3.0167
-2.99164
-2.96661
-2.94158
-2.91657
-2.89156
-2.86655
-2.84155
-2.81653
-2.79151
-2.76647
-2.74142
-2.71635
-2.69126
-2.66615
-2.64101
-2.61584
-2.59064
-2.56541
-2.54015
-2.51485
-2.48951
-2.46414
-2.43872
-2.41327
-2.38777
-2.36223
-2.33664
-2.31101
-2.28534
-2.25961
-2.23384
-2.20802
-2.18215
-2.15623
-2.13026
-2.10423
-2.07816
-2.05204
-2.02586
-1.99964
-1.97336
-1.94703
-1.92064
-1.89421
-1.86772
-1.84117
-1.81458
-1.78793
-1.76123
-1.73447
-1.70767
-1.6808
-1.65389
-1.62693
-1.59991
-1.57284
-1.54572
-1.51854
-1.49132
-1.46404
-1.43672
-1.40934
-1.38191
-1.35444
-1.32691
-1.29934
-1.27171
-1.24405
-1.21633
-1.18856
-1.16075
-1.1329
-1.105
-1.07705
-1.04907
-1.02104
-0.992963
-0.964849
-0.936693
-0.908497
-0.880261
-0.851986
-0.823674
-0.795323
-0.766936
-0.738512
-0.710053
-0.681558
-0.653027
-0.624461
-0.595859
-0.56722
-0.538545
-0.509832
-0.481079
-0.452287
-0.423451
-0.394569
-0.365641
-0.336659
-0.307621
-0.278522
-0.249356
-0.220116
-0.190795
-0.161386
-0.13188
-0.102269
-0.0725458
-0.0427062
-0.0127405
-4.8889
-4.87147
-4.85393
-4.83626
-4.81843
-4.80044
-4.78224
-4.76379
-4.74505
-4.72598
-4.70654
-4.68671
-4.66644
-4.64569
-4.62445
-4.60266
-4.58032
-4.55739
-4.53385
-4.50969
-4.4849
-4.45947
-4.43342
-4.40677
-4.37955
-4.35184
-4.32369
-4.2952
-4.26646
-4.23754
-4.20851
-4.17943
-4.15035
-4.12131
-4.09236
-4.06349
-4.03475
-4.00613
-3.97765
-3.9493
-3.92111
-3.89306
-3.86516
-3.8374
-3.80978
-3.7823
-3.75495
-3.72772
-3.70061
-3.67361
-3.64672
-3.61992
-3.59322
-3.5666
-3.54006
-3.51359
-3.48718
-3.46083
-3.43453
-3.40828
-3.38207
-3.3559
-3.32975
-3.30363
-3.27752
-3.25143
-3.22535
-3.19927
-3.1732
-3.14712
-3.12103
-3.09494
-3.06883
-3.0427
-3.01655
-2.99038
-2.96419
-2.93797
-2.91171
-2.88543
-2.85911
-2.83275
-2.80636
-2.77993
-2.75345
-2.72693
-2.70037
-2.67377
-2.64711
-2.62041
-2.59367
-2.56687
-2.54002
-2.51312
-2.48617
-2.45916
-2.43211
-2.405
-2.37783
-2.35061
-2.32334
-2.29601
-2.26863
-2.24119
-2.21369
-2.18614
-2.15854
-2.13087
-2.10315
-2.07538
-2.04754
-2.01965
-1.99171
-1.96371
-1.93565
-1.90754
-1.87937
-1.85114
-1.82286
-1.79453
-1.76614
-1.73769
-1.70919
-1.68064
-1.65203
-1.62338
-1.59466
-1.5659
-1.53708
-1.50822
-1.4793
-1.45033
-1.42131
-1.39225
-1.36313
-1.33397
-1.30476
-1.27551
-1.24621
-1.21686
-1.18747
-1.15804
-1.12856
-1.09904
-1.06948
-1.03988
-1.01024
-0.980564
-0.950846
-0.921091
-0.891298
-0.861466
-0.831597
-0.80169
-0.771744
-0.741759
-0.711735
-0.681667
-0.651558
-0.621403
-0.591199
-0.560945
-0.530635
-0.500264
-0.469829
-0.439322
-0.408736
-0.378064
-0.347298
-0.316428
-0.285448
-0.254346
-0.223122
-0.191766
-5.24492
-5.2266
-5.20815
-5.18949
-5.17066
-5.15161
-5.13229
-5.11267
-5.0927
-5.07234
-5.05157
-5.03035
-5.00864
-4.9864
-4.96362
-4.94025
-4.91628
-4.89168
-4.86645
-4.84057
-4.81405
-4.78688
-4.7591
-4.73076
-4.7019
-4.6726
-4.64296
-4.61305
-4.58295
-4.55274
-4.52248
-4.49222
-4.462
-4.43186
-4.40181
-4.3719
-4.34211
-4.31247
-4.28298
-4.25364
-4.22446
-4.19542
-4.16654
-4.13781
-4.10922
-4.08076
-4.05244
-4.02424
-3.99615
-3.96818
-3.9403
-3.91253
-3.88484
-3.85723
-3.82969
-3.80222
-3.77481
-3.74746
-3.72016
-3.69289
-3.66566
-3.63846
-3.61128
-3.58413
-3.55698
-3.52985
-3.50272
-3.47559
-3.44845
-3.42131
-3.39416
-3.36699
-3.3398
-3.3126
-3.28536
-3.2581
-3.23081
-3.20349
-3.17613
-3.14874
-3.12131
-3.09383
-3.06632
-3.03876
-3.01115
-2.9835
-2.9558
-2.92805
-2.90025
-2.8724
-2.8445
-2.81654
-2.78853
-2.76047
-2.73234
-2.70417
-2.67593
-2.64764
-2.61929
-2.59088
-2.56242
-2.53389
-2.50531
-2.47667
-2.44797
-2.41921
-2.39039
-2.3615
-2.33256
-2.30356
-2.2745
-2.24539
-2.21621
-2.18697
-2.15767
-2.12832
-2.0989
-2.06943
-2.03989
-2.0103
-1.98066
-1.95095
-1.92119
-1.89137
-1.8615
-1.83157
-1.80158
-1.77154
-1.74145
-1.7113
-1.6811
-1.65084
-1.62054
-1.59018
-1.55977
-1.52932
-1.49881
-1.46826
-1.43766
-1.40701
-1.37632
-1.34558
-1.3148
-1.28397
-1.2531
-1.22219
-1.19124
-1.16024
-1.12921
-1.09814
-1.06702
-1.03587
-1.00467
-0.973438
-0.942162
-0.910844
-0.879481
-0.848072
-0.816617
-0.785109
-0.753547
-0.721928
-0.690243
-0.65849
-0.626662
-0.594749
-0.562746
-0.530641
-0.498428
-0.466096
-0.433638
-0.401047
-0.36832
-5.5939
-5.57463
-5.55518
-5.53551
-5.51561
-5.49543
-5.47492
-5.45405
-5.43279
-5.41109
-5.38892
-5.36624
-5.34303
-5.31924
-5.29486
-5.26986
-5.24422
-5.21792
-5.19097
-5.16335
-5.13508
-5.10619
-5.07672
-5.04674
-5.01631
-4.98552
-4.95445
-4.9232
-4.89182
-4.86039
-4.82896
-4.79757
-4.76627
-4.73507
-4.704
-4.67306
-4.64228
-4.61165
-4.58119
-4.55089
-4.52074
-4.49076
-4.46093
-4.43125
-4.4017
-4.3723
-4.34302
-4.31387
-4.28483
-4.2559
-4.22706
-4.19832
-4.16966
-4.14108
-4.11256
-4.08411
-4.05572
-4.02737
-3.99907
-3.9708
-3.94256
-3.91435
-3.88616
-3.85798
-3.8298
-3.80164
-3.77347
-3.7453
-3.71711
-3.68892
-3.66071
-3.63248
-3.60422
-3.57594
-3.54763
-3.51929
-3.49091
-3.4625
-3.43405
-3.40556
-3.37702
-3.34844
-3.31981
-3.29113
-3.26241
-3.23363
-3.2048
-3.17592
-3.14699
-3.11799
-3.08894
-3.05984
-3.03067
-3.00145
-2.97217
-2.94283
-2.91342
-2.88396
-2.85444
-2.82485
-2.7952
-2.76549
-2.73572
-2.70589
-2.67599
-2.64603
-2.616
-2.58592
-2.55577
-2.52555
-2.49528
-2.46494
-2.43454
-2.40408
-2.37355
-2.34296
-2.31231
-2.2816
-2.25083
-2.22
-2.18911
-2.15815
-2.12714
-2.09607
-2.06494
-2.03375
-2.0025
-1.9712
-1.93984
-1.90842
-1.87695
-1.84543
-1.81385
-1.78221
-1.75053
-1.71879
-1.68701
-1.65517
-1.62328
-1.59135
-1.55937
-1.52734
-1.49526
-1.46314
-1.43098
-1.39877
-1.36652
-1.33423
-1.30189
-1.26951
-1.23709
-1.20463
-1.17213
-1.13958
-1.10699
-1.07435
-1.04166
-1.00892
-0.976131
-0.943282
-0.910372
-0.877394
-0.844343
-0.811213
-0.777994
-0.744679
-0.711257
-0.67772
-0.644059
-0.610264
-0.576328
-0.54225
-5.93539
-5.91515
-5.89467
-5.87392
-5.85288
-5.8315
-5.80973
-5.78756
-5.76494
-5.74183
-5.7182
-5.69401
-5.66923
-5.64385
-5.61783
-5.59115
-5.5638
-5.53578
-5.50708
-5.47772
-5.44773
-5.41715
-5.38605
-5.3545
-5.32257
-5.29037
-5.25797
-5.22545
-5.19287
-5.16029
-5.12775
-5.0953
-5.06296
-5.03075
-4.99869
-4.96679
-4.93505
-4.90348
-4.87208
-4.84084
-4.80977
-4.77886
-4.7481
-4.71749
-4.68702
-4.65669
-4.62649
-4.5964
-4.56643
-4.53655
-4.50677
-4.47708
-4.44747
-4.41792
-4.38844
-4.35903
-4.32966
-4.30033