/*--------------------------------*- C++ -*----------------------------------*\
| =========                 |                                                 |
| \\      /  F ield         | OpenFOAM: The Open Source CFD Toolbox           |
|  \\    /   O peration     | Version:  2512                                  |
|   \\  /    A nd           | Website:  www.openfoam.com                      |
|    \\/     M anipulation  |                                                 |
\*---------------------------------------------------------------------------*/
FoamFile
{
    version     2.0;
    format      ascii;
    arch        "LSB;label=32;scalar=64";
    class       surfaceScalarField;
    location    "0.1";
    object      phi;
}
// * * * * * * * * * * * * * * * * * * * * * * * * * * * * * * * * * * * * * //

dimensions      [1 0 -1 0 0 0 0];

oriented        oriented;

internalField   nonuniform List<scalar> 
16434
(
0.00261249
-3.34629e-07
0.00261296
-2.09547e-07
0.00261339
-1.56602e-07
0.00261383
-1.19539e-07
0.00261426
-8.35245e-08
0.00261467
-3.32018e-08
0.00261509
-1.34874e-08
0.00261552
4.63198e-09
0.00261593
3.6549e-08
0.00261635
5.84936e-08
0.00261677
7.63091e-08
0.00261718
9.59583e-08
0.0026176
1.1381e-07
0.00261801
1.30925e-07
0.00261842
1.48093e-07
0.00261883
1.64039e-07
0.00261924
1.79786e-07
0.00261965
1.95824e-07
0.00262006
2.11632e-07
0.00262046
2.27683e-07
0.00262087
2.43172e-07
0.00262127
2.60305e-07
0.00262168
2.75626e-07
0.00262208
2.93731e-07
0.00262248
3.10363e-07
0.00262289
3.26829e-07
0.00262328
3.48979e-07
0.00262369
3.60927e-07
0.00262408
3.96412e-07
0.00262449
3.96619e-07
0.00262488
4.45077e-07
0.00262529
4.39182e-07
0.00262568
5.19341e-07
0.00262611
4.97827e-07
0.00262652
5.973e-07
0.00262699
5.23281e-07
0.00262736
2.56189e-07
0.00262772
2.60101e-07
0.00262807
2.07918e-07
0.00262843
1.51817e-07
0.0026288
1.44902e-07
0.00262916
1.47655e-07
0.00262953
1.44368e-07
0.00262989
1.40686e-07
0.00263026
1.38841e-07
0.00263062
1.37946e-07
0.00263098
1.37528e-07
0.00263135
1.37548e-07
0.00263171
1.37873e-07
0.00263207
1.38401e-07
0.00263243
1.39063e-07
0.00263278
1.39752e-07
0.00263314
1.40444e-07
0.0026335
1.41103e-07
0.00263385
1.41701e-07
0.00263421
1.42226e-07
0.00263456
1.42678e-07
0.00263491
1.43046e-07
0.00263526
1.4332e-07
0.00263562
1.43502e-07
0.00263596
1.43585e-07
0.00263631
1.43576e-07
0.00263666
1.43473e-07
0.00263701
1.43282e-07
0.00263735
1.43003e-07
0.00263769
1.42649e-07
0.00263804
1.4222e-07
0.00263838
1.41722e-07
0.00263872
1.41162e-07
0.00263906
1.40542e-07
0.0026394
1.39864e-07
0.00263974
1.39132e-07
0.00264007
1.38348e-07
0.00264041
1.37514e-07
0.00264074
1.36631e-07
0.00264107
1.35702e-07
0.0026414
1.34726e-07
0.00264174
1.33716e-07
0.00264206
1.32666e-07
0.00264239
1.31591e-07
0.00264272
1.30489e-07
0.00264305
1.29361e-07
0.00264337
1.28203e-07
0.00264369
1.27002e-07
0.00264402
1.25793e-07
0.00264434
1.24559e-07
0.00264466
1.23313e-07
0.00264498
1.2205e-07
0.00264529
1.2076e-07
0.00264561
1.19447e-07
0.00264593
1.18113e-07
0.00264624
1.16754e-07
0.00264655
1.15386e-07
0.00264686
1.14011e-07
0.00264718
1.12621e-07
0.00264748
1.11223e-07
0.00264779
1.09815e-07
0.0026481
1.08377e-07
0.0026484
1.06942e-07
0.00264871
1.055e-07
0.00264901
1.04038e-07
0.00264931
1.02571e-07
0.00264961
1.01099e-07
0.00264991
9.9611e-08
0.00265021
9.81081e-08
0.00265051
9.65951e-08
0.0026508
9.50815e-08
0.0026511
9.35617e-08
0.00265139
9.20237e-08
0.00265168
9.04603e-08
0.00265197
8.89405e-08
0.00265226
8.7376e-08
0.00265255
8.58203e-08
0.00265284
8.42526e-08
0.00265312
8.26665e-08
0.0026534
8.10906e-08
0.00265369
7.94997e-08
0.00265397
7.79082e-08
0.00265425
7.62945e-08
0.00265453
7.4668e-08
0.0026548
7.30737e-08
0.00265508
7.1444e-08
0.00265535
6.9819e-08
0.00265563
6.81858e-08
0.0026559
6.6544e-08
0.00265617
6.48981e-08
0.00265644
6.32589e-08
0.00265671
6.15779e-08
0.00265697
5.99418e-08
0.00265724
5.82984e-08
0.0026575
5.66345e-08
0.00265776
5.49655e-08
0.00265802
5.32977e-08
0.00265828
5.161e-08
0.00265854
4.98995e-08
0.0026588
4.81639e-08
0.00265905
4.64883e-08
0.00265931
4.47771e-08
0.00265956
4.3071e-08
0.00265981
4.13575e-08
0.00266006
3.96467e-08
0.00266031
3.78922e-08
0.00266056
3.61989e-08
0.0026608
3.45084e-08
0.00266105
3.27938e-08
0.00266129
3.10787e-08
0.00266153
2.93205e-08
0.00266177
2.74877e-08
0.00266201
2.57916e-08
0.00266224
2.40553e-08
0.00266248
2.23016e-08
0.00266271
2.05289e-08
0.00266295
1.86332e-08
0.00266318
1.69685e-08
0.00266341
1.52477e-08
0.00266363
1.3489e-08
0.00266386
1.15981e-08
0.00266409
9.7769e-09
0.00266431
8.06036e-09
0.00266453
6.32621e-09
0.00266475
4.59103e-09
0.00266497
2.83424e-09
0.00266519
1.06311e-09
0.0026654
-6.95045e-10
0.00266562
-2.4113e-09
0.00266583
-4.1491e-09
0.00266604
-5.81709e-09
0.00266625
-7.29437e-09
0.00266646
-8.96117e-09
0.00266667
-1.06211e-08
0.00266687
-1.22313e-08
0.00266708
-1.37769e-08
0.00266728
-1.53038e-08
0.00266748
-1.66358e-08
0.00266768
-1.81784e-08
0.00266788
-1.8818e-08
0.00266807
-2.10597e-08
0.00266827
-1.9107e-08
0.00266846
-2.51795e-08
0.00266865
-1.50891e-08
0.00266884
-3.28506e-08
0.00266905
-6.88374e-09
0.0026692
-3.11946e-08
4.64525e-09
0.00261245
0.002613
-3.80728e-07
0.00261342
-1.619e-07
0.00261382
-9.20058e-08
0.00261425
-1.01775e-07
0.00261468
-3.80763e-08
0.0026151
-2.17804e-08
0.00261552
2.83389e-09
0.00261594
3.76412e-08
0.00261635
5.7119e-08
0.00261677
7.52349e-08
0.00261718
9.60221e-08
0.0026176
1.13775e-07
0.00261801
1.30955e-07
0.00261842
1.48285e-07
0.00261883
1.64191e-07
0.00261924
1.79942e-07
0.00261965
1.9616e-07
0.00262006
2.12106e-07
0.00262047
2.28075e-07
0.00262087
2.43778e-07
0.00262128
2.60618e-07
0.00262168
2.76464e-07
0.00262208
2.93921e-07
0.00262249
3.11169e-07
0.00262289
3.27185e-07
0.00262329
3.49307e-07
0.00262369
3.61568e-07
0.00262409
3.9489e-07
0.00262449
3.97159e-07
0.00262489
4.44409e-07
0.00262529
4.35892e-07
0.00262569
5.13337e-07
0.0026261
4.81131e-07
0.00262653
5.66472e-07
0.00262696
4.78571e-07
0.00262734
2.72134e-07
0.00262771
2.78009e-07
0.00262807
2.42545e-07
0.00262843
1.816e-07
0.0026288
1.65753e-07
0.00262916
1.68297e-07
0.00262953
1.65752e-07
0.00262989
1.61579e-07
0.00263026
1.59227e-07
0.00263062
1.58051e-07
0.00263098
1.57444e-07
0.00263135
1.5727e-07
0.00263171
1.57454e-07
0.00263207
1.57871e-07
0.00263243
1.58444e-07
0.00263278
1.59076e-07
0.00263314
1.59723e-07
0.0026335
1.60355e-07
0.00263385
1.60933e-07
0.00263421
1.61446e-07
0.00263456
1.61889e-07
0.00263491
1.62253e-07
0.00263527
1.62529e-07
0.00263562
1.62714e-07
0.00263596
1.62804e-07
0.00263631
1.62799e-07
0.00263666
1.62705e-07
0.00263701
1.62525e-07
0.00263735
1.6226e-07
0.00263769
1.61917e-07
0.00263804
1.61503e-07
0.00263838
1.61021e-07
0.00263872
1.60477e-07
0.00263906
1.5987e-07
0.0026394
1.59208e-07
0.00263974
1.58493e-07
0.00264007
1.5773e-07
0.00264041
1.5692e-07
0.00264074
1.56054e-07
0.00264107
1.55146e-07
0.0026414
1.54198e-07
0.00264174
1.53203e-07
0.00264206
1.52183e-07
0.00264239
1.51122e-07
0.00264272
1.5004e-07
0.00264305
1.48933e-07
0.00264337
1.47798e-07
0.00264369
1.46635e-07
0.00264402
1.45451e-07
0.00264434
1.4426e-07
0.00264466
1.43035e-07
0.00264498
1.41794e-07
0.00264529
1.40522e-07
0.00264561
1.3923e-07
0.00264593
1.37915e-07
0.00264624
1.3658e-07
0.00264655
1.35233e-07
0.00264686
1.33887e-07
0.00264718
1.32532e-07
0.00264748
1.31163e-07
0.00264779
1.29793e-07
0.0026481
1.28399e-07
0.0026484
1.26983e-07
0.00264871
1.25563e-07
0.00264901
1.24136e-07
0.00264931
1.22689e-07
0.00264961
1.21225e-07
0.00264991
1.19766e-07
0.00265021
1.18302e-07
0.00265051
1.16822e-07
0.0026508
1.1533e-07
0.0026511
1.13829e-07
0.00265139
1.12324e-07
0.00265168
1.10823e-07
0.00265197
1.09311e-07
0.00265226
1.07808e-07
0.00265255
1.06271e-07
0.00265284
1.04716e-07
0.00265312
1.03171e-07
0.0026534
1.01609e-07
0.00265369
1.0004e-07
0.00265397
9.84712e-08
0.00265425
9.69066e-08
0.00265453
9.53322e-08
0.0026548
9.37506e-08
0.00265508
9.21678e-08
0.00265535
9.05663e-08
0.00265563
8.89481e-08
0.0026559
8.73376e-08
0.00265617
8.57316e-08
0.00265644
8.41026e-08
0.00265671
8.24828e-08
0.00265697
8.08689e-08
0.00265724
7.92569e-08
0.0026575
7.76432e-08
0.00265776
7.60096e-08
0.00265802
7.43453e-08
0.00265828
7.26835e-08
0.00265854
7.10195e-08
0.0026588
6.93548e-08
0.00265905
6.7669e-08
0.00265931
6.59852e-08
0.00265956
6.43003e-08
0.00265981
6.26321e-08
0.00266006
6.09548e-08
0.00266031
5.9263e-08
0.00266056
5.75898e-08
0.0026608
5.59254e-08
0.00266105
5.42499e-08
0.00266129
5.25487e-08
0.00266153
5.08371e-08
0.00266177
4.90921e-08
0.00266201
4.73794e-08
0.00266224
4.56627e-08
0.00266248
4.39487e-08
0.00266271
4.21984e-08
0.00266294
4.0429e-08
0.00266318
3.87334e-08
0.00266341
3.70371e-08
0.00266363
3.53208e-08
0.00266386
3.3494e-08
0.00266408
3.17266e-08
0.00266431
3.00561e-08
0.00266453
2.83402e-08
0.00266475
2.66171e-08
0.00266497
2.49079e-08
0.00266519
2.32127e-08
0.0026654
2.15059e-08
0.00266562
1.97872e-08
0.00266583
1.8096e-08
0.00266604
1.64912e-08
0.00266625
1.50974e-08
0.00266646
1.3441e-08
0.00266667
1.18284e-08
0.00266687
1.02446e-08
0.00266708
8.73849e-09
0.00266728
7.26789e-09
0.00266748
5.97307e-09
0.00266768
4.5459e-09
0.00266788
3.79228e-09
0.00266807
1.89245e-09
0.00266827
2.94139e-09
0.00266846
-9.81618e-10
0.00266865
4.25013e-09
0.00266884
-2.35073e-09
0.00266904
3.90048e-09
0.0026692
1.24987e-08
-3.36056e-09
0.00261294
0.00261347
-3.1302e-07
0.00261385
-5.32349e-08
0.00261425
-8.39018e-08
0.00261467
-4.21448e-08
0.0026151
-2.98346e-08
0.00261552
-3.09895e-09
0.00261594
3.58902e-08
0.00261636
5.55996e-08
0.00261677
7.49069e-08
0.00261719
9.62363e-08
0.0026176
1.13333e-07
0.00261801
1.31002e-07
0.00261843
1.48735e-07
0.00261884
1.64337e-07
0.00261925
1.80211e-07
0.00261965
1.9664e-07
0.00262006
2.1259e-07
0.00262047
2.28638e-07
0.00262087
2.44354e-07
0.00262128
2.61108e-07
0.00262168
2.77268e-07
0.00262209
2.94357e-07
0.00262249
3.11817e-07
0.00262289
3.27753e-07
0.00262329
3.49896e-07
0.00262369
3.62134e-07
0.00262409
3.93829e-07
0.00262449
3.96574e-07
0.00262489
4.42058e-07
0.00262529
4.31465e-07
0.0026257
5.03612e-07
0.00262611
4.70097e-07
0.00262653
5.3123e-07
0.00262694
4.61626e-07
0.00262732
2.88614e-07
0.0026277
2.88791e-07
0.00262807
2.68473e-07
0.00262843
2.09368e-07
0.00262879
1.87296e-07
0.00262916
1.88361e-07
0.00262953
1.86371e-07
0.00262989
1.81981e-07
0.00263026
1.7927e-07
0.00263062
1.77917e-07
0.00263098
1.77163e-07
0.00263135
1.76864e-07
0.00263171
1.76935e-07
0.00263207
1.77278e-07
0.00263243
1.77789e-07
0.00263278
1.78378e-07
0.00263314
1.78997e-07
0.0026335
1.79607e-07
0.00263385
1.80174e-07
0.00263421
1.80677e-07
0.00263456
1.81114e-07
0.00263491
1.81473e-07
0.00263527
1.81746e-07
0.00263562
1.81931e-07
0.00263596
1.82024e-07
0.00263631
1.82028e-07
0.00263666
1.81944e-07
0.00263701
1.81776e-07
0.00263735
1.81524e-07
0.00263769
1.81196e-07
0.00263804
1.80794e-07
0.00263838
1.80322e-07
0.00263872
1.79797e-07
0.00263906
1.7921e-07
0.0026394
1.78565e-07
0.00263974
1.7787e-07
0.00264007
1.77124e-07
0.00264041
1.7633e-07
0.00264074
1.75491e-07
0.00264107
1.74599e-07
0.0026414
1.73664e-07
0.00264174
1.72696e-07
0.00264206
1.71684e-07
0.00264239
1.70653e-07
0.00264272
1.69599e-07
0.00264305
1.68523e-07
0.00264337
1.67415e-07
0.00264369
1.66276e-07
0.00264402
1.65115e-07
0.00264434
1.63925e-07
0.00264466
1.62728e-07
0.00264498
1.61516e-07
0.00264529
1.60284e-07
0.00264561
1.5902e-07
0.00264593
1.57737e-07
0.00264624
1.56422e-07
0.00264655
1.55102e-07
0.00264686
1.53781e-07
0.00264718
1.52446e-07
0.00264748
1.51103e-07
0.00264779
1.49746e-07
0.0026481
1.48388e-07
0.0026484
1.47012e-07
0.00264871
1.45615e-07
0.00264901
1.44206e-07
0.00264931
1.42801e-07
0.00264961
1.41384e-07
0.00264991
1.39951e-07
0.00265021
1.38498e-07
0.00265051
1.3704e-07
0.0026508
1.35586e-07
0.0026511
1.34124e-07
0.00265139
1.32652e-07
0.00265168
1.3116e-07
0.00265197
1.29686e-07
0.00265226
1.28184e-07
0.00265255
1.26686e-07
0.00265284
1.25179e-07
0.00265312
1.2365e-07
0.0026534
1.22137e-07
0.00265369
1.206e-07
0.00265397
1.19073e-07
0.00265425
1.17531e-07
0.00265453
1.15983e-07
0.0026548
1.1443e-07
0.00265508
1.12855e-07
0.00265535
1.1129e-07
0.00265563
1.09708e-07
0.0026559
1.08126e-07
0.00265617
1.06544e-07
0.00265644
1.04978e-07
0.00265671
1.03391e-07
0.00265697
1.01809e-07
0.00265724
1.00222e-07
0.0026575
9.86159e-08
0.00265776
9.70135e-08
0.00265802
9.54093e-08
0.00265828
9.37806e-08
0.00265854
9.2144e-08
0.0026588
9.04988e-08
0.00265905
8.8847e-08
0.00265931
8.71954e-08
0.00265956
8.55575e-08
0.00265981
8.39096e-08
0.00266006
8.22564e-08
0.00266031
8.06135e-08
0.00266056
7.89759e-08
0.0026608
7.73499e-08
0.00266105
7.57031e-08
0.00266129
7.40502e-08
0.00266153
7.23572e-08
0.00266177
7.06523e-08
0.00266201
6.89641e-08
0.00266224
6.72971e-08
0.00266248
6.56031e-08
0.00266271
6.38846e-08
0.00266294
6.21576e-08
0.00266318
6.0502e-08
0.00266341
5.88421e-08
0.00266363
5.71489e-08
0.00266386
5.54158e-08
0.00266408
5.36899e-08
0.00266431
5.19944e-08
0.00266453
5.03525e-08
0.00266475
4.86821e-08
0.00266497
4.69984e-08
0.00266519
4.53165e-08
0.0026654
4.36645e-08
0.00266562
4.20088e-08
0.00266583
4.03878e-08
0.00266604
3.88233e-08
0.00266625
3.73799e-08
0.00266646
3.58058e-08
0.00266667
3.42422e-08
0.00266687
3.27317e-08
0.00266708
3.12738e-08
0.00266728
2.98608e-08
0.00266748
2.85706e-08
0.00266768
2.72634e-08
0.00266788
2.63215e-08
0.00266807
2.50664e-08
0.00266827
2.47723e-08
0.00266846
2.36852e-08
0.00266865
2.32251e-08
0.00266884
2.59878e-08
0.00266904
1.78968e-08
0.00266922
3.99744e-08
7.95649e-09
0.00261343
0.00261389
-1.3296e-07
0.00261426
-2.82953e-08
0.00261467
-4.05997e-08
0.00261511
-4.9067e-08
0.00261553
-2.98715e-09
0.00261594
3.71241e-08
0.00261636
5.21584e-08
0.00261678
7.44749e-08
0.00261719
9.7205e-08
0.0026176
1.13296e-07
0.00261802
1.31186e-07
0.00261843
1.49101e-07
0.00261884
1.64541e-07
0.00261925
1.80321e-07
0.00261966
1.97092e-07
0.00262006
2.13082e-07
0.00262047
2.28943e-07
0.00262088
2.44909e-07
0.00262128
2.615e-07
0.00262169
2.77803e-07
0.00262209
2.94764e-07
0.00262249
3.12352e-07
0.00262289
3.28206e-07
0.0026233
3.49726e-07
0.0026237
3.62763e-07
0.0026241
3.92063e-07
0.00262449
3.97269e-07
0.0026249
4.38249e-07
0.00262529
4.30886e-07
0.0026257
4.91657e-07
0.0026261
4.63556e-07
0.00262653
5.01633e-07
0.00262693
4.46982e-07
0.00262731
3.06382e-07
0.00262769
2.97828e-07
0.00262806
2.87163e-07
0.00262843
2.35898e-07
0.00262879
2.09689e-07
0.00262916
2.08077e-07
0.00262953
2.06383e-07
0.00262989
2.02178e-07
0.00263026
1.99184e-07
0.00263062
1.97637e-07
0.00263098
1.96786e-07
0.00263135
1.96397e-07
0.00263171
1.96378e-07
0.00263207
1.96664e-07
0.00263243
1.97124e-07
0.00263278
1.97677e-07
0.00263314
1.98272e-07
0.0026335
1.98862e-07
0.00263385
1.99413e-07
0.00263421
1.99908e-07
0.00263456
2.00339e-07
0.00263491
2.00695e-07
0.00263527
2.00973e-07
0.00263562
2.01165e-07
0.00263596
2.01259e-07
0.00263631
2.01268e-07
0.00263666
2.01196e-07
0.00263701
2.01035e-07
0.00263735
2.00794e-07
0.00263769
2.00477e-07
0.00263804
2.00093e-07
0.00263838
1.99641e-07
0.00263872
1.99127e-07
0.00263906
1.98552e-07
0.0026394
1.97921e-07
0.00263974
1.97243e-07
0.00264007
1.96519e-07
0.00264041
1.95753e-07
0.00264074
1.94923e-07
0.00264107
1.94055e-07
0.0026414
1.93149e-07
0.00264174
1.92192e-07
0.00264206
1.91213e-07
0.00264239
1.90194e-07
0.00264272
1.89164e-07
0.00264305
1.88104e-07
0.00264337
1.87022e-07
0.00264369
1.85898e-07
0.00264402
1.84759e-07
0.00264434
1.83611e-07
0.00264466
1.82442e-07
0.00264498
1.81278e-07
0.00264529
1.8005e-07
0.00264561
1.78811e-07
0.00264593
1.77546e-07
0.00264624
1.76256e-07
0.00264655
1.74958e-07
0.00264686
1.73663e-07
0.00264718
1.72361e-07
0.00264748
1.71052e-07
0.00264779
1.6975e-07
0.0026481
1.68403e-07
0.0026484
1.67039e-07
0.00264871
1.65673e-07
0.00264901
1.64296e-07
0.00264931
1.62907e-07
0.00264961
1.61507e-07
0.00264991
1.60112e-07
0.00265021
1.58713e-07
0.00265051
1.57279e-07
0.0026508
1.55841e-07
0.0026511
1.54397e-07
0.00265139
1.5295e-07
0.00265168
1.51508e-07
0.00265197
1.50064e-07
0.00265226
1.48614e-07
0.00265255
1.47138e-07
0.00265284
1.45637e-07
0.00265312
1.44154e-07
0.0026534
1.42656e-07
0.00265369
1.41151e-07
0.00265397
1.39647e-07
0.00265425
1.38149e-07
0.00265453
1.36631e-07
0.0026548
1.35113e-07
0.00265508
1.33574e-07
0.00265535
1.32023e-07
0.00265563
1.30476e-07
0.0026559
1.28933e-07
0.00265617
1.27391e-07
0.00265644
1.25824e-07
0.00265671
1.24274e-07
0.00265697
1.22727e-07
0.00265724
1.2118e-07
0.0026575
1.19643e-07
0.00265776
1.18055e-07
0.00265802
1.16461e-07
0.00265828
1.14865e-07
0.00265854
1.13268e-07
0.0026588
1.11664e-07
0.00265905
1.1004e-07
0.00265931
1.08404e-07
0.00265956
1.0678e-07
0.00265981
1.05177e-07
0.00266006
1.03592e-07
0.00266031
1.0197e-07
0.00266056
1.00366e-07
0.0026608
9.87703e-08
0.00266104
9.71523e-08
0.00266129
9.55313e-08
0.00266153
9.3884e-08
0.00266177
9.22306e-08
0.00266201
9.05642e-08
0.00266224
8.89057e-08
0.00266248
8.72609e-08
0.00266271
8.55802e-08
0.00266294
8.38994e-08
0.00266318
8.22633e-08
0.0026634
8.06321e-08
0.00266363
7.89985e-08
0.00266386
7.73034e-08
0.00266408
7.56159e-08
0.00266431
7.39973e-08
0.00266453
7.23491e-08
0.00266475
7.07123e-08
0.00266497
6.90854e-08
0.00266519
6.74613e-08
0.0026654
6.58197e-08
0.00266562
6.42066e-08
0.00266583
6.26383e-08
0.00266604
6.11499e-08
0.00266625
5.96872e-08
0.00266646
5.8172e-08
0.00266667
5.66739e-08
0.00266687
5.51865e-08
0.00266708
5.37693e-08
0.00266728
5.24174e-08
0.00266748
5.11545e-08
0.00266768
4.99767e-08
0.00266788
4.88702e-08
0.00266807
4.80036e-08
0.00266827
4.69257e-08
0.00266846
4.73716e-08
0.00266865
4.42618e-08
0.00266884
5.10648e-08
0.00266903
3.80985e-08
0.00266922
6.15329e-08
3.10937e-08
0.00261386
-2.07004e-07
0.00261429
-3.96274e-08
0.00261468
-3.19653e-09
0.0026151
-5.61659e-08
0.00261553
-1.30735e-08
0.00261595
3.50113e-08
0.00261636
5.04361e-08
0.00261678
7.48931e-08
0.00261719
9.71839e-08
0.00261761
1.12613e-07
0.00261802
1.31624e-07
0.00261843
1.49848e-07
0.00261884
1.6449e-07
0.00261925
1.80719e-07
0.00261966
1.97595e-07
0.00262007
2.13551e-07
0.00262047
2.29527e-07
0.00262088
2.45382e-07
0.00262129
2.61934e-07
0.00262169
2.78458e-07
0.00262209
2.95228e-07
0.0026225
3.1267e-07
0.0026229
3.28725e-07
0.0026233
3.49778e-07
0.0026237
3.63399e-07
0.0026241
3.90477e-07
0.0026245
3.97648e-07
0.0026249
4.34111e-07
0.0026253
4.29912e-07
0.00262571
4.79579e-07
0.00262611
4.5814e-07
0.00262652
4.78132e-07
0.00262693
4.37707e-07
0.0026273
3.24052e-07
0.00262768
3.07541e-07
0.00262806
3.02186e-07
0.00262842
2.59447e-07
0.00262879
2.3164e-07
0.00262916
2.27517e-07
0.00262952
2.25822e-07
0.00262989
2.21852e-07
0.00263026
2.18795e-07
0.00263062
2.17118e-07
0.00263098
2.16252e-07
0.00263135
2.15818e-07
0.00263171
2.15754e-07
0.00263207
2.15999e-07
0.00263243
2.16418e-07
0.00263278
2.1695e-07
0.00263314
2.17531e-07
0.0026335
2.1811e-07
0.00263385
2.1866e-07
0.00263421
2.19151e-07
0.00263456
2.19578e-07
0.00263491
2.19932e-07
0.00263527
2.20209e-07
0.00263562
2.20402e-07
0.00263596
2.20504e-07
0.00263631
2.20519e-07
0.00263666
2.20456e-07
0.00263701
2.20309e-07
0.00263735
2.20081e-07
0.00263769
2.19776e-07
0.00263804
2.19397e-07
0.00263838
2.18947e-07
0.00263872
2.1846e-07
0.00263906
2.17904e-07
0.0026394
2.17292e-07
0.00263973
2.16627e-07
0.00264007
2.15922e-07
0.00264041
2.15169e-07
0.00264074
2.14365e-07
0.00264107
2.13518e-07
0.0026414
2.12625e-07
0.00264174
2.11695e-07
0.00264206
2.10731e-07
0.00264239
2.09713e-07
0.00264272
2.0872e-07
0.00264305
2.07703e-07
0.00264337
2.0664e-07
0.00264369
2.05548e-07
0.00264402
2.04434e-07
0.00264434
2.03297e-07
0.00264466
2.02156e-07
0.00264498
2.01002e-07
0.00264529
1.99818e-07
0.00264561
1.9861e-07
0.00264593
1.9737e-07
0.00264624
1.96088e-07
0.00264655
1.94812e-07
0.00264686
1.93552e-07
0.00264717
1.92277e-07
0.00264748
1.90992e-07
0.00264779
1.89711e-07
0.0026481
1.88403e-07
0.0026484
1.87067e-07
0.00264871
1.85722e-07
0.00264901
1.84374e-07
0.00264931
1.83043e-07
0.00264961
1.81669e-07
0.00264991
1.80291e-07
0.00265021
1.78897e-07
0.00265051
1.77491e-07
0.0026508
1.76095e-07
0.0026511
1.74689e-07
0.00265139
1.73282e-07
0.00265168
1.71844e-07
0.00265197
1.70437e-07
0.00265226
1.69007e-07
0.00265255
1.67566e-07
0.00265284
1.66105e-07
0.00265312
1.64642e-07
0.0026534
1.63184e-07
0.00265369
1.6169e-07
0.00265397
1.60238e-07
0.00265425
1.58769e-07
0.00265453
1.57283e-07
0.0026548
1.55789e-07
0.00265508
1.54278e-07
0.00265535
1.52773e-07
0.00265563
1.51233e-07
0.0026559
1.49713e-07
0.00265617
1.4821e-07
0.00265644
1.46699e-07
0.00265671
1.45172e-07
0.00265697
1.4366e-07
0.00265724
1.42143e-07
0.0026575
1.40597e-07
0.00265776
1.39091e-07
0.00265802
1.37533e-07
0.00265828
1.35963e-07
0.00265854
1.34392e-07
0.0026588
1.32828e-07
0.00265905
1.31204e-07
0.00265931
1.29599e-07
0.00265956
1.28033e-07
0.00265981
1.26468e-07
0.00266006
1.24896e-07
0.00266031
1.23309e-07
0.00266056
1.21736e-07
0.0026608
1.20198e-07
0.00266104
1.18624e-07
0.00266129
1.17042e-07
0.00266153
1.15417e-07
0.00266177
1.13776e-07
0.00266201
1.12142e-07
0.00266224
1.10541e-07
0.00266248
1.08915e-07
0.00266271
1.07255e-07
0.00266294
1.05624e-07
0.00266318
1.0403e-07
0.0026634
1.02447e-07
0.00266363
1.00852e-07
0.00266386
9.92177e-08
0.00266408
9.75585e-08
0.00266431
9.59337e-08
0.00266453
9.43622e-08
0.00266475
9.2767e-08
0.00266497
9.11695e-08
0.00266519
8.95605e-08
0.0026654
8.79986e-08
0.00266562
8.64345e-08
0.00266583
8.49091e-08
0.00266604
8.3433e-08
0.00266625
8.19876e-08
0.00266646
8.05373e-08
0.00266667
7.90864e-08
0.00266687
7.76547e-08
0.00266708
7.62729e-08
0.00266728
7.49684e-08
0.00266748
7.37452e-08
0.00266768
7.2648e-08
0.00266788
7.14366e-08
0.00266807
7.08956e-08
0.00266827
6.91726e-08
0.00266846
7.0741e-08
0.00266865
6.58471e-08
0.00266884
7.45333e-08
0.00266903
5.99121e-08
0.00266922
8.0449e-08
5.61306e-08
0.00261379
0.00261432
-1.98549e-07
0.0026147
3.80659e-08
0.0026151
-4.12164e-08
0.00261552
-1.69979e-08
0.00261595
2.60044e-08
0.00261637
4.4663e-08
0.00261678
7.75443e-08
0.0026172
9.87204e-08
0.00261761
1.11786e-07
0.00261802
1.32194e-07
0.00261843
1.5043e-07
0.00261884
1.64576e-07
0.00261925
1.80866e-07
0.00261966
1.98214e-07
0.00262007
2.14071e-07
0.00262048
2.29744e-07
0.00262088
2.45813e-07
0.00262129
2.62422e-07
0.00262169
2.78994e-07
0.0026221
2.95512e-07
0.0026225
3.12982e-07
0.0026229
3.29182e-07
0.0026233
3.49526e-07
0.0026237
3.63971e-07
0.0026241
3.88745e-07
0.0026245
3.97969e-07
0.0026249
4.30141e-07
0.0026253
4.29338e-07
0.00262571
4.68953e-07
0.00262611
4.53713e-07
0.00262652
4.60839e-07
0.00262692
4.30396e-07
0.00262729
3.39792e-07
0.00262768
3.17894e-07
0.00262805
3.14742e-07
0.00262842
2.80552e-07
0.00262879
2.53171e-07
0.00262916
2.4687e-07
0.00262952
2.44856e-07
0.00262989
2.41296e-07
0.00263026
2.38218e-07
0.00263062
2.36504e-07
0.00263098
2.35598e-07
0.00263135
2.3516e-07
0.00263171
2.35044e-07
0.00263207
2.35285e-07
0.00263243
2.357e-07
0.00263278
2.36212e-07
0.00263314
2.36785e-07
0.0026335
2.37359e-07
0.00263385
2.379e-07
0.00263421
2.38391e-07
0.00263456
2.38817e-07
0.00263491
2.3917e-07
0.00263527
2.3945e-07
0.00263562
2.39646e-07
0.00263596
2.39755e-07
0.00263631
2.39775e-07
0.00263666
2.39723e-07
0.00263701
2.39583e-07
0.00263735
2.39366e-07
0.00263769
2.39072e-07
0.00263804
2.38713e-07
0.00263838
2.38286e-07
0.00263872
2.37804e-07
0.00263906
2.37256e-07
0.0026394
2.36659e-07
0.00263973
2.36014e-07
0.00264007
2.35325e-07
0.00264041
2.34617e-07
0.00264074
2.33808e-07
0.00264107
2.32979e-07
0.0026414
2.32105e-07
0.00264173
2.312e-07
0.00264206
2.30256e-07
0.00264239
2.29275e-07
0.00264272
2.28299e-07
0.00264305
2.27292e-07
0.00264337
2.2627e-07
0.00264369
2.25173e-07
0.00264402
2.24081e-07
0.00264434
2.22997e-07
0.00264466
2.21865e-07
0.00264498
2.20742e-07
0.00264529
2.19579e-07
0.00264561
2.18395e-07
0.00264593
2.1719e-07
0.00264624
2.1593e-07
0.00264655
2.14676e-07
0.00264686
2.13441e-07
0.00264717
2.12192e-07
0.00264748
2.10935e-07
0.00264779
2.09689e-07
0.0026481
2.08422e-07
0.0026484
2.07105e-07
0.00264871
2.05799e-07
0.00264901
2.04473e-07
0.00264931
2.03148e-07
0.00264961
2.01802e-07
0.00264991
2.00466e-07
0.00265021
1.99105e-07
0.00265051
1.97719e-07
0.0026508
1.96341e-07
0.0026511
1.94965e-07
0.00265139
1.93578e-07
0.00265168
1.92195e-07
0.00265197
1.90828e-07
0.00265226
1.89417e-07
0.00265255
1.88e-07
0.00265283
1.86562e-07
0.00265312
1.85144e-07
0.0026534
1.8373e-07
0.00265369
1.82261e-07
0.00265397
1.80814e-07
0.00265425
1.79366e-07
0.00265453
1.77934e-07
0.0026548
1.76481e-07
0.00265508
1.74987e-07
0.00265535
1.73491e-07
0.00265563
1.72002e-07
0.0026559
1.70514e-07
0.00265617
1.69027e-07
0.00265644
1.67555e-07
0.00265671
1.6608e-07
0.00265697
1.64585e-07
0.00265724
1.63106e-07
0.0026575
1.61637e-07
0.00265776
1.60111e-07
0.00265802
1.58572e-07
0.00265828
1.5704e-07
0.00265854
1.55518e-07
0.0026588
1.53998e-07
0.00265905
1.52389e-07
0.00265931
1.50809e-07
0.00265956
1.49274e-07
0.00265981
1.47744e-07
0.00266006
1.46202e-07
0.00266031
1.44659e-07
0.00266055
1.43126e-07
0.0026608
1.4163e-07
0.00266104
1.40073e-07
0.00266129
1.38511e-07
0.00266153
1.36947e-07
0.00266177
1.35374e-07
0.00266201
1.33739e-07
0.00266224
1.32147e-07
0.00266248
1.30565e-07
0.00266271
1.28958e-07
0.00266294
1.27358e-07
0.00266318
1.25789e-07
0.0026634
1.24223e-07
0.00266363
1.22709e-07
0.00266386
1.21105e-07
0.00266408
1.19484e-07
0.00266431
1.1793e-07
0.00266453
1.16367e-07
0.00266475
1.14799e-07
0.00266497
1.13254e-07
0.00266519
1.11686e-07
0.0026654
1.10144e-07
0.00266562
1.08618e-07
0.00266583
1.07146e-07
0.00266604
1.0575e-07
0.00266625
1.04304e-07
0.00266646
1.02898e-07
0.00266667
1.01506e-07
0.00266687
1.00092e-07
0.00266708
9.87615e-08
0.00266728
9.75048e-08
0.00266748
9.62954e-08
0.00266768
9.52752e-08
0.00266788
9.40138e-08
0.00266807
9.36194e-08
0.00266827
9.17118e-08
0.00266846
9.35716e-08
0.00266865
8.82601e-08
0.00266884
9.67804e-08
0.00266903
8.30895e-08
0.00266922
9.93609e-08
8.1432e-08
0.00261429
0.00261475
-4.12015e-08
0.0026151
2.53502e-08
0.00261553
-2.65797e-08
0.00261595
2.13996e-08
0.00261637
4.08359e-08
0.00261678
7.76378e-08
0.0026172
9.75683e-08
0.00261761
1.11005e-07
0.00261802
1.33299e-07
0.00261844
1.51121e-07
0.00261885
1.6428e-07
0.00261926
1.81442e-07
0.00261966
1.98865e-07
0.00262007
2.1446e-07
0.00262048
2.30316e-07
0.00262089
2.46402e-07
0.00262129
2.6279e-07
0.00262169
2.7931e-07
0.0026221
2.96012e-07
0.0026225
3.13299e-07
0.0026229
3.29675e-07
0.0026233
3.4926e-07
0.0026237
3.64255e-07
0.00262411
3.87528e-07
0.0026245
3.97975e-07
0.00262491
4.26503e-07
0.0026253
4.28598e-07
0.00262571
4.59546e-07
0.00262611
4.49697e-07
0.00262651
4.49071e-07
0.00262691
4.25185e-07
0.00262729
3.541e-07
0.00262767
3.29251e-07
0.00262805
3.26379e-07
0.00262842
2.99327e-07
0.00262879
2.73883e-07
0.00262915
2.6595e-07
0.00262952
2.63591e-07
0.00262989
2.60278e-07
0.00263025
2.57388e-07
0.00263062
2.55645e-07
0.00263098
2.54769e-07
0.00263134
2.54367e-07
0.00263171
2.54295e-07
0.00263207
2.54528e-07
0.00263243
2.54915e-07
0.00263278
2.55457e-07
0.00263314
2.56029e-07
0.0026335
2.56603e-07
0.00263385
2.5715e-07
0.00263421
2.57638e-07
0.00263456
2.58065e-07
0.00263491
2.58416e-07
0.00263527
2.58703e-07
0.00263562
2.58908e-07
0.00263596
2.59018e-07
0.00263631
2.5904e-07
0.00263666
2.58998e-07
0.00263701
2.5887e-07
0.00263735
2.58663e-07
0.00263769
2.58385e-07
0.00263804
2.58038e-07
0.00263838
2.57622e-07
0.00263872
2.57156e-07
0.00263906
2.56628e-07
0.0026394
2.5604e-07
0.00263973
2.55404e-07
0.00264007
2.5474e-07
0.00264041
2.54032e-07
0.00264074
2.53258e-07
0.00264107
2.52448e-07
0.0026414
2.51601e-07
0.00264173
2.50711e-07
0.00264206
2.49786e-07
0.00264239
2.48803e-07
0.00264272
2.47865e-07
0.00264305
2.46884e-07
0.00264337
2.45877e-07
0.00264369
2.44821e-07
0.00264402
2.43757e-07
0.00264434
2.42665e-07
0.00264466
2.41571e-07
0.00264498
2.4049e-07
0.00264529
2.39359e-07
0.00264561
2.38199e-07
0.00264593
2.37e-07
0.00264624
2.35783e-07
0.00264655
2.3455e-07
0.00264686
2.33335e-07
0.00264717
2.32112e-07
0.00264748
2.30872e-07
0.00264779
2.29664e-07
0.0026481
2.28421e-07
0.0026484
2.27146e-07
0.00264871
2.25852e-07
0.00264901
2.2457e-07
0.00264931
2.23278e-07
0.00264961
2.21947e-07
0.00264991
2.20613e-07
0.00265021
2.19281e-07
0.00265051
2.1794e-07
0.0026508
2.166e-07
0.0026511
2.15232e-07
0.00265139
2.13902e-07
0.00265168
2.1257e-07
0.00265197
2.11199e-07
0.00265226
2.09829e-07
0.00265255
2.08436e-07
0.00265283
2.07042e-07
0.00265312
2.05649e-07
0.0026534
2.04235e-07
0.00265369
2.02813e-07
0.00265397
2.01398e-07
0.00265425
1.99984e-07
0.00265453
1.98571e-07
0.0026548
1.97167e-07
0.00265508
1.95659e-07
0.00265535
1.94225e-07
0.00265563
1.92781e-07
0.0026559
1.91322e-07
0.00265617
1.89851e-07
0.00265644
1.88425e-07
0.00265671
1.8698e-07
0.00265697
1.85526e-07
0.00265724
1.84067e-07
0.0026575
1.82615e-07
0.00265776
1.81147e-07
0.00265802
1.79635e-07
0.00265828
1.78125e-07
0.00265854
1.76628e-07
0.0026588
1.75142e-07
0.00265905
1.73592e-07
0.00265931
1.72003e-07
0.00265956
1.70523e-07
0.00265981
1.69034e-07
0.00266006
1.67502e-07
0.00266031
1.66016e-07
0.00266055
1.6453e-07
0.0026608
1.63029e-07
0.00266104
1.61533e-07
0.00266129
1.60007e-07
0.00266153
1.58457e-07
0.00266177
1.56919e-07
0.00266201
1.55337e-07
0.00266224
1.53798e-07
0.00266248
1.52241e-07
0.00266271
1.50605e-07
0.00266294
1.4911e-07
0.00266317
1.47547e-07
0.0026634
1.46025e-07
0.00266363
1.44546e-07
0.00266386
1.42987e-07
0.00266408
1.41419e-07
0.00266431
1.39882e-07
0.00266453
1.38373e-07
0.00266475
1.3686e-07
0.00266497
1.35339e-07
0.00266519
1.33811e-07
0.0026654
1.32317e-07
0.00266562
1.30799e-07
0.00266583
1.29372e-07
0.00266604
1.28013e-07
0.00266625
1.2664e-07
0.00266646
1.2525e-07
0.00266667
1.23897e-07
0.00266687
1.22535e-07
0.00266708
1.21254e-07
0.00266728
1.20052e-07
0.00266748
1.18855e-07
0.00266768
1.17887e-07
0.00266788
1.16603e-07
0.00266807
1.16304e-07
0.00266827
1.1425e-07
0.00266846
1.16149e-07
0.00266865
1.11077e-07
0.00266884
1.18343e-07
0.00266903
1.06964e-07
0.00266922
1.18309e-07
1.06308e-07
0.00261471
-1.00717e-07
0.00261514
1.21493e-08
0.00261552
1.26889e-08
0.00261596
-2.59029e-09
0.00261638
3.54009e-08
0.00261678