/*--------------------------------*- C++ -*----------------------------------*\
| =========                 |                                                 |
| \\      /  F ield         | OpenFOAM: The Open Source CFD Toolbox           |
|  \\    /   O peration     | Version:  2512                                  |
|   \\  /    A nd           | Website:  www.openfoam.com                      |
|    \\/     M anipulation  |                                                 |
\*---------------------------------------------------------------------------*/
FoamFile
{
    version     2.0;
    format      ascii;
    arch        "LSB;label=32;scalar=64";
    class       surfaceScalarField;
    location    "0.1";
    object      phiB;
}
// * * * * * * * * * * * * * * * * * * * * * * * * * * * * * * * * * * * * * //

dimensions      [1 2 -2 0 0 -1 0];

oriented        oriented;

internalField   nonuniform List<scalar> 
16434
(
-2.11469e-10
0.00192
-2.11062e-10
0.00192
-2.10634e-10
0.00192
-2.10131e-10
0.00192
-2.09562e-10
0.00192
-2.09014e-10
0.00192
-2.0846e-10
0.00192
-2.0789e-10
0.00192
-2.07383e-10
0.00192
-2.06932e-10
0.00192
-2.06512e-10
0.00192
-2.06134e-10
0.00192
-2.05807e-10
0.00192
-2.05532e-10
0.00192
-2.0531e-10
0.00192
-2.05141e-10
0.00192
-2.05026e-10
0.00192
-2.04965e-10
0.00192
-2.04959e-10
0.00192
-2.05012e-10
0.00192
-2.05122e-10
0.00192
-2.05288e-10
0.00192
-2.05511e-10
0.00192
-2.05785e-10
0.00192
-2.0611e-10
0.00192
-2.06491e-10
0.00192
-2.06929e-10
0.00192
-2.07409e-10
0.00192
-2.07939e-10
0.00192
-2.08452e-10
0.00192
-2.08994e-10
0.00192
-2.09514e-10
0.00192
-2.10091e-10
0.00192
-2.1055e-10
0.00192
-2.11e-10
0.00192
-2.1109e-10
0.00192
-2.10442e-10
0.00192
-2.09897e-10
0.00192
-2.09434e-10
0.00192
-2.08938e-10
0.00192
-2.08506e-10
0.00192
-2.08164e-10
0.00192
-2.07877e-10
0.00192
-2.07624e-10
0.00192
-2.07403e-10
0.00192
-2.07213e-10
0.00192
-2.07049e-10
0.00192
-2.06906e-10
0.00192
-2.06779e-10
0.00192
-2.06669e-10
0.00192
-2.06574e-10
0.00192
-2.06487e-10
0.00192
-2.0641e-10
0.00192
-2.06341e-10
0.00192
-2.0628e-10
0.00192
-2.06225e-10
0.00192
-2.06176e-10
0.00192
-2.06131e-10
0.00192
-2.06088e-10
0.00192
-2.06046e-10
0.00192
-2.06008e-10
0.00192
-2.05971e-10
0.00192
-2.05936e-10
0.00192
-2.05902e-10
0.00192
-2.0587e-10
0.00192
-2.0584e-10
0.00192
-2.05809e-10
0.00192
-2.05779e-10
0.00192
-2.05747e-10
0.00192
-2.05717e-10
0.00192
-2.05686e-10
0.00192
-2.05655e-10
0.00192
-2.05624e-10
0.00192
-2.05594e-10
0.00192
-2.05563e-10
0.00192
-2.05535e-10
0.00192
-2.05507e-10
0.00192
-2.05479e-10
0.00192
-2.0545e-10
0.00192
-2.05421e-10
0.00192
-2.05391e-10
0.00192
-2.0536e-10
0.00192
-2.0533e-10
0.00192
-2.05299e-10
0.00192
-2.05268e-10
0.00192
-2.05237e-10
0.00192
-2.05205e-10
0.00192
-2.05173e-10
0.00192
-2.0514e-10
0.00192
-2.05108e-10
0.00192
-2.05075e-10
0.00192
-2.05043e-10
0.00192
-2.0501e-10
0.00192
-2.04977e-10
0.00192
-2.04944e-10
0.00192
-2.04911e-10
0.00192
-2.04878e-10
0.00192
-2.04845e-10
0.00192
-2.04811e-10
0.00192
-2.04777e-10
0.00192
-2.04744e-10
0.00192
-2.0471e-10
0.00192
-2.04675e-10
0.00192
-2.04641e-10
0.00192
-2.04606e-10
0.00192
-2.04571e-10
0.00192
-2.04536e-10
0.00192
-2.045e-10
0.00192
-2.04465e-10
0.00192
-2.0443e-10
0.00192
-2.04394e-10
0.00192
-2.04359e-10
0.00192
-2.04324e-10
0.00192
-2.04288e-10
0.00192
-2.04253e-10
0.00192
-2.04218e-10
0.00192
-2.04182e-10
0.00192
-2.04146e-10
0.00192
-2.0411e-10
0.00192
-2.04074e-10
0.00192
-2.04038e-10
0.00192
-2.04002e-10
0.00192
-2.03965e-10
0.00192
-2.03929e-10
0.00192
-2.03892e-10
0.00192
-2.03855e-10
0.00192
-2.03818e-10
0.00192
-2.03782e-10
0.00192
-2.03745e-10
0.00192
-2.03708e-10
0.00192
-2.03671e-10
0.00192
-2.03634e-10
0.00192
-2.03598e-10
0.00192
-2.0356e-10
0.00192
-2.03523e-10
0.00192
-2.03485e-10
0.00192
-2.03448e-10
0.00192
-2.0341e-10
0.00192
-2.03372e-10
0.00192
-2.03334e-10
0.00192
-2.03296e-10
0.00192
-2.03258e-10
0.00192
-2.03219e-10
0.00192
-2.0318e-10
0.00192
-2.03142e-10
0.00192
-2.03103e-10
0.00192
-2.03064e-10
0.00192
-2.03025e-10
0.00192
-2.02986e-10
0.00192
-2.02946e-10
0.00192
-2.02906e-10
0.00192
-2.02866e-10
0.00192
-2.02827e-10
0.00192
-2.02786e-10
0.00192
-2.02745e-10
0.00192
-2.02705e-10
0.00192
-2.02663e-10
0.00192
-2.02622e-10
0.00192
-2.02582e-10
0.00192
-2.02539e-10
0.00192
-2.02496e-10
0.00192
-2.02454e-10
0.00192
-2.02411e-10
0.00192
-2.02366e-10
0.00192
-2.02321e-10
0.00192
-2.02274e-10
0.00192
-2.02228e-10
0.00192
-2.02178e-10
0.00192
-2.02128e-10
0.00192
-2.02077e-10
0.00192
-2.02021e-10
0.00192
-2.01966e-10
0.00192
-2.01909e-10
0.00192
-2.01851e-10
0.00192
-2.01788e-10
0.00192
-2.01725e-10
0.00192
-2.01664e-10
0.00192
-2.01598e-10
0.00192
-2.01536e-10
0.00192
-2.01489e-10
0.00192
-2.01428e-10
0.00192
-2.01426e-10
0.00192
-2.01337e-10
0.00192
0.00192
-5.91651e-10
-5.91303e-10
0.00192
-5.90839e-10
0.00192
-5.90371e-10
0.00192
-5.89791e-10
0.00192
-5.89235e-10
0.00192
-5.88633e-10
0.00192
-5.8801e-10
0.00192
-5.87456e-10
0.00192
-5.86954e-10
0.00192
-5.86478e-10
0.00192
-5.86048e-10
0.00192
-5.85664e-10
0.00192
-5.85331e-10
0.00192
-5.85049e-10
0.00192
-5.84822e-10
0.00192
-5.84647e-10
0.00192
-5.84526e-10
0.00192
-5.84462e-10
0.00192
-5.84454e-10
0.00192
-5.84505e-10
0.00192
-5.84612e-10
0.00192
-5.84777e-10
0.00192
-5.84995e-10
0.00192
-5.85267e-10
0.00192
-5.85592e-10
0.00192
-5.85977e-10
0.00192
-5.86402e-10
0.00192
-5.86876e-10
0.00192
-5.87351e-10
0.00192
-5.87858e-10
0.00192
-5.88354e-10
0.00192
-5.88938e-10
0.00192
-5.89446e-10
0.00192
-5.90051e-10
0.00192
-5.90242e-10
0.00192
-5.89602e-10
0.00192
-5.89018e-10
0.00192
-5.88533e-10
0.00192
-5.87953e-10
0.00192
-5.87398e-10
0.00192
-5.86944e-10
0.00192
-5.86551e-10
0.00192
-5.86193e-10
0.00192
-5.85871e-10
0.00192
-5.85574e-10
0.00192
-5.85311e-10
0.00192
-5.85065e-10
0.00192
-5.84839e-10
0.00192
-5.84632e-10
0.00192
-5.84437e-10
0.00192
-5.84252e-10
0.00192
-5.84082e-10
0.00192
-5.83916e-10
0.00192
-5.83763e-10
0.00192
-5.83614e-10
0.00192
-5.83472e-10
0.00192
-5.83334e-10
0.00192
-5.83201e-10
0.00192
-5.83072e-10
0.00192
-5.82945e-10
0.00192
-5.82822e-10
0.00192
-5.827e-10
0.00192
-5.8258e-10
0.00192
-5.82464e-10
0.00192
-5.8235e-10
0.00192
-5.82236e-10
0.00192
-5.82122e-10
0.00192
-5.8201e-10
0.00192
-5.81899e-10
0.00192
-5.81787e-10
0.00192
-5.81676e-10
0.00192
-5.81567e-10
0.00192
-5.81457e-10
0.00192
-5.81349e-10
0.00192
-5.81244e-10
0.00192
-5.81138e-10
0.00192
-5.81032e-10
0.00192
-5.80927e-10
0.00192
-5.80822e-10
0.00192
-5.80716e-10
0.00192
-5.80611e-10
0.00192
-5.80504e-10
0.00192
-5.80398e-10
0.00192
-5.80294e-10
0.00192
-5.80188e-10
0.00192
-5.80082e-10
0.00192
-5.79977e-10
0.00192
-5.79871e-10
0.00192
-5.79764e-10
0.00192
-5.79658e-10
0.00192
-5.79553e-10
0.00192
-5.79447e-10
0.00192
-5.7934e-10
0.00192
-5.79234e-10
0.00192
-5.79129e-10
0.00192
-5.79023e-10
0.00192
-5.78916e-10
0.00192
-5.7881e-10
0.00192
-5.78704e-10
0.00192
-5.78597e-10
0.00192
-5.78491e-10
0.00192
-5.78384e-10
0.00192
-5.78276e-10
0.00192
-5.78169e-10
0.00192
-5.78061e-10
0.00192
-5.77953e-10
0.00192
-5.77846e-10
0.00192
-5.77738e-10
0.00192
-5.77629e-10
0.00192
-5.77521e-10
0.00192
-5.77413e-10
0.00192
-5.77304e-10
0.00192
-5.77196e-10
0.00192
-5.77087e-10
0.00192
-5.76979e-10
0.00192
-5.7687e-10
0.00192
-5.76761e-10
0.00192
-5.76652e-10
0.00192
-5.76542e-10
0.00192
-5.76432e-10
0.00192
-5.76322e-10
0.00192
-5.76212e-10
0.00192
-5.76101e-10
0.00192
-5.75991e-10
0.00192
-5.7588e-10
0.00192
-5.75769e-10
0.00192
-5.75658e-10
0.00192
-5.75547e-10
0.00192
-5.75435e-10
0.00192
-5.75324e-10
0.00192
-5.75212e-10
0.00192
-5.751e-10
0.00192
-5.74987e-10
0.00192
-5.74875e-10
0.00192
-5.74762e-10
0.00192
-5.74648e-10
0.00192
-5.74535e-10
0.00192
-5.74421e-10
0.00192
-5.74307e-10
0.00192
-5.74193e-10
0.00192
-5.74078e-10
0.00192
-5.73963e-10
0.00192
-5.73848e-10
0.00192
-5.73732e-10
0.00192
-5.73616e-10
0.00192
-5.735e-10
0.00192
-5.73383e-10
0.00192
-5.73266e-10
0.00192
-5.73149e-10
0.00192
-5.73031e-10
0.00192
-5.72912e-10
0.00192
-5.72794e-10
0.00192
-5.72675e-10
0.00192
-5.72555e-10
0.00192
-5.72436e-10
0.00192
-5.72315e-10
0.00192
-5.72194e-10
0.00192
-5.72074e-10
0.00192
-5.71951e-10
0.00192
-5.71828e-10
0.00192
-5.71706e-10
0.00192
-5.71582e-10
0.00192
-5.71458e-10
0.00192
-5.71332e-10
0.00192
-5.71206e-10
0.00192
-5.71079e-10
0.00192
-5.7095e-10
0.00192
-5.70819e-10
0.00192
-5.70688e-10
0.00192
-5.70554e-10
0.00192
-5.7042e-10
0.00192
-5.70286e-10
0.00192
-5.7015e-10
0.00192
-5.70012e-10
0.00192
-5.69874e-10
0.00192
-5.69738e-10
0.00192
-5.696e-10
0.00192
-5.69469e-10
0.00192
-5.69348e-10
0.00192
-5.69227e-10
0.00192
-5.69142e-10
0.00192
-5.69069e-10
0.00192
0.00192
-9.71677e-10
-9.71133e-10
0.00192
-9.70653e-10
0.00192
-9.70079e-10
0.00192
-9.69504e-10
0.00192
-9.68842e-10
0.00192
-9.68166e-10
0.00192
-9.67568e-10
0.00192
-9.67013e-10
0.00192
-9.66481e-10
0.00192
-9.65997e-10
0.00192
-9.65555e-10
0.00192
-9.65164e-10
0.00192
-9.64823e-10
0.00192
-9.64536e-10
0.00192
-9.643e-10
0.00192
-9.64118e-10
0.00192
-9.63996e-10
0.00192
-9.63928e-10
0.00192
-9.6392e-10
0.00192
-9.63969e-10
0.00192
-9.64076e-10
0.00192
-9.64237e-10
0.00192
-9.64457e-10
0.00192
-9.64727e-10
0.00192
-9.65057e-10
0.00192
-9.6543e-10
0.00192
-9.65851e-10
0.00192
-9.6629e-10
0.00192
-9.66762e-10
0.00192
-9.67242e-10
0.00192
-9.67827e-10
0.00192
-9.68371e-10
0.00192
-9.69032e-10
0.00192
-9.69256e-10
0.00192
-9.68667e-10
0.00192
-9.68061e-10
0.00192
-9.67553e-10
0.00192
-9.66915e-10
0.00192
-9.66259e-10
0.00192
-9.65699e-10
0.00192
-9.65206e-10
0.00192
-9.64748e-10
0.00192
-9.64326e-10
0.00192
-9.63926e-10
0.00192
-9.63564e-10
0.00192
-9.63219e-10
0.00192
-9.62892e-10
0.00192
-9.6259e-10
0.00192
-9.62297e-10
0.00192
-9.62014e-10
0.00192
-9.61751e-10
0.00192
-9.61488e-10
0.00192
-9.61242e-10
0.00192
-9.60999e-10
0.00192
-9.60766e-10
0.00192
-9.60536e-10
0.00192
-9.60312e-10
0.00192
-9.60095e-10
0.00192
-9.59878e-10
0.00192
-9.59669e-10
0.00192
-9.59463e-10
0.00192
-9.59256e-10
0.00192
-9.59055e-10
0.00192
-9.58858e-10
0.00192
-9.5866e-10
0.00192
-9.58464e-10
0.00192
-9.5827e-10
0.00192
-9.58079e-10
0.00192
-9.57885e-10
0.00192
-9.57695e-10
0.00192
-9.57507e-10
0.00192
-9.57319e-10
0.00192
-9.57132e-10
0.00192
-9.56949e-10
0.00192
-9.56766e-10
0.00192
-9.56583e-10
0.00192
-9.56402e-10
0.00192
-9.5622e-10
0.00192
-9.56039e-10
0.00192
-9.55858e-10
0.00192
-9.55676e-10
0.00192
-9.55495e-10
0.00192
-9.55317e-10
0.00192
-9.55137e-10
0.00192
-9.54956e-10
0.00192
-9.54777e-10
0.00192
-9.54598e-10
0.00192
-9.54418e-10
0.00192
-9.54237e-10
0.00192
-9.54059e-10
0.00192
-9.5388e-10
0.00192
-9.53701e-10
0.00192
-9.53521e-10
0.00192
-9.53343e-10
0.00192
-9.53165e-10
0.00192
-9.52985e-10
0.00192
-9.52806e-10
0.00192
-9.52627e-10
0.00192
-9.52448e-10
0.00192
-9.52268e-10
0.00192
-9.52088e-10
0.00192
-9.51909e-10
0.00192
-9.51729e-10
0.00192
-9.51548e-10
0.00192
-9.51368e-10
0.00192
-9.51187e-10
0.00192
-9.51007e-10
0.00192
-9.50825e-10
0.00192
-9.50644e-10
0.00192
-9.50463e-10
0.00192
-9.50281e-10
0.00192
-9.501e-10
0.00192
-9.49918e-10
0.00192
-9.49737e-10
0.00192
-9.49555e-10
0.00192
-9.49372e-10
0.00192
-9.49189e-10
0.00192
-9.49006e-10
0.00192
-9.48823e-10
0.00192
-9.48639e-10
0.00192
-9.48455e-10
0.00192
-9.4827e-10
0.00192
-9.48086e-10
0.00192
-9.47901e-10
0.00192
-9.47716e-10
0.00192
-9.4753e-10
0.00192
-9.47344e-10
0.00192
-9.47158e-10
0.00192
-9.46972e-10
0.00192
-9.46785e-10
0.00192
-9.46599e-10
0.00192
-9.46411e-10
0.00192
-9.46223e-10
0.00192
-9.46034e-10
0.00192
-9.45845e-10
0.00192
-9.45656e-10
0.00192
-9.45467e-10
0.00192
-9.45276e-10
0.00192
-9.45086e-10
0.00192
-9.44895e-10
0.00192
-9.44703e-10
0.00192
-9.44511e-10
0.00192
-9.44318e-10
0.00192
-9.44125e-10
0.00192
-9.43931e-10
0.00192
-9.43737e-10
0.00192
-9.43542e-10
0.00192
-9.43347e-10
0.00192
-9.43151e-10
0.00192
-9.42954e-10
0.00192
-9.42758e-10
0.00192
-9.4256e-10
0.00192
-9.42361e-10
0.00192
-9.42162e-10
0.00192
-9.41962e-10
0.00192
-9.41762e-10
0.00192
-9.41561e-10
0.00192
-9.41359e-10
0.00192
-9.41156e-10
0.00192
-9.40954e-10
0.00192
-9.4075e-10
0.00192
-9.40545e-10
0.00192
-9.40339e-10
0.00192
-9.40132e-10
0.00192
-9.39925e-10
0.00192
-9.39716e-10
0.00192
-9.39506e-10
0.00192
-9.39295e-10
0.00192
-9.39083e-10
0.00192
-9.3887e-10
0.00192
-9.38658e-10
0.00192
-9.38446e-10
0.00192
-9.38231e-10
0.00192
-9.3802e-10
0.00192
-9.37809e-10
0.00192
-9.37599e-10
0.00192
-9.37399e-10
0.00192
-9.37205e-10
0.00192
-9.37024e-10
0.00192
-9.36862e-10
0.00192
-9.36765e-10
0.00192
0.00192
-1.35161e-09
-1.35097e-09
0.00192
-1.35039e-09
0.00192
-1.34981e-09
0.00192
-1.34909e-09
0.00192
-1.34836e-09
0.00192
-1.34772e-09
0.00192
-1.34711e-09
0.00192
-1.34652e-09
0.00192
-1.34598e-09
0.00192
-1.34548e-09
0.00192
-1.34503e-09
0.00192
-1.34463e-09
0.00192
-1.34428e-09
0.00192
-1.34398e-09
0.00192
-1.34374e-09
0.00192
-1.34356e-09
0.00192
-1.34343e-09
0.00192
-1.34336e-09
0.00192
-1.34335e-09
0.00192
-1.3434e-09
0.00192
-1.34351e-09
0.00192
-1.34367e-09
0.00192
-1.34389e-09
0.00192
-1.34417e-09
0.00192
-1.34449e-09
0.00192
-1.34486e-09
0.00192
-1.34526e-09
0.00192
-1.3457e-09
0.00192
-1.34617e-09
0.00192
-1.34675e-09
0.00192
-1.34732e-09
0.00192
-1.34796e-09
0.00192
-1.34818e-09
0.00192
-1.34765e-09
0.00192
-1.34703e-09
0.00192
-1.3465e-09
0.00192
-1.34582e-09
0.00192
-1.34509e-09
0.00192
-1.34443e-09
0.00192
-1.34384e-09
0.00192
-1.34328e-09
0.00192
-1.34277e-09
0.00192
-1.34227e-09
0.00192
-1.34181e-09
0.00192
-1.34136e-09
0.00192
-1.34094e-09
0.00192
-1.34054e-09
0.00192
-1.34015e-09
0.00192
-1.33977e-09
0.00192
-1.33941e-09
0.00192
-1.33906e-09
0.00192
-1.33872e-09
0.00192
-1.33838e-09
0.00192
-1.33805e-09
0.00192
-1.33773e-09
0.00192
-1.33742e-09
0.00192
-1.33711e-09
0.00192
-1.33681e-09
0.00192
-1.33651e-09
0.00192
-1.33622e-09
0.00192
-1.33593e-09
0.00192
-1.33564e-09
0.00192
-1.33536e-09
0.00192
-1.33508e-09
0.00192
-1.3348e-09
0.00192
-1.33453e-09
0.00192
-1.33425e-09
0.00192
-1.33398e-09
0.00192
-1.33371e-09
0.00192
-1.33344e-09
0.00192
-1.33318e-09
0.00192
-1.33291e-09
0.00192
-1.33265e-09
0.00192
-1.33239e-09
0.00192
-1.33213e-09
0.00192
-1.33187e-09
0.00192
-1.33161e-09
0.00192
-1.33136e-09
0.00192
-1.3311e-09
0.00192
-1.33084e-09
0.00192
-1.33059e-09
0.00192
-1.33034e-09
0.00192
-1.33008e-09
0.00192
-1.32983e-09
0.00192
-1.32957e-09
0.00192
-1.32932e-09
0.00192
-1.32907e-09
0.00192
-1.32881e-09
0.00192
-1.32856e-09
0.00192
-1.32831e-09
0.00192
-1.32806e-09
0.00192
-1.3278e-09
0.00192
-1.32755e-09
0.00192
-1.3273e-09
0.00192
-1.32705e-09
0.00192
-1.3268e-09
0.00192
-1.32655e-09
0.00192
-1.32629e-09
0.00192
-1.32604e-09
0.00192
-1.32579e-09
0.00192
-1.32554e-09
0.00192
-1.32528e-09
0.00192
-1.32503e-09
0.00192
-1.32478e-09
0.00192
-1.32452e-09
0.00192
-1.32427e-09
0.00192
-1.32402e-09
0.00192
-1.32376e-09
0.00192
-1.32351e-09
0.00192
-1.32325e-09
0.00192
-1.323e-09
0.00192
-1.32274e-09
0.00192
-1.32249e-09
0.00192
-1.32223e-09
0.00192
-1.32198e-09
0.00192
-1.32172e-09
0.00192
-1.32146e-09
0.00192
-1.32121e-09
0.00192
-1.32095e-09
0.00192
-1.32069e-09
0.00192
-1.32043e-09
0.00192
-1.32018e-09
0.00192
-1.31992e-09
0.00192
-1.31966e-09
0.00192
-1.3194e-09
0.00192
-1.31914e-09
0.00192
-1.31888e-09
0.00192
-1.31862e-09
0.00192
-1.31835e-09
0.00192
-1.31809e-09
0.00192
-1.31783e-09
0.00192
-1.31757e-09
0.00192
-1.3173e-09
0.00192
-1.31704e-09
0.00192
-1.31677e-09
0.00192
-1.31651e-09
0.00192
-1.31624e-09
0.00192
-1.31597e-09
0.00192
-1.31571e-09
0.00192
-1.31544e-09
0.00192
-1.31517e-09
0.00192
-1.3149e-09
0.00192
-1.31463e-09
0.00192
-1.31436e-09
0.00192
-1.31409e-09
0.00192
-1.31381e-09
0.00192
-1.31354e-09
0.00192
-1.31327e-09
0.00192
-1.31299e-09
0.00192
-1.31272e-09
0.00192
-1.31244e-09
0.00192
-1.31216e-09
0.00192
-1.31188e-09
0.00192
-1.3116e-09
0.00192
-1.31132e-09
0.00192
-1.31104e-09
0.00192
-1.31076e-09
0.00192
-1.31048e-09
0.00192
-1.3102e-09
0.00192
-1.30991e-09
0.00192
-1.30963e-09
0.00192
-1.30934e-09
0.00192
-1.30905e-09
0.00192
-1.30877e-09
0.00192
-1.30848e-09
0.00192
-1.30819e-09
0.00192
-1.3079e-09
0.00192
-1.30761e-09
0.00192
-1.30731e-09
0.00192
-1.30703e-09
0.00192
-1.30674e-09
0.00192
-1.30645e-09
0.00192
-1.30616e-09
0.00192
-1.30588e-09
0.00192
-1.30559e-09
0.00192
-1.30532e-09
0.00192
-1.30506e-09
0.00192
-1.30482e-09
0.00192
-1.30459e-09
0.00192
-1.30444e-09
0.00192
0.00192
-1.7313e-09
0.00192
-1.7307e-09
0.00192
-1.73016e-09
0.00192
-1.72937e-09
0.00192
-1.7286e-09
0.00192
-1.7279e-09
0.00192
-1.72723e-09
0.00192
-1.72659e-09
0.00192
-1.726e-09
0.00192
-1.72543e-09
0.00192
-1.72492e-09
0.00192
-1.72446e-09
0.00192
-1.72405e-09
0.00192
-1.72369e-09
0.00192
-1.72339e-09
0.00192
-1.72315e-09
0.00192
-1.72296e-09
0.00192
-1.72284e-09
0.00192
-1.72277e-09
0.00192
-1.72276e-09
0.00192
-1.72281e-09
0.00192
-1.72292e-09
0.00192
-1.72308e-09
0.00192
-1.7233e-09
0.00192
-1.72358e-09
0.00192
-1.7239e-09
0.00192
-1.72427e-09
0.00192
-1.72467e-09
0.00192
-1.72513e-09
0.00192
-1.72569e-09
0.00192
-1.72626e-09
0.00192
-1.72684e-09
0.00192
-1.72704e-09
0.00192
-1.72657e-09
0.00192
-1.72594e-09
0.00192
-1.72538e-09
0.00192
-1.72468e-09
0.00192
-1.72387e-09
0.00192
-1.72313e-09
0.00192
-1.72245e-09
0.00192
-1.7218e-09
0.00192
-1.72119e-09
0.00192
-1.7206e-09
0.00192
-1.72003e-09
0.00192
-1.7195e-09
0.00192
-1.71898e-09
0.00192
-1.71848e-09
0.00192
-1.718e-09
0.00192
-1.71752e-09
0.00192
-1.71707e-09
0.00192
-1.71662e-09
0.00192
-1.71618e-09
0.00192
-1.71575e-09
0.00192
-1.71534e-09
0.00192
-1.71493e-09
0.00192
-1.71452e-09
0.00192
-1.71413e-09
0.00192
-1.71374e-09
0.00192
-1.71335e-09
0.00192
-1.71297e-09
0.00192
-1.7126e-09
0.00192
-1.71223e-09
0.00192
-1.71186e-09
0.00192
-1.7115e-09
0.00192
-1.71113e-09
0.00192
-1.71078e-09
0.00192
-1.71042e-09
0.00192
-1.71007e-09
0.00192
-1.70972e-09
0.00192
-1.70938e-09
0.00192
-1.70903e-09
0.00192
-1.70869e-09
0.00192
-1.70835e-09
0.00192
-1.70801e-09
0.00192
-1.70767e-09
0.00192
-1.70734e-09
0.00192
-1.707e-09
0.00192
-1.70667e-09
0.00192
-1.70634e-09
0.00192
-1.70601e-09
0.00192
-1.70568e-09
0.00192
-1.70535e-09
0.00192
-1.70502e-09
0.00192
-1.70469e-09
0.00192
-1.70436e-09
0.00192
-1.70404e-09
0.00192
-1.70371e-09
0.00192
-1.70338e-09
0.00192
-1.70306e-09
0.00192
-1.70273e-09
0.00192
-1.70241e-09
0.00192
-1.70208e-09
0.00192
-1.70176e-09
0.00192
-1.70143e-09
0.00192
-1.70111e-09
0.00192
-1.70078e-09
0.00192
-1.70046e-09
0.00192
-1.70013e-09
0.00192
-1.69981e-09
0.00192
-1.69948e-09
0.00192
-1.69916e-09
0.00192
-1.69883e-09
0.00192
-1.69851e-09
0.00192
-1.69818e-09
0.00192
-1.69786e-09
0.00192
-1.69753e-09
0.00192
-1.6972e-09
0.00192
-1.69687e-09
0.00192
-1.69655e-09
0.00192
-1.69622e-09
0.00192
-1.69589e-09
0.00192
-1.69556e-09
0.00192
-1.69524e-09
0.00192
-1.69491e-09
0.00192
-1.69458e-09
0.00192
-1.69425e-09
0.00192
-1.69392e-09
0.00192
-1.69359e-09
0.00192
-1.69326e-09
0.00192
-1.69292e-09
0.00192
-1.69259e-09
0.00192
-1.69226e-09
0.00192
-1.69193e-09
0.00192
-1.69159e-09
0.00192
-1.69126e-09
0.00192
-1.69092e-09
0.00192
-1.69059e-09
0.00192
-1.69025e-09
0.00192
-1.68992e-09
0.00192
-1.68958e-09
0.00192
-1.68924e-09
0.00192
-1.6889e-09
0.00192
-1.68856e-09
0.00192
-1.68822e-09
0.00192
-1.68788e-09
0.00192
-1.68754e-09
0.00192
-1.6872e-09
0.00192
-1.68685e-09
0.00192
-1.68651e-09
0.00192
-1.68617e-09
0.00192
-1.68582e-09
0.00192
-1.68547e-09
0.00192
-1.68513e-09
0.00192
-1.68478e-09
0.00192
-1.68443e-09
0.00192
-1.68408e-09
0.00192
-1.68373e-09
0.00192
-1.68337e-09
0.00192
-1.68302e-09
0.00192
-1.68267e-09
0.00192
-1.68231e-09
0.00192
-1.68195e-09
0.00192
-1.6816e-09
0.00192
-1.68124e-09
0.00192
-1.68088e-09
0.00192
-1.68052e-09
0.00192
-1.68016e-09
0.00192
-1.67979e-09
0.00192
-1.67943e-09
0.00192
-1.67907e-09
0.00192
-1.6787e-09
0.00192
-1.67833e-09
0.00192
-1.67797e-09
0.00192
-1.6776e-09
0.00192
-1.67723e-09
0.00192
-1.67686e-09
0.00192
-1.67649e-09
0.00192
-1.67612e-09
0.00192
-1.67575e-09
0.00192
-1.67539e-09
0.00192
-1.67502e-09
0.00192
-1.67465e-09
0.00192
-1.67429e-09
0.00192
-1.67394e-09
0.00192
-1.67358e-09
0.00192
-1.67324e-09
0.00192
-1.67291e-09
0.00192
-1.6726e-09
0.00192
-1.6723e-09
0.00192
-1.67208e-09
0.00192
0.00192
-2.11165e-09
-2.11104e-09
0.00192
-2.11049e-09
0.00192
-2.10969e-09
0.00192
-2.10887e-09
0.00192
-2.10812e-09
0.00192
-2.10739e-09
0.00192
-2.1067e-09
0.00192
-2.10606e-09
0.00192
-2.10542e-09
0.00192
-2.10485e-09
0.00192
-2.10433e-09
0.00192
-2.10386e-09
0.00192
-2.10344e-09
0.00192
-2.10307e-09
0.00192
-2.10277e-09
0.00192
-2.10253e-09
0.00192
-2.10234e-09
0.00192
-2.10221e-09
0.00192
-2.10215e-09
0.00192
-2.10214e-09
0.00192
-2.10219e-09
0.00192
-2.1023e-09
0.00192
-2.10246e-09
0.00192
-2.10269e-09
0.00192
-2.10296e-09
0.00192
-2.10329e-09
0.00192
-2.10367e-09
0.00192
-2.10411e-09
0.00192
-2.10463e-09
0.00192
-2.10518e-09
0.00192
-2.1057e-09
0.00192
-2.10587e-09
0.00192
-2.10544e-09
0.00192
-2.10481e-09
0.00192
-2.1042e-09
0.00192
-2.10348e-09
0.00192
-2.10262e-09
0.00192
-2.1018e-09
0.00192
-2.10104e-09
0.00192
-2.1003e-09
0.00192
-2.09959e-09
0.00192
-2.09891e-09
0.00192
-2.09825e-09
0.00192
-2.09762e-09
0.00192
-2.097e-09
0.00192
-2.09641e-09
0.00192
-2.09583e-09
0.00192
-2.09526e-09
0.00192
-2.09471e-09
0.00192
-2.09417e-09
0.00192
-2.09364e-09
0.00192
-2.09312e-09
0.00192
-2.09261e-09
0.00192
-2.09211e-09
0.00192
-2.09162e-09
0.00192
-2.09113e-09
0.00192
-2.09066e-09
0.00192
-2.09018e-09
0.00192
-2.08972e-09
0.00192
-2.08926e-09
0.00192
-2.0888e-09
0.00192
-2.08835e-09
0.00192
-2.0879e-09
0.00192
-2.08746e-09
0.00192
-2.08702e-09
0.00192
-2.08659e-09
0.00192
-2.08615e-09
0.00192
-2.08572e-09
0.00192
-2.0853e-09
0.00192
-2.08488e-09
0.00192
-2.08445e-09
0.00192
-2.08404e-09
0.00192
-2.08362e-09
0.00192
-2.08321e-09
0.00192
-2.0828e-09
0.00192
-2.08239e-09
0.00192
-2.08198e-09
0.00192
-2.08157e-09
0.00192
-2.08116e-09
0.00192
-2.08076e-09
0.00192
-2.08035e-09
0.00192
-2.07995e-09
0.00192
-2.07955e-09
0.00192
-2.07915e-09
0.00192
-2.07875e-09
0.00192
-2.07835e-09
0.00192
-2.07795e-09
0.00192
-2.07755e-09
0.00192
-2.07715e-09
0.00192
-2.07675e-09
0.00192
-2.07635e-09
0.00192
-2.07596e-09
0.00192
-2.07556e-09
0.00192
-2.07516e-09
0.00192
-2.07476e-09
0.00192
-2.07436e-09
0.00192
-2.07397e-09
0.00192
-2.07357e-09
0.00192
-2.07317e-09
0.00192
-2.07277e-09
0.00192
-2.07237e-09
0.00192
-2.07198e-09
0.00192
-2.07158e-09
0.00192
-2.07118e-09
0.00192
-2.07078e-09
0.00192
-2.07038e-09
0.00192
-2.06998e-09
0.00192
-2.06958e-09
0.00192
-2.06918e-09
0.00192
-2.06878e-09
0.00192
-2.06838e-09
0.00192
-2.06798e-09
0.00192
-2.06757e-09
0.00192
-2.06717e-09
0.00192
-2.06677e-09
0.00192
-2.06636e-09
0.00192
-2.06596e-09
0.00192
-2.06555e-09
0.00192
-2.06515e-09
0.00192
-2.06474e-09
0.00192
-2.06434e-09
0.00192
-2.06393e-09
0.00192
-2.06352e-09
0.00192
-2.06311e-09
0.00192
-2.0627e-09
0.00192
-2.06229e-09
0.00192
-2.06188e-09
0.00192
-2.06147e-09
0.00192
-2.06106e-09
0.00192
-2.06064e-09
0.00192
-2.06023e-09
0.00192
-2.05981e-09
0.00192
-2.0594e-09
0.00192
-2.05898e-09
0.00192
-2.05856e-09
0.00192
-2.05815e-09
0.00192
-2.05773e-09
0.00192
-2.05731e-09
0.00192
-2.05689e-09
0.00192
-2.05646e-09
0.00192
-2.05604e-09
0.00192
-2.05561e-09
0.00192
-2.05519e-09
0.00192
-2.05476e-09
0.00192
-2.05433e-09
0.00192
-2.0539e-09
0.00192
-2.05347e-09
0.00192
-2.05304e-09
0.00192
-2.05261e-09
0.00192
-2.05218e-09
0.00192
-2.05174e-09
0.00192
-2.0513e-09
0.00192
-2.05086e-09
0.00192
-2.05043e-09
0.00192
-2.04999e-09
0.00192
-2.04954e-09
0.00192
-2.0491e-09
0.00192
-2.04866e-09
0.00192
-2.04821e-09
0.00192
-2.04777e-09
0.00192
-2.04732e-09
0.00192
-2.04687e-09
0.00192
-2.04643e-09
0.00192
-2.04598e-09
0.00192
-2.04553e-09
0.00192
-2.04508e-09
0.00192
-2.04463e-09
0.00192
-2.04418e-09
0.00192
-2.04374e-09
0.00192
-2.0433e-09
0.00192
-2.04285e-09
0.00192
-2.04242e-09
0.00192
-2.04199e-09
0.00192
-2.04156e-09
0.00192
-2.04115e-09
0.00192
-2.04075e-09
0.00192
-2.04037e-09
0.00192
-2.04001e-09
0.00192
-2.03971e-09
0.00192
0.00192
-2.49148e-09
-2.4908e-09
0.00192
-2.49002e-09
0.00192
-2.48918e-09
0.00192
-2.48837e-09
0.00192
-2.48758e-09
0.00192
-2.48684e-09
0.00192
-2.48614e-09
0.00192
-2.48544e-09
0.00192
-2.48481e-09
0.00192
-2.48423e-09
0.00192
-2.48369e-09
0.00192
-2.4832e-09
0.00192
-2.48278e-09
0.00192
-2.48242e-09
0.00192
-2.48211e-09
0.00192
-2.48187e-09
0.00192
-2.48168e-09
0.00192
-2.48156e-09
0.00192
-2.48149e-09
0.00192
-2.48148e-09
0.00192
-2.48153e-09
0.00192
-2.48165e-09
0.00192
-2.48182e-09
0.00192
-2.48205e-09
0.00192
-2.48235e-09
0.00192
-2.48268e-09
0.00192
-2.4831e-09
0.00192
-2.48358e-09
0.00192
-2.48409e-09
0.00192
-2.48453e-09
0.00192
-2.48465e-09
0.00192
-2.48425e-09
0.00192
-2.48362e-09
0.00192
-2.48299e-09
0.00192
-2.48223e-09
0.00192
-2.48134e-09
0.00192
-2.48044e-09
0.00192
-2.4796e-09
0.00192
-2.47878e-09
0.00192
-2.47798e-09
0.00192
-2.4772e-09
0.00192
-2.47645e-09
0.00192
-2.47573e-09
0.00192
-2.47502e-09
0.00192
-2.47433e-09
0.00192
-2.47366e-09
0.00192
-2.47299e-09
0.00192
-2.47235e-09
0.00192
-2.47171e-09
0.00192
-2.47109e-09
0.00192
-2.47048e-09
0.00192
-2.46988e-09
0.00192
-2.46929e-09
0.00192
-2.46871e-09
0.00192
-2.46813e-09
0.00192
-2.46757e-09
0.00192
-2.46701e-09
0.00192
-2.46646e-09
0.00192
-2.46591e-09
0.00192
-2.46537e-09
0.00192
-2.46484e-09
0.00192
-2.46431e-09
0.00192
-2.46378e-09
0.00192
-2.46326e-09
0.00192
-2.46274e-09
0.00192
-2.46223e-09
0.00192
-2.46172e-09
0.00192
-2.46122e-09
0.00192
-2.46072e-09
0.00192
-2.46021e-09
0.00192
-2.45972e-09
0.00192
-2.45923e-09
0.00192
-2.45873e-09
0.00192
-2.45825e-09
0.00192
-2.45776e-09
0.00192
-2.45728e-09
0.00192
-2.45679e-09
0.00192
-2.45631e-09
0.00192
-2.45583e-09
0.00192
-2.45535e-09
0.00192
-2.45488e-09
0.00192
-2.4544e-09
0.00192
-2.45392e-09
0.00192
-2.45345e-09
0.00192
-2.45298e-09
0.00192
-2.4525e-09
0.00192
-2.45203e-09
0.00192
-2.45156e-09
0.00192
-2.45109e-09
0.00192
-2.45062e-09
0.00192
-2.45015e-09
0.00192
-2.44967e-09
0.00192
-2.4492e-09
0.00192
-2.44873e-09
0.00192
-2.44826e-09
0.00192
-2.44779e-09
0.00192
-2.44732e-09
0.00192
-2.44685e-09
0.00192
-2.44638e-09
0.00192
-2.44591e-09
0.00192
-2.44544e-09
0.00192
-2.44497e-09
0.00192
-2.4445e-09
0.00192
-2.44402e-09
0.00192
-2.44355e-09
0.00192
-2.44308e-09
0.00192
-2.4426e-09
0.00192
-2.44213e-09
0.00192
-2.44165e-09
0.00192
-2.44118e-09
0.00192
-2.44071e-09
0.00192
-2.44023e-09
0.00192
-2.43975e-09
0.00192
-2.43928e-09
0.00192
-2.4388e-09
0.00192
-2.43832e-09
0.00192
-2.43784e-09
0.00192
-2.43736e-09
0.00192
-2.43688e-09
0.00192
-2.4364e-09
0.00192
-2.43592e-09
0.00192
-2.43544e-09
0.00192
-2.43496e-09
0.00192
-2.43447e-09
0.00192
-2.43399e-09
0.00192
-2.4335e-09
0.00192
-2.43301e-09
0.00192
-2.43253e-09
0.00192
-2.43204e-09
0.00192
-2.43155e-09
0.00192
-2.43106e-09
0.00192
-2.43057e-09
0.00192
-2.43007e-09
0.00192
-2.42958e-09
0.00192
-2.42909e-09
0.00192
-2.42859e-09
0.00192
-2.42809e-09
0.00192
-2.4276e-09
0.00192
-2.4271e-09
0.00192
-2.4266e-09
0.00192
-2.42609e-09
0.00192
-2.42559e-09
0.00192
-2.42508e-09
0.00192
-2.42458e-09
0.00192
-2.42407e-09
0.00192
-2.42356e-09
0.00192
-2.42305e-09
0.00192
-2.42254e-09
0.00192
-2.42203e-09
0.00192
-2.42152e-09
0.00192
-2.421e-09
0.00192
-2.42048e-09
0.00192
-2.41996e-09
0.00192
-2.41944e-09
0.00192
-2.41892e-09
0.00192
-2.4184e-09
0.00192
-2.41787e-09
0.00192
-2.41735e-09
0.00192
-2.41682e-09
0.00192
-2.4163e-09
0.00192
-2.41577e-09
0.00192
-2.41524e-09
0.00192
-2.41471e-09
0.00192
-2.41419e-09
0.00192
-2.41366e-09
0.00192
-2.41313e-09
0.00192
-2.41261e-09
0.00192
-2.41208e-09
0.00192
-2.41157e-09
0.00192
-2.41105e-09
0.00192
-2.41054e-09
0.00192
-2.41003e-09
0.00192
-2.40954e-09
0.00192
-2.40905e-09
0.00192
-2.40858e-09
0.00192
-2.40813e-09
0.00192
-2.40771e-09
0.00192
-2.40732e-09
0.00192
0.00192
-2.8711e-09
0.00192
-2.87033e-09
0.00192
-2.86952e-09
0.00192
-2.86865e-09
0.00192
-2.8678e-09
0.00192
-2.86703e-09
0.00192
-2.86626e-09
0.00192
-2.86549e-09
0.00192
-2.8648e-09
0.00192
-2.86416e-09
0.00192
-2.86355e-09
0.00192
-2.863e-09
0.00192
-2.86252e-09
0.00192
-2.8621e-09
0.00192
-2.86173e-09
0.00192
-2.86142e-09
0.00192
-2.86117e-09
0.00192
-2.86099e-09
0.00192
-2.86086e-09
0.00192
-2.8608e-09
0.00192
-2.8608e-09
0.00192
-2.86086e-09
0.00192
-2.86098e-09
0.00192
-2.86116e-09
0.00192
-2.86141e-09
0.00192
-2.86171e-09
0.00192
-2.86209e-09
0.00192
-2.86253e-09
0.00192
-2.86299e-09
0.00192
-2.86335e-09
0.00192
-2.86342e-09
0.00192
-2.86303e-09
0.00192
-2.8624e-09
0.00192
-2.86173e-09
0.00192
-2.86094e-09
0.00192
-2.86001e-09
0.00192
-2.85905e-09
0.00192
-2.85813e-09
0.00192
-2.85723e-09
0.00192
-2.85634e-09
0.00192
-2.85548e-09
0.00192
-2.85464e-09
0.00192
-2.85382e-09
0.00192
-2.85302e-09
0.00192
-2.85224e-09
0.00192
-2.85147e-09
0.00192
-2.85071e-09
0.00192
-2.84997e-09
0.00192
-2.84924e-09
0.00192
-2.84853e-09
0.00192
-2.84783e-09
0.00192
-2.84714e-09
0.00192
-2.84646e-09
0.00192
-2.84578e-09
0.00192
-2.84512e-09
0.00192
-2.84447e-09
0.00192
-2.84382e-09
0.00192
-2.84319e-09
0.00192
-2.84256e-09
0.00192
-2.84193e-09
0.00192
-2.84131e-09
0.00192
-2.8407e-09
0.00192
-2.84009e-09
0.00192
-2.83949e-09
0.00192
-2.83889e-09
0.00192
-2.8383e-09
0.00192
-2.83771e-09
0.00192
-2.83713e-09
0.00192
-2.83655e-09
0.00192
-2.83596e-09
0.00192
-2.83539e-09
0.00192
-2.83483e-09
0.00192
-2.83426e-09
0.00192
-2.83369e-09
0.00192
-2.83313e-09
0.00192
-2.83257e-09
0.00192
-2.83201e-09
0.00192
-2.83145e-09
0.00192
-2.8309e-09
0.00192
-2.83035e-09
0.00192
-2.8298e-09
0.00192
-2.82925e-09
0.00192
-2.82869e-09
0.00192
-2.82814e-09
0.00192
-2.8276e-09
0.00192
-2.82705e-09
0.00192
-2.8265e-09
0.00192
-2.82596e-09
0.00192
-2.82541e-09
0.00192
-2.82487e-09
0.00192
-2.82433e-09
0.00192
-2.82378e-09
0.00192
-2.82324e-09
0.00192
-2.82269e-09
0.00192
-2.82215e-09
0.00192
-2.82161e-09
0.00192
-2.82106e-09
0.00192
-2.82052e-09
0.00192
-2.81998e-09
0.00192
-2.81943e-09
0.00192
-2.81889e-09
0.00192
-2.81835e-09
0.00192
-2.8178e-09
0.00192
-2.81726e-09
0.00192
-2.81671e-09
0.00192
-2.81616e-09
0.00192
-2.81562e-09
0.00192
-2.81507e-09
0.00192
-2.81452e-09
0.00192
-2.81397e-09
0.00192
-2.81343e-09
0.00192
-2.81288e-09
0.00192
-2.81233e-09
0.00192
-2.81178e-09
0.00192
-2.81123e-09
0.00192
-2.81068e-09
0.00192
-2.81012e-09
0.00192
-2.80957e-09
0.00192
-2.80901e-09
0.00192
-2.80846e-09
0.00192
-2.8079e-09
0.00192
-2.80735e-09
0.00192
-2.80679e-09