/*--------------------------------*- C++ -*----------------------------------*\
| =========                 |                                                 |
| \\      /  F ield         | OpenFOAM: The Open Source CFD Toolbox           |
|  \\    /   O peration     | Version:  2512                                  |
|   \\  /    A nd           | Website:  www.openfoam.com                      |
|    \\/     M anipulation  |                                                 |
\*---------------------------------------------------------------------------*/
FoamFile
{
    version     2.0;
    format      ascii;
    arch        "LSB;label=32;scalar=64";
    class       volVectorField;
    location    "0.1";
    object      U;
}
// * * * * * * * * * * * * * * * * * * * * * * * * * * * * * * * * * * * * * //

dimensions      [0 1 -1 0 0 0 0];

internalField   nonuniform List<vector> 
8334
(
(0.0629882 -4.67065e-06 2.52694e-18)
(0.0630005 -1.96722e-06 -1.09044e-17)
(0.0630106 -2.76226e-06 -1.1069e-18)
(0.0630205 -1.99828e-06 -1.01615e-17)
(0.0630311 -1.71582e-06 -5.79186e-18)
(0.0630417 -1.34607e-06 -4.32578e-18)
(0.0630519 -1.14228e-06 -8.50788e-19)
(0.063062 -8.83072e-07 -3.16093e-18)
(0.0630721 -5.95881e-07 3.28961e-18)
(0.0630821 -4.0834e-07 -6.66416e-18)
(0.0630922 -2.71908e-07 -4.66227e-18)
(0.0631022 -1.12977e-07 -1.25662e-18)
(0.0631122 4.327e-08 -3.50637e-18)
(0.0631221 1.91874e-07 2.51369e-18)
(0.0631321 3.3767e-07 -5.97565e-18)
(0.063142 4.76753e-07 -5.96591e-18)
(0.0631519 6.17138e-07 -2.45775e-19)
(0.0631618 7.60591e-07 -5.91495e-18)
(0.0631716 9.05924e-07 -1.09085e-17)
(0.0631814 1.05604e-06 6.47852e-18)
(0.0631912 1.20124e-06 -1.54486e-17)
(0.063201 1.36934e-06 2.87205e-19)
(0.0632107 1.51987e-06 -6.31715e-18)
(0.0632205 1.70598e-06 -3.87304e-19)
(0.0632302 1.87887e-06 -1.27493e-17)
(0.0632399 2.06873e-06 -6.98082e-18)
(0.0632496 2.30943e-06 -6.05786e-18)
(0.0632591 2.4184e-06 -1.20321e-18)
(0.0632689 2.6694e-06 -7.6418e-19)
(0.0632784 2.6705e-06 -2.71693e-18)
(0.0632882 3.00814e-06 5.29582e-18)
(0.0632977 3.02677e-06 -4.30458e-18)
(0.0633075 3.6527e-06 -2.50306e-18)
(0.0633174 3.83045e-06 7.14392e-20)
(0.0633274 4.00575e-06 -2.567e-18)
(0.0633391 4.28832e-06 1.81293e-18)
(0.0633479 1.67109e-06 -2.02125e-18)
(0.0633555 1.33902e-06 1.43504e-18)
(0.0633652 6.97556e-07 -9.33114e-19)
(0.0633745 2.42644e-07 6.80604e-18)
(0.0633831 2.30004e-07 -5.03754e-18)
(0.0633917 2.4996e-07 -1.50018e-18)
(0.0634005 2.15355e-07 -3.15932e-18)
(0.0634093 1.85986e-07 1.13302e-19)
(0.0634181 1.72266e-07 -5.05128e-19)
(0.0634269 1.65122e-07 -2.6255e-18)
(0.0634356 1.62204e-07 5.28006e-18)
(0.0634444 1.62706e-07 -3.73552e-18)
(0.0634531 1.65768e-07 -3.45678e-18)
(0.0634618 1.71084e-07 2.5339e-18)
(0.0634704 1.77849e-07 -7.40611e-18)
(0.0634791 1.8469e-07 9.5076e-18)
(0.0634877 1.91494e-07 -1.10778e-17)
(0.0634963 1.97807e-07 2.61439e-17)
(0.0635049 2.03381e-07 7.82182e-18)
(0.0635135 2.08244e-07 1.89121e-17)
(0.063522 2.12463e-07 2.73207e-17)
(0.0635305 2.1595e-07 3.45799e-18)
(0.063539 2.18675e-07 2.4647e-17)
(0.0635475 2.20728e-07 1.5804e-17)
(0.0635559 2.22015e-07 1.80417e-17)
(0.0635643 2.22401e-07 2.23436e-18)
(0.0635727 2.21907e-07 1.79743e-17)
(0.063581 2.20526e-07 -1.25785e-17)
(0.0635894 2.1833e-07 2.26468e-17)
(0.0635977 2.15392e-07 5.63521e-18)
(0.063606 2.11881e-07 1.85898e-17)
(0.0636142 2.07811e-07 2.87283e-17)
(0.0636224 2.0317e-07 5.31751e-18)
(0.0636306 1.98003e-07 2.62197e-17)
(0.0636388 1.92277e-07 1.69434e-17)
(0.063647 1.86119e-07 1.76928e-17)
(0.0636551 1.79554e-07 4.01236e-18)
(0.0636632 1.72645e-07 1.46078e-17)
(0.0636712 1.6538e-07 -6.56204e-18)
(0.0636793 1.57833e-07 1.36669e-17)
(0.0636873 1.50077e-07 1.59776e-17)
(0.0636953 1.42102e-07 4.83412e-18)
(0.0637032 1.33868e-07 1.76464e-17)
(0.0637112 1.25192e-07 -5.54219e-18)
(0.0637191 1.16336e-07 1.84146e-17)
(0.0637269 1.07292e-07 1.05115e-17)
(0.0637348 9.81771e-08 1.59146e-17)
(0.0637426 8.9072e-08 3.73705e-18)
(0.0637504 7.95644e-08 9.73158e-18)
(0.0637581 6.96599e-08 1.26835e-18)
(0.0637659 5.90455e-08 2.58307e-18)
(0.0637736 4.79597e-08 -1.20707e-17)
(0.0637812 3.65066e-08 -9.67186e-18)
(0.0637889 2.49775e-08 -6.90361e-18)
(0.0637965 1.34632e-08 -3.18754e-18)
(0.0638041 1.96672e-09 -3.41749e-18)
(0.0638117 -9.402e-09 2.74932e-18)
(0.0638192 -2.06133e-08 -5.96347e-18)
(0.0638267 -3.16115e-08 8.21424e-18)
(0.0638342 -4.24149e-08 -9.06854e-18)
(0.0638416 -5.32259e-08 1.17681e-17)
(0.063849 -6.42508e-08 1.6052e-17)
(0.0638564 -7.58193e-08 4.10123e-18)
(0.0638637 -8.78359e-08 4.33991e-18)
(0.0638711 -1.00314e-07 2.44128e-18)
(0.0638783 -1.13151e-07 1.80231e-18)
(0.0638856 -1.26214e-07 -1.12571e-18)
(0.0638928 -1.39031e-07 3.53641e-18)
(0.0639 -1.51592e-07 -5.56769e-18)
(0.0639072 -1.64042e-07 8.07832e-18)
(0.0639143 -1.76321e-07 -8.43943e-18)
(0.0639215 -1.8854e-07 9.99281e-18)
(0.0639285 -2.00403e-07 1.93053e-17)
(0.0639356 -2.11988e-07 -2.08685e-18)
(0.0639426 -2.24425e-07 1.23288e-17)
(0.0639496 -2.36937e-07 -6.83287e-18)
(0.0639565 -2.50057e-07 1.31053e-17)
(0.0639635 -2.63878e-07 1.64482e-17)
(0.0639703 -2.77603e-07 3.94394e-18)
(0.0639772 -2.91407e-07 4.17965e-18)
(0.063984 -3.04927e-07 2.36746e-18)
(0.0639908 -3.17952e-07 1.77319e-18)
(0.0639976 -3.30443e-07 -1.12903e-18)
(0.0640043 -3.42873e-07 3.57206e-18)
(0.064011 -3.55805e-07 -5.67363e-18)
(0.0640177 -3.68723e-07 8.36603e-18)
(0.0640243 -3.82239e-07 -9.13296e-18)
(0.0640309 -3.96117e-07 1.15829e-17)
(0.0640375 -4.09841e-07 1.60313e-17)
(0.064044 -4.23484e-07 4.15988e-18)
(0.0640505 -4.37135e-07 4.37084e-18)
(0.064057 -4.50242e-07 2.52452e-18)
(0.0640635 -4.63691e-07 1.46624e-18)
(0.0640699 -4.77015e-07 3.14856e-20)
(0.0640762 -4.90081e-07 9.06689e-19)
(0.0640826 -5.03363e-07 -1.51205e-18)
(0.0640889 -5.17213e-07 5.36491e-18)
(0.0640951 -5.30757e-07 4.23353e-18)
(0.0641014 -5.43708e-07 5.68443e-18)
(0.0641076 -5.56606e-07 2.84561e-18)
(0.0641138 -5.70816e-07 4.90749e-18)
(0.0641199 -5.85013e-07 -1.15248e-17)
(0.064126 -5.98883e-07 1.02678e-17)
(0.0641321 -6.12128e-07 1.4222e-17)
(0.0641381 -6.25143e-07 6.82835e-18)
(0.0641441 -6.37923e-07 1.15472e-17)
(0.0641501 -6.51498e-07 1.03878e-18)
(0.064156 -6.65239e-07 -1.16462e-18)
(0.0641619 -6.78652e-07 4.25551e-18)
(0.0641678 -6.92004e-07 -5.54128e-18)
(0.0641736 -7.04706e-07 -5.51317e-18)
(0.0641794 -7.17163e-07 -1.0548e-18)
(0.0641852 -7.31515e-07 -1.78422e-18)
(0.0641909 -7.45825e-07 -2.61287e-18)
(0.0641966 -7.59372e-07 3.8573e-18)
(0.0642023 -7.72163e-07 -9.00345e-19)
(0.0642079 -7.83825e-07 -7.9819e-18)
(0.0642135 -7.98192e-07 8.084e-18)
(0.064219 -8.12391e-07 -1.22898e-17)
(0.0642245 -8.25678e-07 1.51079e-17)
(0.06423 -8.37932e-07 9.7172e-18)
(0.0642355 -8.51171e-07 1.49181e-17)
(0.0642409 -8.66322e-07 2.43787e-18)
(0.0642462 -8.83017e-07 -5.11025e-19)
(0.0642516 -9.00414e-07 3.26261e-18)
(0.0642569 -9.17314e-07 -6.61065e-18)
(0.0642621 -9.3397e-07 8.8706e-18)
(0.0642674 -9.51792e-07 -1.17346e-17)
(0.0642725 -9.71255e-07 1.53046e-17)
(0.0642777 -9.9071e-07 1.07939e-17)
(0.0642828 -1.01072e-06 1.3851e-17)
(0.0642879 -1.03175e-06 4.80577e-18)
(0.0642929 -1.05351e-06 -5.06808e-18)
(0.0642979 -1.07486e-06 8.8993e-18)
(0.0643029 -1.09598e-06 -1.11891e-17)
(0.0643078 -1.11597e-06 1.35906e-17)
(0.0643127 -1.13535e-06 1.27075e-17)
(0.0643176 -1.15175e-06 9.164e-18)
(0.0643224 -1.17131e-06 9.75756e-18)
(0.0643272 -1.17864e-06 -9.06522e-18)
(0.064332 -1.20995e-06 1.17841e-17)
(0.0643366 -1.18054e-06 1.50874e-17)
(0.0643414 -1.27071e-06 7.18701e-18)
(0.0643459 -1.11611e-06 1.16295e-17)
(0.0643505 -1.3928e-06 1.49929e-18)
(0.0643552 -9.3018e-07 -1.17106e-18)
(0.0643595 -1.39923e-06 4.50883e-18)
(0.0643651 -6.00989e-07 -5.75486e-18)
(0.0629882 -3.18529e-08 1.28931e-18)
(0.063001 -2.57802e-06 -2.4468e-18)
(0.0630101 2.63273e-08 -3.04298e-19)
(0.0630208 -3.71e-07 -1.91176e-18)
(0.0630313 -2.28705e-08 -1.84889e-18)
(0.0630418 5.91205e-07 -2.67842e-18)
(0.0630519 7.71362e-07 -2.7716e-19)
(0.0630621 8.813e-07 -1.81051e-18)
(0.0630722 1.13186e-06 1.0119e-18)
(0.0630822 1.32382e-06 4.87809e-19)
(0.0630922 1.50456e-06 -1.14844e-18)
(0.0631023 1.69003e-06 1.30704e-19)
(0.0631123 1.84866e-06 -1.75086e-18)
(0.0631222 2.00653e-06 2.53226e-19)
(0.0631321 2.16708e-06 7.65937e-19)
(0.063142 2.31436e-06 -1.38043e-18)
(0.0631519 2.45958e-06 -1.46997e-18)
(0.0631618 2.60695e-06 2.13058e-18)
(0.0631717 2.75161e-06 -7.16246e-18)
(0.0631815 2.90027e-06 6.92788e-18)
(0.0631913 3.04133e-06 -1.11977e-17)
(0.0632011 3.196e-06 9.92827e-18)
(0.0632108 3.34297e-06 -1.63498e-17)
(0.0632205 3.50221e-06 -1.1196e-17)
(0.0632303 3.65931e-06 -1.14023e-17)
(0.0632399 3.8137e-06 -8.94937e-18)
(0.0632497 4.01697e-06 -6.54607e-18)
(0.0632593 4.13668e-06 -3.64383e-18)
(0.063269 4.4519e-06 -3.54343e-19)
(0.0632785 4.47248e-06 -1.98808e-18)
(0.0632883 4.90407e-06 1.59468e-18)
(0.0632977 4.81417e-06 1.0906e-18)
(0.0633075 5.48302e-06 2.74671e-21)
(0.0633174 5.13174e-06 1.58581e-19)
(0.0633273 6.03601e-06 -1.15963e-18)
(0.0633385 5.01528e-06 7.93234e-19)
(0.0633476 3.03716e-06 -4.98932e-19)
(0.0633555 3.18564e-06 1.34025e-18)
(0.0633651 2.86335e-06 -6.45781e-19)
(0.0633744 2.33485e-06 2.66514e-18)
(0.063383 2.21628e-06 1.1008e-18)
(0.0633916 2.24202e-06 4.5396e-19)
(0.0634005 2.21934e-06 -8.23926e-19)
(0.0634093 2.185e-06 -7.14273e-19)
(0.0634181 2.16755e-06 8.36411e-19)
(0.0634269 2.16018e-06 -1.53909e-18)
(0.0634356 2.15727e-06 1.72651e-18)
(0.0634444 2.15736e-06 1.42272e-18)
(0.0634531 2.16016e-06 -7.49732e-19)
(0.0634618 2.16424e-06 2.26632e-18)
(0.0634704 2.16934e-06 -5.5548e-18)
(0.0634791 2.17495e-06 8.02701e-18)
(0.0634877 2.18067e-06 -9.30229e-18)
(0.0634963 2.18629e-06 9.46664e-18)
(0.0635049 2.19149e-06 -1.87764e-18)
(0.0635135 2.19607e-06 -2.06964e-18)
(0.063522 2.19995e-06 7.94583e-18)
(0.0635305 2.20304e-06 2.32397e-18)
(0.063539 2.20522e-06 5.25281e-18)
(0.0635475 2.20643e-06 5.14419e-18)
(0.0635559 2.20674e-06 9.84839e-18)
(0.0635643 2.20616e-06 1.75179e-18)
(0.0635727 2.20477e-06 1.03924e-17)
(0.063581 2.20263e-06 -2.74511e-18)
(0.0635894 2.19968e-06 4.4248e-18)
(0.0635977 2.19594e-06 3.64461e-18)
(0.063606 2.19139e-06 2.10484e-18)
(0.0636142 2.18621e-06 1.23334e-17)
(0.0636224 2.18053e-06 6.22154e-18)
(0.0636306 2.1743e-06 7.85592e-18)
(0.0636388 2.16759e-06 6.77315e-18)
(0.063647 2.16039e-06 1.00168e-17)
(0.0636551 2.15271e-06 3.1035e-18)
(0.0636632 2.14455e-06 8.34176e-18)
(0.0636712 2.13595e-06 6.58099e-19)
(0.0636793 2.12689e-06 4.86016e-19)
(0.0636873 2.11738e-06 6.24719e-18)
(0.0636953 2.10765e-06 2.17483e-18)
(0.0637032 2.09764e-06 9.87305e-18)
(0.0637112 2.08768e-06 8.09923e-19)
(0.0637191 2.07767e-06 4.4108e-18)
(0.0637269 2.06752e-06 6.8939e-19)
(0.0637348 2.05714e-06 1.27405e-17)
(0.0637426 2.04643e-06 -3.69802e-18)
(0.0637504 2.03503e-06 1.57133e-17)
(0.0637581 2.02297e-06 -1.23295e-17)
(0.0637659 2.01071e-06 -8.63271e-18)
(0.0637736 1.99829e-06 -1.00707e-17)
(0.0637812 1.98597e-06 -9.16833e-18)
(0.0637889 1.97347e-06 -6.79871e-18)
(0.0637965 1.96066e-06 -3.3696e-18)
(0.0638041 1.9476e-06 -2.64628e-18)
(0.0638117 1.93449e-06 1.78968e-18)
(0.0638192 1.92141e-06 -2.82404e-18)
(0.0638267 1.9082e-06 4.00943e-18)
(0.0638342 1.89494e-06 -7.74939e-19)
(0.0638416 1.88191e-06 -7.93895e-19)
(0.063849 1.86924e-06 4.96057e-18)
(0.0638564 1.85605e-06 5.47596e-18)
(0.0638637 1.84237e-06 4.33464e-18)
(0.0638711 1.82861e-06 2.23042e-18)
(0.0638783 1.8148e-06 1.48614e-18)
(0.0638856 1.80081e-06 -4.20873e-19)
(0.0638928 1.7866e-06 2.57936e-18)
(0.0639 1.77224e-06 -2.48334e-18)
(0.0639072 1.75801e-06 3.9502e-18)
(0.0639143 1.74385e-06 -3.84422e-19)
(0.0639215 1.72983e-06 -1.80022e-18)
(0.0639285 1.71573e-06 6.98672e-18)
(0.0639356 1.70132e-06 2.27093e-18)
(0.0639426 1.68644e-06 7.6399e-18)
(0.0639496 1.67145e-06 7.27238e-19)
(0.0639565 1.6567e-06 -4.64609e-19)
(0.0639635 1.64232e-06 4.83591e-18)
(0.0639703 1.62783e-06 5.22484e-18)
(0.0639772 1.61337e-06 4.11735e-18)
(0.063984 1.5988e-06 2.13056e-18)
(0.0639908 1.58422e-06 1.42821e-18)
(0.0639976 1.56958e-06 -4.48345e-19)
(0.0640043 1.55469e-06 2.61943e-18)
(0.064011 1.53892e-06 -2.56068e-18)
(0.0640177 1.523e-06 4.15998e-18)
(0.0640243 1.50747e-06 -8.38235e-19)
(0.0640309 1.49203e-06 -8.31276e-19)
(0.0640375 1.47676e-06 4.98397e-18)
(0.064044 1.46189e-06 5.49836e-18)
(0.0640505 1.44746e-06 4.38785e-18)
(0.064057 1.43296e-06 2.17983e-18)
(0.0640634 1.41745e-06 1.43268e-18)
(0.0640699 1.4013e-06 1.26e-20)
(0.0640762 1.38492e-06 1.20949e-18)
(0.0640826 1.36888e-06 2.5982e-19)
(0.0640889 1.35343e-06 6.51747e-19)
(0.0640951 1.33808e-06 1.8026e-18)
(0.0641014 1.32274e-06 3.1914e-18)
(0.0641076 1.3072e-06 7.51649e-19)
(0.0641138 1.2909e-06 5.99988e-18)
(0.0641199 1.27474e-06 -1.59401e-18)
(0.064126 1.25866e-06 -1.80186e-18)
(0.0641321 1.24254e-06 4.18306e-18)
(0.0641381 1.2267e-06 3.611e-18)
(0.0641441 1.21163e-06 5.33487e-18)
(0.0641501 1.19587e-06 4.71556e-18)
(0.064156 1.17975e-06 4.74898e-19)
(0.0641619 1.16355e-06 1.63855e-18)
(0.0641678 1.14752e-06 2.07318e-19)
(0.0641736 1.13169e-06 -1.42369e-18)
(0.0641794 1.1164e-06 -1.28248e-18)
(0.0641852 1.09982e-06 -2.43089e-20)
(0.0641909 1.08362e-06 -1.72516e-18)
(0.0641966 1.06757e-06 7.02571e-19)
(0.0642022 1.05199e-06 3.21048e-18)
(0.0642079 1.03722e-06 -3.40356e-18)
(0.0642135 1.02091e-06 4.02847e-18)
(0.064219 1.00471e-06 -3.92173e-18)
(0.0642245 9.89111e-07 8.96209e-19)
(0.06423 9.74823e-07 2.03869e-18)
(0.0642354 9.58791e-07 6.84755e-18)
(0.0642408 9.40376e-07 5.65588e-18)
(0.0642462 9.22319e-07 1.63602e-18)
(0.0642516 9.03702e-07 2.81386e-18)
(0.0642569 8.84336e-07 -3.60404e-18)
(0.0642621 8.64715e-07 4.53332e-18)
(0.0642673 8.45433e-07 -3.14106e-18)
(0.0642725 8.2592e-07 1.42718e-18)
(0.0642777 8.05742e-07 2.89858e-18)
(0.0642828 7.83605e-07 6.23929e-18)
(0.0642879 7.5949e-07 7.35537e-18)
(0.0642929 7.39022e-07 -8.92518e-19)
(0.0642979 7.20351e-07 5.06312e-18)
(0.0643029 7.02788e-07 -3.05045e-18)
(0.0643078 6.85957e-07 7.7569e-20)
(0.0643127 6.69278e-07 4.08337e-18)
(0.0643176 6.54481e-07 3.61192e-18)
(0.0643224 6.38284e-07 9.16867e-18)
(0.0643272 6.30716e-07 2.87381e-19)
(0.064332 6.09866e-07 -8.04884e-19)
(0.0643366 6.24787e-07 4.81432e-18)
(0.0643414 5.76658e-07 3.89245e-18)
(0.0643459 6.51597e-07 5.48851e-18)
(0.0643505 5.36203e-07 4.91998e-18)
(0.0643552 6.62194e-07 3.78531e-19)
(0.0643594 6.06379e-07 1.70158e-18)
(0.0643647 5.69553e-07 1.04368e-19)
(0.0630005 -2.5457e-06 2.08305e-18)
(0.0630113 -3.41862e-06 2.43603e-18)
(0.0630204 -9.49294e-07 2.22394e-18)
(0.0630314 -1.30966e-06 2.21948e-18)
(0.063042 -1.00012e-06 1.55817e-18)
(0.063052 -9.21773e-07 2.37725e-18)
(0.0630621 -6.72125e-07 1.84119e-18)
(0.0630723 -3.05406e-07 2.57789e-18)
(0.0630823 -1.51615e-07 3.10079e-18)
(0.0630923 -1.13204e-08 2.40004e-18)
(0.0631024 1.78715e-07 2.75868e-18)
(0.0631123 3.37834e-07 2.00751e-18)
(0.0631223 4.84783e-07 2.25587e-18)
(0.0631322 6.31014e-07 3.08824e-18)
(0.0631421 7.66437e-07 2.65032e-18)
(0.063152 8.99773e-07 1.48791e-18)
(0.0631619 1.04037e-06 4.3959e-18)
(0.0631717 1.17579e-06 -1.111e-18)
(0.0631815 1.31027e-06 6.66692e-18)
(0.0631913 1.44555e-06 -2.48665e-18)
(0.0632011 1.58785e-06 5.14298e-18)
(0.0632109 1.72081e-06 2.04028e-18)
(0.0632206 1.86796e-06 -5.64438e-19)
(0.0632303 2.01372e-06 -2.86661e-18)
(0.06324 2.14162e-06 -3.03413e-18)
(0.0632497 2.32603e-06 -1.7782e-18)
(0.0632593 2.41713e-06 -2.65991e-19)
(0.0632691 2.6932e-06 1.77551e-18)
(0.0632786 2.69806e-06 1.59364e-18)
(0.0632884 3.10581e-06 2.66465e-18)
(0.0632979 3.02779e-06 3.13494e-18)
(0.0633077 3.726e-06 2.78509e-18)
(0.0633176 3.47206e-06 2.65001e-18)
(0.0633274 4.17188e-06 2.11868e-18)
(0.0633381 3.55754e-06 2.76635e-18)
(0.0633473 1.87043e-06 2.3591e-18)
(0.0633555 1.88555e-06 3.06116e-18)
(0.0633648 1.61141e-06 2.31101e-18)
(0.0633742 1.05489e-06 3.14707e-18)
(0.063383 8.91056e-07 3.28468e-18)
(0.0633916 9.12177e-07 2.92509e-18)
(0.0634004 8.90538e-07 2.42648e-18)
(0.0634093 8.50141e-07 2.05539e-18)
(0.0634181 8.2518e-07 2.83157e-18)
(0.0634269 8.11604e-07 1.98197e-18)
(0.0634356 8.0327e-07 2.77125e-18)
(0.0634444 7.99807e-07 3.40718e-18)
(0.0634531 8.00058e-07 2.37721e-18)
(0.0634618 8.03156e-07 4.01771e-18)
(0.0634705 8.08035e-07 -5.06095e-19)
(0.0634791 8.13462e-07 6.64729e-18)
(0.0634877 8.1909e-07 -1.36893e-18)
(0.0634963 8.24579e-07 4.12537e-18)
(0.0635049 8.29579e-07 4.68256e-18)
(0.0635135 8.34016e-07 1.42127e-18)
(0.063522 8.37924e-07 3.32019e-18)
(0.0635305 8.41209e-07 2.20741e-18)
(0.063539 8.43801e-07 2.58652e-18)
(0.0635475 8.4567e-07 2.92781e-18)
(0.0635559 8.46717e-07 5.59315e-18)
(0.0635643 8.47142e-07 3.06806e-18)
(0.0635727 8.46887e-07 6.19393e-18)
(0.063581 8.45891e-07 2.40454e-18)
(0.0635894 8.44234e-07 3.18889e-18)
(0.0635977 8.42115e-07 3.93559e-18)
(0.063606 8.3952e-07 2.3414e-18)
(0.0636142 8.36333e-07 5.97514e-18)
(0.0636224 8.3248e-07 5.24606e-18)
(0.0636306 8.28044e-07 4.84464e-18)
(0.0636388 8.23098e-07 4.38312e-18)
(0.063647 8.17694e-07 6.0229e-18)
(0.0636551 8.11853e-07 3.78532e-18)
(0.0636632 8.05608e-07 5.4132e-18)
(0.0636712 7.98773e-07 3.66816e-18)
(0.0636793 7.91561e-07 2.08212e-18)
(0.0636873 7.83946e-07 4.12674e-18)
(0.0636953 7.75657e-07 2.99504e-18)
(0.0637032 7.67157e-07 5.97129e-18)
(0.0637112 7.58251e-07 3.39552e-18)
(0.0637191 7.48855e-07 4.31198e-18)
(0.0637269 7.39054e-07 7.97892e-19)
(0.0637348 7.28901e-07 8.64405e-18)
(0.0637426 7.18359e-07 -1.54337e-19)
(0.0637504 7.08083e-07 7.33712e-18)
(0.0637581 6.98263e-07 3.664e-18)
(0.0637659 6.88993e-07 4.20722e-19)
(0.0637736 6.79912e-07 -2.31855e-18)
(0.0637812 6.70175e-07 -2.92265e-18)
(0.0637889 6.60152e-07 -1.78167e-18)
(0.0637965 6.50005e-07 1.40375e-19)
(0.0638041 6.39641e-07 9.26992e-19)
(0.0638116 6.28914e-07 2.99362e-18)
(0.0638192 6.17944e-07 1.51058e-18)
(0.0638267 6.06749e-07 3.65822e-18)
(0.0638341 5.95194e-07 3.08943e-18)
(0.0638416 5.8335e-07 1.70675e-18)
(0.063849 5.70816e-07 3.36619e-18)
(0.0638564 5.58477e-07 4.58574e-18)
(0.0638637 5.46419e-07 4.46716e-18)
(0.0638711 5.34638e-07 3.58038e-18)
(0.0638783 5.23032e-07 3.17323e-18)
(0.0638856 5.11723e-07 2.33833e-18)
(0.0638928 5.00556e-07 3.4861e-18)
(0.0639 4.89184e-07 1.67368e-18)
(0.0639072 4.77186e-07 3.61648e-18)
(0.0639143 4.64816e-07 3.22852e-18)
(0.0639215 4.52045e-07 1.28688e-18)
(0.0639285 4.39051e-07 4.13152e-18)
(0.0639356 4.2601e-07 3.43595e-18)
(0.0639426 4.1345e-07 5.26873e-18)
(0.0639496 4.00853e-07 3.74416e-18)
(0.0639565 3.88214e-07 1.81201e-18)
(0.0639635 3.75505e-07 3.23489e-18)
(0.0639703 3.62983e-07 4.4286e-18)
(0.0639772 3.50525e-07 4.30965e-18)
(0.063984 3.37792e-07 3.57123e-18)
(0.0639908 3.2477e-07 3.13843e-18)
(0.0639976 3.11459e-07 2.29708e-18)
(0.0640043 2.9785e-07 3.56229e-18)
(0.064011 2.84876e-07 1.68383e-18)
(0.0640177 2.7169e-07 3.73297e-18)
(0.0640243 2.58556e-07 3.02323e-18)
(0.0640309 2.45835e-07 1.64048e-18)
(0.0640375 2.32932e-07 3.29169e-18)
(0.064044 2.1968e-07 4.5987e-18)
(0.0640505 2.05925e-07 4.45001e-18)
(0.064057 1.91942e-07 3.7257e-18)
(0.0640634 1.78771e-07 2.83882e-18)
(0.0640698 1.65897e-07 3.03702e-18)
(0.0640762 1.52979e-07 2.4188e-18)
(0.0640826 1.39459e-07 3.05778e-18)
(0.0640889 1.25955e-07 2.82424e-18)
(0.0640951 1.12307e-07 2.76884e-18)
(0.0641014 9.83659e-08 3.03118e-18)
(0.0641076 8.42606e-08 1.71358e-18)
(0.0641138 7.08498e-08 4.20342e-18)
(0.0641199 5.70787e-08 2.69201e-18)
(0.064126 4.32467e-08 1.13621e-18)
(0.0641321 2.96788e-08 3.13129e-18)
(0.0641381 1.63565e-08 3.59568e-18)
(0.0641441 1.9986e-09 4.11634e-18)
(0.0641501 -1.18999e-08 4.65215e-18)
(0.064156 -2.56678e-08 3.05973e-18)
(0.0641619 -3.96318e-08 2.95792e-18)
(0.0641678 -5.34771e-08 2.85357e-18)
(0.0641736 -6.76814e-08 2.33116e-18)
(0.0641794 -8.21566e-08 1.92196e-18)
(0.0641852 -9.57546e-08 2.55577e-18)
(0.0641909 -1.09905e-07 1.8929e-18)
(0.0641966 -1.24119e-07 2.33524e-18)
(0.0642022 -1.38693e-07 4.04507e-18)
(0.0642079 -1.54091e-07 1.57429e-18)
(0.0642135 -1.6775e-07 3.83233e-18)
(0.064219 -1.8131e-07 1.70448e-18)
(0.0642245 -1.94978e-07 2.09896e-18)
(0.06423 -2.09197e-07 2.56636e-18)
(0.0642354 -2.23215e-07 4.35667e-18)
(0.0642408 -2.36476e-07 4.9412e-18)
(0.0642462 -2.4996e-07 3.51963e-18)
(0.0642516 -2.6295e-07 3.8704e-18)
(0.0642569 -2.76102e-07 1.23001e-18)
(0.0642621 -2.89693e-07 3.86967e-18)
(0.0642673 -3.03208e-07 2.02546e-18)
(0.0642725 -3.1528e-07 2.34234e-18)
(0.0642777 -3.27333e-07 2.9068e-18)
(0.0642828 -3.39579e-07 4.19061e-18)
(0.0642879 -3.52549e-07 5.68618e-18)
(0.0642929 -3.62805e-07 2.63758e-18)
(0.0642979 -3.71874e-07 4.39018e-18)
(0.0643029 -3.80482e-07 2.15397e-18)
(0.0643078 -3.88389e-07 1.83439e-18)
(0.0643127 -3.95926e-07 3.39756e-18)
(0.0643176 -4.02534e-07 3.25935e-18)
(0.0643224 -4.09817e-07 6.06114e-18)
(0.0643272 -4.13892e-07 3.84991e-18)
(0.064332 -4.22467e-07 1.7041e-18)
(0.0643366 -4.19382e-07 3.50757e-18)
(0.0643414 -4.34341e-07 3.74048e-18)
(0.0643459 -4.21488e-07 4.20384e-18)
(0.0643505 -4.21459e-07 4.75905e-18)
(0.0643552 -4.28733e-07 3.02249e-18)
(0.0643595 -2.69031e-07 2.96926e-18)
(0.0643649 -4.54112e-07 2.83345e-18)
(0.0630107 -8.69847e-07 9.2406e-18)
(0.0630214 1.42482e-07 9.09066e-18)
(0.0630312 -5.81509e-07 9.27218e-18)
(0.0630418 3.50277e-08 8.96971e-18)
(0.0630519 1.66832e-07 9.12874e-18)
(0.0630623 4.489e-07 8.94779e-18)
(0.0630724 7.57532e-07 9.21599e-18)
(0.0630824 9.39588e-07 9.40323e-18)
(0.0630924 1.12892e-06 9.1678e-18)
(0.0631024 1.29612e-06 9.34581e-18)
(0.0631124 1.427e-06 9.12164e-18)
(0.0631223 1.58141e-06 9.12902e-18)
(0.0631323 1.73894e-06 9.33577e-18)
(0.0631422 1.87068e-06 9.5647e-18)
(0.0631521 2.00764e-06 8.62361e-18)
(0.0631619 2.1479e-06 1.03076e-17)
(0.0631718 2.28657e-06 6.85727e-18)
(0.0631816 2.42497e-06 1.23041e-17)
(0.0631914 2.56074e-06 5.96453e-18)
(0.0632012 2.70438e-06 1.06241e-17)
(0.0632109 2.84627e-06 9.59573e-18)
(0.0632207 2.99457e-06 7.5038e-18)
(0.0632304 3.14842e-06 5.58895e-18)
(0.0632401 3.28986e-06 5.13876e-18)
(0.0632498 3.48318e-06 6.06275e-18)
(0.0632594 3.60221e-06 7.2372e-18)
(0.0632691 3.87035e-06 8.34169e-18)
(0.0632787 3.91695e-06 8.75014e-18)
(0.0632884 4.2903e-06 9.10554e-18)
(0.063298 4.20278e-06 9.25626e-18)
(0.0633077 4.75466e-06 9.21446e-18)
(0.0633176 4.45386e-06 9.22828e-18)
(0.0633273 4.81884e-06 9.05582e-18)
(0.0633377 4.26456e-06 9.3794e-18)
(0.063347 2.93505e-06 9.24258e-18)
(0.0633554 2.90286e-06 9.34566e-18)
(0.0633647 2.80021e-06 9.01738e-18)
(0.0633741 2.34403e-06 9.33695e-18)
(0.0633829 2.13492e-06 9.5036e-18)
(0.0633916 2.13163e-06 9.23435e-18)
(0.0634004 2.11835e-06 9.10142e-18)
(0.0634093 2.08414e-06 8.90516e-18)
(0.0634181 2.06238e-06 9.03556e-18)
(0.0634269 2.05154e-06 8.90531e-18)
(0.0634356 2.04653e-06 9.16067e-18)
(0.0634444 2.04482e-06 9.59955e-18)
(0.0634531 2.04593e-06 9.06948e-18)
(0.0634618 2.04889e-06 1.03522e-17)
(0.0634705 2.05294e-06 7.16861e-18)
(0.0634791 2.05776e-06 1.20726e-17)
(0.0634877 2.06287e-06 6.36612e-18)
(0.0634963 2.06792e-06 1.04218e-17)
(0.0635049 2.07268e-06 1.01263e-17)
(0.0635135 2.07691e-06 7.66005e-18)
(0.063522 2.08052e-06 7.00295e-18)
(0.0635305 2.08348e-06 6.65909e-18)
(0.063539 2.08573e-06 7.37244e-18)
(0.0635475 2.08721e-06 8.16815e-18)
(0.0635559 2.08791e-06 9.50289e-18)
(0.0635643 2.08762e-06 9.23791e-18)
(0.0635727 2.08646e-06 1.01577e-17)
(0.063581 2.08456e-06 9.24228e-18)
(0.0635894 2.08187e-06 9.23509e-18)
(0.0635977 2.07834e-06 9.6733e-18)
(0.063606 2.07405e-06 9.11517e-18)
(0.0636142 2.06921e-06 1.00288e-17)
(0.0636224 2.0642e-06 9.89066e-18)
(0.0636306 2.05872e-06 9.80533e-18)
(0.0636388 2.05275e-06 9.75777e-18)
(0.063647 2.0464e-06 1.01597e-17)
(0.0636551 2.03962e-06 9.54626e-18)
(0.0636632 2.03251e-06 9.90781e-18)
(0.0636712 2.02521e-06 9.66405e-18)
(0.0636793 2.01749e-06 9.05649e-18)
(0.0636873 2.00949e-06 9.48735e-18)
(0.0636953 2.00144e-06 9.29752e-18)
(0.0637032 1.99292e-06 1.02669e-17)
(0.0637111 1.98358e-06 9.32462e-18)
(0.063719 1.97458e-06 1.03617e-17)
(0.0637269 1.96563e-06 7.45452e-18)
(0.0637348 1.95651e-06 1.25162e-17)
(0.0637426 1.94736e-06 6.4935e-18)
(0.0637504 1.93792e-06 1.12602e-17)
(0.0637581 1.92794e-06 1.01514e-17)
(0.0637659 1.9171e-06 7.65562e-18)
(0.0637736 1.90585e-06 5.63022e-18)
(0.0637812 1.89447e-06 5.17445e-18)
(0.0637889 1.8828e-06 6.21807e-18)
(0.0637965 1.87083e-06 7.43514e-18)
(0.0638041 1.8586e-06 8.21215e-18)
(0.0638116 1.84676e-06 9.09496e-18)
(0.0638192 1.8353e-06 8.8395e-18)
(0.0638267 1.82397e-06 9.46427e-18)
(0.0638341 1.81286e-06 9.60827e-18)
(0.0638416 1.80151e-06 9.01947e-18)
(0.063849 1.7899e-06 9.40547e-18)
(0.0638564 1.77797e-06 9.8338e-18)
(0.0638637 1.7659e-06 9.81604e-18)
(0.063871 1.75363e-06 9.6047e-18)
(0.0638783 1.74137e-06 9.40885e-18)
(0.0638856 1.72836e-06 9.14127e-18)
(0.0638928 1.71513e-06 9.38062e-18)
(0.0639 1.702e-06 8.84325e-18)
(0.0639072 1.68916e-06 9.33662e-18)
(0.0639143 1.67657e-06 9.53454e-18)
(0.0639214 1.66407e-06 8.90323e-18)
(0.0639285 1.6516e-06 9.53935e-18)
(0.0639356 1.63914e-06 9.44809e-18)
(0.0639426 1.62666e-06 9.82609e-18)
(0.0639496 1.61398e-06 9.58854e-18)
(0.0639565 1.6009e-06 9.0268e-18)
(0.0639634 1.58724e-06 9.27576e-18)
(0.0639703 1.57332e-06 9.70905e-18)
(0.0639772 1.55916e-06 9.59175e-18)
(0.063984 1.5451e-06 9.68992e-18)
(0.0639908 1.53161e-06 9.41954e-18)
(0.0639976 1.51832e-06 9.02033e-18)
(0.0640043 1.50522e-06 9.55965e-18)
(0.064011 1.49201e-06 9.03562e-18)
(0.0640177 1.47895e-06 9.47525e-18)
(0.0640243 1.46522e-06 9.51755e-18)
(0.0640309 1.45058e-06 8.88165e-18)
(0.0640375 1.43614e-06 9.13804e-18)
(0.064044 1.42176e-06 9.84749e-18)
(0.0640505 1.40724e-06 9.67826e-18)
(0.064057 1.39274e-06 1.00725e-17)
(0.0640634 1.37837e-06 8.40224e-18)
(0.0640698 1.36426e-06 1.09094e-17)
(0.0640762 1.35028e-06 7.31798e-18)
(0.0640826 1.33694e-06 1.08289e-17)
(0.0640889 1.32245e-06 9.20168e-18)
(0.0640951 1.30758e-06 7.81031e-18)
(0.0641014 1.29267e-06 7.04903e-18)
(0.0641076 1.27777e-06 6.59256e-18)
(0.0641138 1.26222e-06 8.04243e-18)
(0.0641199 1.24702e-06 8.60965e-18)
(0.064126 1.23231e-06 8.40665e-18)
(0.0641321 1.21774e-06 9.04775e-18)
(0.0641381 1.20276e-06 9.44058e-18)
(0.0641441 1.18763e-06 9.63779e-18)
(0.0641501 1.17279e-06 9.7061e-18)
(0.064156 1.15843e-06 9.37275e-18)
(0.0641619 1.14402e-06 9.27978e-18)
(0.0641678 1.12911e-06 9.25112e-18)
(0.0641736 1.11374e-06 9.10085e-18)
(0.0641794 1.09773e-06 8.89203e-18)
(0.0641852 1.08229e-06 9.13944e-18)
(0.0641909 1.06718e-06 8.89426e-18)
(0.0641966 1.05204e-06 8.94891e-18)
(0.0642022 1.0367e-06 9.68316e-18)
(0.0642079 1.02156e-06 9.0161e-18)
(0.0642134 1.00672e-06 9.54678e-18)
(0.064219 9.91869e-07 9.05717e-18)
(0.0642245 9.76644e-07 8.91489e-18)
(0.06423 9.60514e-07 9.21656e-18)
(0.0642354 9.44627e-07 9.44446e-18)
(0.0642408 9.29291e-07 9.72401e-18)
(0.0642462 9.13974e-07 9.55249e-18)
(0.0642515 8.98673e-07 9.71573e-18)
(0.0642568 8.83572e-07 8.82693e-18)
(0.0642621 8.68603e-07 9.36542e-18)
(0.0642673 8.53728e-07 9.19899e-18)
(0.0642725 8.38131e-07 8.97148e-18)
(0.0642777 8.22291e-07 9.1442e-18)
(0.0642828 8.06998e-07 9.59061e-18)
(0.0642879 7.93251e-07 1.01403e-17)
(0.0642929 7.78871e-07 9.2641e-18)
(0.0642979 7.64367e-07 9.81839e-18)
(0.0643029 7.49787e-07 9.38621e-18)
(0.0643078 7.35751e-07 8.96005e-18)
(0.0643127 7.2255e-07 9.44394e-18)
(0.0643176 7.10765e-07 9.29e-18)
(0.0643224 6.98856e-07 1.03612e-17)
(0.0643272 6.88374e-07 9.96945e-18)
(0.064332 6.77358e-07 8.97729e-18)
(0.0643366 6.70246e-07 9.44316e-18)
(0.0643414 6.67492e-07 9.5269e-18)
(0.0643459 6.51267e-07 9.66557e-18)
(0.0643505 6.89121e-07 9.87202e-18)
(0.0643552 5.86459e-07 9.35112e-18)
(0.0643594 7.62243e-07 9.28762e-18)
(0.0643648 4.63156e-07 9.25453e-18)
(0.0630204 -2.99186e-06 2.43071e-17)
(0.0630312 3.91139e-07 2.51696e-17)
(0.0630421 -5.51728e-07 2.46082e-17)
(0.063052 -8.29978e-07 2.46644e-17)
(0.0630622 -3.55307e-07 2.43724e-17)
(0.0630724 4.68434e-08 2.46832e-17)
(0.0630824 1.14559e-07 2.46934e-17)
(0.0630925 3.18166e-07 2.46275e-17)
(0.0631025 5.55887e-07 2.48683e-17)
(0.0631125 7.07014e-07 2.50229e-17)
(0.0631224 8.63465e-07 2.49617e-17)
(0.0631324 1.01822e-06 2.4656e-17)
(0.0631423 1.15312e-06 2.53355e-17)
(0.0631521 1.29409e-06 2.42359e-17)
(0.063162 1.44366e-06 2.54005e-17)
(0.0631719 1.5848e-06 2.22854e-17)
(0.0631817 1.72258e-06 2.84e-17)
(0.0631915 1.86247e-06 2.00316e-17)
(0.0632013 2.01116e-06 3.02043e-17)
(0.063211 2.15524e-06 1.79012e-17)
(0.0632208 2.29768e-06 1.91309e-17)
(0.0632305 2.4505e-06 1.95433e-17)
(0.0632402 2.59129e-06 2.02128e-17)
(0.0632499 2.77564e-06 2.13902e-17)
(0.0632595 2.88594e-06 2.27794e-17)
(0.0632692 3.12363e-06 2.36072e-17)
(0.0632788 3.16999e-06 2.44778e-17)
(0.0632885 3.5108e-06 2.4515e-17)
(0.0632981 3.454e-06 2.47928e-17)
(0.0633078 3.94769e-06 2.44441e-17)
(0.0633177 3.74437e-06 2.47179e-17)
(0.0633273 4.00647e-06 2.43262e-17)
(0.0633375 3.61663e-06 2.52463e-17)
(0.0633468 2.52371e-06 2.481e-17)
(0.0633554 2.41052e-06 2.51274e-17)
(0.0633646 2.34758e-06 2.43308e-17)
(0.0633739 1.92144e-06 2.49256e-17)
(0.0633828 1.67068e-06 2.49279e-17)
(0.0633915 1.64416e-06 2.4611e-17)
(0.0634004 1.62864e-06 2.43527e-17)
(0.0634092 1.59083e-06 2.46553e-17)
(0.0634181 1.56305e-06 2.37743e-17)
(0.0634268 1.5486e-06 2.4253e-17)
(0.0634356 1.53959e-06 2.45742e-17)
(0.0634444 1.53475e-06 2.51007e-17)
(0.0634531 1.53316e-06 2.47073e-17)
(0.0634618 1.53485e-06 2.61976e-17)
(0.0634705 1.53837e-06 2.28602e-17)
(0.0634791 1.54278e-06 2.79258e-17)
(0.0634877 1.54765e-06 2.02843e-17)
(0.0634963 1.55256e-06 2.9848e-17)
(0.0635049 1.55715e-06 1.81904e-17)
(0.0635135 1.5613e-06 1.88405e-17)
(0.063522 1.56493e-06 1.96236e-17)
(0.0635305 1.56785e-06 2.01439e-17)
(0.063539 1.57e-06 2.16446e-17)
(0.0635475 1.57144e-06 2.31296e-17)
(0.0635559 1.57237e-06 2.41765e-17)
(0.0635643 1.57271e-06 2.49283e-17)
(0.0635727 1.57248e-06 2.47093e-17)
(0.063581 1.57153e-06 2.48995e-17)
(0.0635894 1.56995e-06 2.45697e-17)
(0.0635977 1.56783e-06 2.46444e-17)
(0.063606 1.56523e-06 2.48389e-17)
(0.0636142 1.56197e-06 2.52272e-17)
(0.0636224 1.55783e-06 2.47524e-17)
(0.0636306 1.55314e-06 2.46744e-17)
(0.0636388 1.54801e-06 2.51226e-17)
(0.0636469 1.54249e-06 2.53601e-17)
(0.0636551 1.53661e-06 2.44499e-17)
(0.0636632 1.53028e-06 2.48262e-17)
(0.0636712 1.52303e-06 2.47888e-17)
(0.0636793 1.51549e-06 2.46521e-17)
(0.0636873 1.50763e-06 2.49139e-17)