/*--------------------------------*- C++ -*----------------------------------*\
| =========                 |                                                 |
| \\      /  F ield         | OpenFOAM: The Open Source CFD Toolbox           |
|  \\    /   O peration     | Version:  2512                                  |
|   \\  /    A nd           | Website:  www.openfoam.com                      |
|    \\/     M anipulation  |                                                 |
\*---------------------------------------------------------------------------*/
FoamFile
{
    version     2.0;
    format      ascii;
    arch        "LSB;label=32;scalar=64";
    class       volScalarField;
    location    "0.1";
    object      Ux;
}
// * * * * * * * * * * * * * * * * * * * * * * * * * * * * * * * * * * * * * //

dimensions      [0 1 -1 0 0 0 0];

internalField   nonuniform List<scalar> 
8334
(
0.0629882
0.0630005
0.0630106
0.0630205
0.0630311
0.0630417
0.0630519
0.063062
0.0630721
0.0630821
0.0630922
0.0631022
0.0631122
0.0631221
0.0631321
0.063142
0.0631519
0.0631618
0.0631716
0.0631814
0.0631912
0.063201
0.0632107
0.0632205
0.0632302
0.0632399
0.0632496
0.0632591
0.0632689
0.0632784
0.0632882
0.0632977
0.0633075
0.0633174
0.0633274
0.0633391
0.0633479
0.0633555
0.0633652
0.0633745
0.0633831
0.0633917
0.0634005
0.0634093
0.0634181
0.0634269
0.0634356
0.0634444
0.0634531
0.0634618
0.0634704
0.0634791
0.0634877
0.0634963
0.0635049
0.0635135
0.063522
0.0635305
0.063539
0.0635475
0.0635559
0.0635643
0.0635727
0.063581
0.0635894
0.0635977
0.063606
0.0636142
0.0636224
0.0636306
0.0636388
0.063647
0.0636551
0.0636632
0.0636712
0.0636793
0.0636873
0.0636953
0.0637032
0.0637112
0.0637191
0.0637269
0.0637348
0.0637426
0.0637504
0.0637581
0.0637659
0.0637736
0.0637812
0.0637889
0.0637965
0.0638041
0.0638117
0.0638192
0.0638267
0.0638342
0.0638416
0.063849
0.0638564
0.0638637
0.0638711
0.0638783
0.0638856
0.0638928
0.0639
0.0639072
0.0639143
0.0639215
0.0639285
0.0639356
0.0639426
0.0639496
0.0639565
0.0639635
0.0639703
0.0639772
0.063984
0.0639908
0.0639976
0.0640043
0.064011
0.0640177
0.0640243
0.0640309
0.0640375
0.064044
0.0640505
0.064057
0.0640635
0.0640699
0.0640762
0.0640826
0.0640889
0.0640951
0.0641014
0.0641076
0.0641138
0.0641199
0.064126
0.0641321
0.0641381
0.0641441
0.0641501
0.064156
0.0641619
0.0641678
0.0641736
0.0641794
0.0641852
0.0641909
0.0641966
0.0642023
0.0642079
0.0642135
0.064219
0.0642245
0.06423
0.0642355
0.0642409
0.0642462
0.0642516
0.0642569
0.0642621
0.0642674
0.0642725
0.0642777
0.0642828
0.0642879
0.0642929
0.0642979
0.0643029
0.0643078
0.0643127
0.0643176
0.0643224
0.0643272
0.064332
0.0643366
0.0643414
0.0643459
0.0643505
0.0643552
0.0643595
0.0643651
0.0629882
0.063001
0.0630101
0.0630208
0.0630313
0.0630418
0.0630519
0.0630621
0.0630722
0.0630822
0.0630922
0.0631023
0.0631123
0.0631222
0.0631321
0.063142
0.0631519
0.0631618
0.0631717
0.0631815
0.0631913
0.0632011
0.0632108
0.0632205
0.0632303
0.0632399
0.0632497
0.0632593
0.063269
0.0632785
0.0632883
0.0632977
0.0633075
0.0633174
0.0633273
0.0633385
0.0633476
0.0633555
0.0633651
0.0633744
0.063383
0.0633916
0.0634005
0.0634093
0.0634181
0.0634269
0.0634356
0.0634444
0.0634531
0.0634618
0.0634704
0.0634791
0.0634877
0.0634963
0.0635049
0.0635135
0.063522
0.0635305
0.063539
0.0635475
0.0635559
0.0635643
0.0635727
0.063581
0.0635894
0.0635977
0.063606
0.0636142
0.0636224
0.0636306
0.0636388
0.063647
0.0636551
0.0636632
0.0636712
0.0636793
0.0636873
0.0636953
0.0637032
0.0637112
0.0637191
0.0637269
0.0637348
0.0637426
0.0637504
0.0637581
0.0637659
0.0637736
0.0637812
0.0637889
0.0637965
0.0638041
0.0638117
0.0638192
0.0638267
0.0638342
0.0638416
0.063849
0.0638564
0.0638637
0.0638711
0.0638783
0.0638856
0.0638928
0.0639
0.0639072
0.0639143
0.0639215
0.0639285
0.0639356
0.0639426
0.0639496
0.0639565
0.0639635
0.0639703
0.0639772
0.063984
0.0639908
0.0639976
0.0640043
0.064011
0.0640177
0.0640243
0.0640309
0.0640375
0.064044
0.0640505
0.064057
0.0640634
0.0640699
0.0640762
0.0640826
0.0640889
0.0640951
0.0641014
0.0641076
0.0641138
0.0641199
0.064126
0.0641321
0.0641381
0.0641441
0.0641501
0.064156
0.0641619
0.0641678
0.0641736
0.0641794
0.0641852
0.0641909
0.0641966
0.0642022
0.0642079
0.0642135
0.064219
0.0642245
0.06423
0.0642354
0.0642408
0.0642462
0.0642516
0.0642569
0.0642621
0.0642673
0.0642725
0.0642777
0.0642828
0.0642879
0.0642929
0.0642979
0.0643029
0.0643078
0.0643127
0.0643176
0.0643224
0.0643272
0.064332
0.0643366
0.0643414
0.0643459
0.0643505
0.0643552
0.0643594
0.0643647
0.0630005
0.0630113
0.0630204
0.0630314
0.063042
0.063052
0.0630621
0.0630723
0.0630823
0.0630923
0.0631024
0.0631123
0.0631223
0.0631322
0.0631421
0.063152
0.0631619
0.0631717
0.0631815
0.0631913
0.0632011
0.0632109
0.0632206
0.0632303
0.06324
0.0632497
0.0632593
0.0632691
0.0632786
0.0632884
0.0632979
0.0633077
0.0633176
0.0633274
0.0633381
0.0633473
0.0633555
0.0633648
0.0633742
0.063383
0.0633916
0.0634004
0.0634093
0.0634181
0.0634269
0.0634356
0.0634444
0.0634531
0.0634618
0.0634705
0.0634791
0.0634877
0.0634963
0.0635049
0.0635135
0.063522
0.0635305
0.063539
0.0635475
0.0635559
0.0635643
0.0635727
0.063581
0.0635894
0.0635977
0.063606
0.0636142
0.0636224
0.0636306
0.0636388
0.063647
0.0636551
0.0636632
0.0636712
0.0636793
0.0636873
0.0636953
0.0637032
0.0637112
0.0637191
0.0637269
0.0637348
0.0637426
0.0637504
0.0637581
0.0637659
0.0637736
0.0637812
0.0637889
0.0637965
0.0638041
0.0638116
0.0638192
0.0638267
0.0638341
0.0638416
0.063849
0.0638564
0.0638637
0.0638711
0.0638783
0.0638856
0.0638928
0.0639
0.0639072
0.0639143
0.0639215
0.0639285
0.0639356
0.0639426
0.0639496
0.0639565
0.0639635
0.0639703
0.0639772
0.063984
0.0639908
0.0639976
0.0640043
0.064011
0.0640177
0.0640243
0.0640309
0.0640375
0.064044
0.0640505
0.064057
0.0640634
0.0640698
0.0640762
0.0640826
0.0640889
0.0640951
0.0641014
0.0641076
0.0641138
0.0641199
0.064126
0.0641321
0.0641381
0.0641441
0.0641501
0.064156
0.0641619
0.0641678
0.0641736
0.0641794
0.0641852
0.0641909
0.0641966
0.0642022
0.0642079
0.0642135
0.064219
0.0642245
0.06423
0.0642354
0.0642408
0.0642462
0.0642516
0.0642569
0.0642621
0.0642673
0.0642725
0.0642777
0.0642828
0.0642879
0.0642929
0.0642979
0.0643029
0.0643078
0.0643127
0.0643176
0.0643224
0.0643272
0.064332
0.0643366
0.0643414
0.0643459
0.0643505
0.0643552
0.0643595
0.0643649
0.0630107
0.0630214
0.0630312
0.0630418
0.0630519
0.0630623
0.0630724
0.0630824
0.0630924
0.0631024
0.0631124
0.0631223
0.0631323
0.0631422
0.0631521
0.0631619
0.0631718
0.0631816
0.0631914
0.0632012
0.0632109
0.0632207
0.0632304
0.0632401
0.0632498
0.0632594
0.0632691
0.0632787
0.0632884
0.063298
0.0633077
0.0633176
0.0633273
0.0633377
0.063347
0.0633554
0.0633647
0.0633741
0.0633829
0.0633916
0.0634004
0.0634093
0.0634181
0.0634269
0.0634356
0.0634444
0.0634531
0.0634618
0.0634705
0.0634791
0.0634877
0.0634963
0.0635049
0.0635135
0.063522
0.0635305
0.063539
0.0635475
0.0635559
0.0635643
0.0635727
0.063581
0.0635894
0.0635977
0.063606
0.0636142
0.0636224
0.0636306
0.0636388
0.063647
0.0636551
0.0636632
0.0636712
0.0636793
0.0636873
0.0636953
0.0637032
0.0637111
0.063719
0.0637269
0.0637348
0.0637426
0.0637504
0.0637581
0.0637659
0.0637736
0.0637812
0.0637889
0.0637965
0.0638041
0.0638116
0.0638192
0.0638267
0.0638341
0.0638416
0.063849
0.0638564
0.0638637
0.063871
0.0638783
0.0638856
0.0638928
0.0639
0.0639072
0.0639143
0.0639214
0.0639285
0.0639356
0.0639426
0.0639496
0.0639565
0.0639634
0.0639703
0.0639772
0.063984
0.0639908
0.0639976
0.0640043
0.064011
0.0640177
0.0640243
0.0640309
0.0640375
0.064044
0.0640505
0.064057
0.0640634
0.0640698
0.0640762
0.0640826
0.0640889
0.0640951
0.0641014
0.0641076
0.0641138
0.0641199
0.064126
0.0641321
0.0641381
0.0641441
0.0641501
0.064156
0.0641619
0.0641678
0.0641736
0.0641794
0.0641852
0.0641909
0.0641966
0.0642022
0.0642079
0.0642134
0.064219
0.0642245
0.06423
0.0642354
0.0642408
0.0642462
0.0642515
0.0642568
0.0642621
0.0642673
0.0642725
0.0642777
0.0642828
0.0642879
0.0642929
0.0642979
0.0643029
0.0643078
0.0643127
0.0643176
0.0643224
0.0643272
0.064332
0.0643366
0.0643414
0.0643459
0.0643505
0.0643552
0.0643594
0.0643648
0.0630204
0.0630312
0.0630421
0.063052
0.0630622
0.0630724
0.0630824
0.0630925
0.0631025
0.0631125
0.0631224
0.0631324
0.0631423
0.0631521
0.063162
0.0631719
0.0631817
0.0631915
0.0632013
0.063211
0.0632208
0.0632305
0.0632402
0.0632499
0.0632595
0.0632692
0.0632788
0.0632885
0.0632981
0.0633078
0.0633177
0.0633273
0.0633375
0.0633468
0.0633554
0.0633646
0.0633739
0.0633828
0.0633915
0.0634004
0.0634092
0.0634181
0.0634268
0.0634356
0.0634444
0.0634531
0.0634618
0.0634705
0.0634791
0.0634877
0.0634963
0.0635049
0.0635135
0.063522
0.0635305
0.063539
0.0635475
0.0635559
0.0635643
0.0635727
0.063581
0.0635894
0.0635977
0.063606
0.0636142
0.0636224
0.0636306
0.0636388
0.0636469
0.0636551
0.0636632
0.0636712
0.0636793
0.0636873
0.0636953
0.0637032
0.0637111
0.063719
0.0637269
0.0637348
0.0637426
0.0637504
0.0637581
0.0637659
0.0637736
0.0637812
0.0637889
0.0637965
0.0638041
0.0638116
0.0638192
0.0638267
0.0638341
0.0638416
0.063849
0.0638564
0.0638637
0.063871
0.0638783
0.0638856
0.0638928
0.0639
0.0639072
0.0639143
0.0639214
0.0639285
0.0639356
0.0639426
0.0639496
0.0639565
0.0639634
0.0639703
0.0639772
0.063984
0.0639908
0.0639976
0.0640043
0.064011
0.0640177
0.0640243
0.0640309
0.0640375
0.064044
0.0640505
0.064057
0.0640634
0.0640698
0.0640762
0.0640826
0.0640889
0.0640951
0.0641014
0.0641076
0.0641138
0.0641199
0.064126
0.0641321
0.0641381
0.0641441
0.0641501
0.064156
0.0641619
0.0641678
0.0641736
0.0641794
0.0641852
0.0641909
0.0641966
0.0642022
0.0642079
0.0642134
0.064219
0.0642245
0.06423
0.0642354
0.0642408
0.0642462
0.0642515
0.0642568
0.0642621
0.0642673
0.0642725
0.0642777
0.0642828
0.0642879
0.0642929
0.0642979
0.0643029
0.0643078
0.0643127
0.0643176
0.0643224
0.0643272
0.064332
0.0643366
0.0643414
0.0643459
0.0643505
0.0643553
0.0643594
0.0643647
0.06302
0.063032
0.0630412
0.0630518
0.0630625
0.0630725
0.0630824
0.0630926
0.0631026
0.0631125
0.0631225
0.0631324
0.0631423
0.0631522
0.0631621
0.0631719
0.0631817
0.0631915
0.0632013
0.0632111
0.0632208
0.0632305
0.0632402
0.0632499
0.0632596
0.0632693
0.0632789
0.0632886
0.0632982
0.0633078
0.0633177
0.0633273
0.0633372
0.0633466
0.0633554
0.0633645
0.0633738
0.0633827
0.0633915
0.0634004
0.0634092
0.063418
0.0634268
0.0634356
0.0634443
0.0634531
0.0634618
0.0634705
0.0634791
0.0634877
0.0634963
0.0635049
0.0635135
0.063522
0.0635305
0.063539
0.0635475
0.0635559
0.0635643
0.0635727
0.063581
0.0635894
0.0635977
0.063606
0.0636142
0.0636224
0.0636306
0.0636388
0.0636469
0.0636551
0.0636632
0.0636712
0.0636793
0.0636873
0.0636953
0.0637032
0.0637111
0.063719
0.0637269
0.0637348
0.0637426
0.0637504
0.0637581
0.0637659
0.0637736
0.0637812
0.0637889
0.0637965
0.0638041
0.0638116
0.0638192
0.0638267
0.0638341
0.0638416
0.063849
0.0638564
0.0638637
0.063871
0.0638783
0.0638856
0.0638928
0.0639
0.0639072
0.0639143
0.0639214
0.0639285
0.0639356
0.0639426
0.0639496
0.0639565
0.0639634
0.0639703
0.0639772
0.063984
0.0639908
0.0639976
0.0640043
0.064011
0.0640177
0.0640243
0.0640309
0.0640375
0.064044
0.0640505
0.064057
0.0640634
0.0640698
0.0640762
0.0640825
0.0640889
0.0640951
0.0641014
0.0641076
0.0641137
0.0641199
0.064126
0.0641321
0.0641381
0.0641441
0.0641501
0.064156
0.0641619
0.0641678
0.0641736
0.0641794
0.0641852
0.0641909
0.0641966
0.0642022
0.0642078
0.0642134
0.064219
0.0642245
0.06423
0.0642354
0.0642408
0.0642462
0.0642515
0.0642568
0.0642621
0.0642673
0.0642725
0.0642777
0.0642828
0.0642879
0.0642929
0.0642979
0.0643029
0.0643078
0.0643127
0.0643176
0.0643224
0.0643272
0.064332
0.0643366
0.0643414
0.0643459
0.0643505
0.0643553
0.0643594
0.0643647
0.0630313
0.0630425
0.0630517
0.0630623
0.0630726
0.0630825
0.0630926
0.0631026
0.0631126
0.0631226
0.0631325
0.0631424
0.0631523
0.0631621
0.063172
0.0631818
0.0631916
0.0632014
0.0632111
0.0632209
0.0632306
0.0632403
0.06325
0.0632596
0.0632693
0.0632789
0.0632886
0.0632982
0.0633079
0.0633177
0.0633273
0.063337
0.0633465
0.0633553
0.0633644
0.0633737
0.0633827
0.0633915
0.0634003
0.0634092
0.063418
0.0634268
0.0634356
0.0634443
0.0634531
0.0634618
0.0634705
0.0634791
0.0634877
0.0634963
0.0635049
0.0635135
0.063522
0.0635305
0.063539
0.0635475
0.0635559
0.0635643
0.0635727
0.063581
0.0635894
0.0635977
0.0636059
0.0636142
0.0636224
0.0636306
0.0636388
0.0636469
0.0636551
0.0636632
0.0636712
0.0636793
0.0636873
0.0636953
0.0637032
0.0637111
0.063719
0.0637269
0.0637348
0.0637426
0.0637504
0.0637581
0.0637659
0.0637736
0.0637812
0.0637889
0.0637965
0.0638041
0.0638116
0.0638192
0.0638267
0.0638341
0.0638416
0.063849
0.0638564
0.0638637
0.063871
0.0638783
0.0638856
0.0638928
0.0639
0.0639072
0.0639143
0.0639214
0.0639285
0.0639356
0.0639426
0.0639496
0.0639565
0.0639634
0.0639703
0.0639772
0.063984
0.0639908
0.0639976
0.0640043
0.064011
0.0640177
0.0640243
0.0640309
0.0640375
0.064044
0.0640505
0.064057
0.0640634
0.0640698
0.0640762
0.0640825
0.0640888
0.0640951
0.0641014
0.0641076
0.0641137
0.0641199
0.064126
0.0641321
0.0641381
0.0641441
0.0641501
0.064156
0.0641619
0.0641678
0.0641736
0.0641794
0.0641852
0.0641909
0.0641966
0.0642022
0.0642078
0.0642134
0.064219
0.0642245
0.06423
0.0642354
0.0642408
0.0642462
0.0642515
0.0642568
0.0642621
0.0642673
0.0642725
0.0642777
0.0642828
0.0642879
0.0642929
0.0642979
0.0643029
0.0643078
0.0643127
0.0643176
0.0643224
0.0643272
0.064332
0.0643366
0.0643414
0.064346
0.0643505
0.0643553
0.0643594
0.0643647
0.0630412
0.0630515
0.0630626
0.0630725
0.0630825
0.0630927
0.0631027
0.0631126
0.0631226
0.0631325
0.0631424
0.0631523
0.0631622
0.063172
0.0631818
0.0631917
0.0632014
0.0632112
0.0632209
0.0632307
0.0632404
0.0632501
0.0632597
0.0632694
0.063279
0.0632887
0.0632983
0.0633079
0.0633177
0.0633273
0.0633369
0.0633463
0.0633553
0.0633643
0.0633736
0.0633826
0.0633914
0.0634003
0.0634092
0.063418
0.0634268
0.0634356
0.0634443
0.0634531
0.0634618
0.0634704
0.0634791
0.0634877
0.0634963
0.0635049
0.0635135
0.063522
0.0635305
0.063539
0.0635475
0.0635559
0.0635643
0.0635727
0.063581
0.0635894
0.0635977
0.0636059
0.0636142
0.0636224
0.0636306
0.0636388
0.0636469
0.0636551
0.0636632
0.0636712
0.0636793
0.0636873
0.0636953
0.0637032
0.0637111
0.063719
0.0637269
0.0637348
0.0637426
0.0637504
0.0637581
0.0637658
0.0637735
0.0637812
0.0637889
0.0637965
0.0638041
0.0638116
0.0638192
0.0638267
0.0638341
0.0638416
0.063849
0.0638564
0.0638637
0.063871
0.0638783
0.0638856
0.0638928
0.0639
0.0639072
0.0639143
0.0639214
0.0639285
0.0639356
0.0639426
0.0639496
0.0639565
0.0639634
0.0639703
0.0639772
0.063984
0.0639908
0.0639976
0.0640043
0.064011
0.0640177
0.0640243
0.0640309
0.0640375
0.064044
0.0640505
0.064057
0.0640634
0.0640698
0.0640762
0.0640825
0.0640888
0.0640951
0.0641014
0.0641076
0.0641137
0.0641199
0.064126
0.064132
0.0641381
0.0641441
0.0641501
0.064156
0.0641619
0.0641678
0.0641736
0.0641794
0.0641851
0.0641909
0.0641966
0.0642022
0.0642078
0.0642134
0.064219
0.0642245
0.06423
0.0642354
0.0642408
0.0642462
0.0642515
0.0642568
0.0642621
0.0642673
0.0642725
0.0642777
0.0642828
0.0642879
0.0642929
0.0642979
0.0643029
0.0643078
0.0643127
0.0643176
0.0643224
0.0643272
0.064332
0.0643366
0.0643414
0.064346
0.0643505
0.0643553
0.0643594
0.0643646
0.0630407
0.0630519
0.0630617
0.0630728
0.0630826
0.0630927
0.0631026
0.0631127
0.0631227
0.0631326
0.0631425
0.0631524
0.0631623
0.0631721
0.0631819
0.0631917
0.0632015
0.0632113
0.063221
0.0632307
0.0632404
0.0632501
0.0632598
0.0632695
0.0632791
0.0632887
0.0632984
0.063308
0.0633177
0.0633272
0.0633368
0.0633462
0.0633552
0.0633643
0.0633735
0.0633825
0.0633914
0.0634003
0.0634091
0.063418
0.0634268
0.0634356
0.0634443
0.0634531
0.0634618
0.0634704
0.0634791
0.0634877
0.0634963
0.0635049
0.0635135
0.063522
0.0635305
0.063539
0.0635475
0.0635559
0.0635643
0.0635727
0.063581
0.0635894
0.0635977
0.0636059
0.0636142
0.0636224
0.0636306
0.0636388
0.0636469
0.0636551
0.0636632
0.0636712
0.0636793
0.0636873
0.0636952
0.0637032
0.0637111
0.063719
0.0637269
0.0637347
0.0637426
0.0637504
0.0637581
0.0637658
0.0637735
0.0637812
0.0637889
0.0637965
0.0638041
0.0638116
0.0638192
0.0638267
0.0638341
0.0638416
0.063849
0.0638564
0.0638637
0.063871
0.0638783
0.0638856
0.0638928
0.0639
0.0639072
0.0639143
0.0639214
0.0639285
0.0639355
0.0639426
0.0639495
0.0639565
0.0639634
0.0639703
0.0639772
0.063984
0.0639908
0.0639976
0.0640043
0.064011
0.0640177
0.0640243
0.0640309
0.0640375
0.064044
0.0640505
0.064057
0.0640634
0.0640698
0.0640762
0.0640825
0.0640888
0.0640951
0.0641014
0.0641076
0.0641137
0.0641199
0.064126
0.064132
0.0641381
0.0641441
0.0641501
0.064156
0.0641619
0.0641678
0.0641736
0.0641794
0.0641851
0.0641909
0.0641966
0.0642022
0.0642078
0.0642134
0.064219
0.0642245
0.06423
0.0642354
0.0642408
0.0642462
0.0642515
0.0642568
0.0642621
0.0642673
0.0642725
0.0642777
0.0642828
0.0642879
0.0642929
0.0642979
0.0643029
0.0643078
0.0643127
0.0643176
0.0643224
0.0643272
0.064332
0.0643366
0.0643414
0.064346
0.0643505
0.0643553
0.0643594
0.0643646
0.0630516
0.0630628
0.063072
0.0630827
0.0630929
0.0631027
0.0631127
0.0631227
0.0631326
0.0631425
0.0631525
0.0631623
0.0631721
0.063182
0.0631918
0.0632016
0.0632113
0.0632211
0.0632308
0.0632405
0.0632502
0.0632599
0.0632695
0.0632791
0.0632888
0.0632984
0.063308
0.0633177
0.0633272
0.0633367
0.0633461
0.0633552
0.0633642
0.0633734
0.0633824
0.0633914
0.0634002
0.0634091
0.063418
0.0634268
0.0634356
0.0634443
0.0634531
0.0634618
0.0634704
0.0634791
0.0634877
0.0634963
0.0635049
0.0635135
0.063522
0.0635305
0.063539
0.0635475
0.0635559
0.0635643
0.0635727
0.063581
0.0635894
0.0635977
0.0636059
0.0636142
0.0636224
0.0636306
0.0636388
0.0636469
0.0636551
0.0636631
0.0636712
0.0636793
0.0636873
0.0636952
0.0637032
0.0637111
0.063719
0.0637269
0.0637347
0.0637426
0.0637503
0.0637581
0.0637658
0.0637735
0.0637812
0.0637889
0.0637965
0.0638041
0.0638116
0.0638191
0.0638266
0.0638341
0.0638416
0.063849
0.0638563
0.0638637
0.063871
0.0638783
0.0638856
0.0638928
0.0639
0.0639072
0.0639143
0.0639214
0.0639285
0.0639355
0.0639426
0.0639495
0.0639565
0.0639634
0.0639703
0.0639772
0.063984
0.0639908
0.0639975
0.0640043
0.064011
0.0640176
0.0640243
0.0640309
0.0640375
0.064044
0.0640505
0.064057
0.0640634
0.0640698
0.0640762
0.0640825
0.0640888
0.0640951
0.0641013
0.0641076
0.0641137
0.0641199
0.064126
0.064132
0.0641381
0.0641441
0.06415
0.064156
0.0641619
0.0641677
0.0641736
0.0641794
0.0641851
0.0641909
0.0641966
0.0642022
0.0642078
0.0642134
0.064219
0.0642245
0.06423
0.0642354
0.0642408
0.0642462
0.0642515
0.0642568
0.0642621
0.0642673
0.0642725
0.0642777
0.0642828
0.0642879
0.0642929
0.0642979
0.0643029
0.0643078
0.0643127
0.0643176
0.0643224
0.0643272
0.064332
0.0643366
0.0643413
0.064346
0.0643505
0.0643553
0.0643594
0.0643646
0.0630618
0.0630731
0.0630824
0.0630926
0.0631027
0.0631129
0.0631229
0.0631327
0.0631426
0.0631526
0.0631624
0.0631722
0.063182
0.0631919
0.0632016
0.0632114
0.0632211
0.0632309
0.0632406
0.0632503
0.0632599
0.0632696
0.0632792
0.0632888
0.0632985
0.063308
0.0633177
0.0633272
0.0633366
0.063346
0.0633551
0.0633642
0.0633733
0.0633824
0.0633913
0.0634002
0.0634091
0.063418
0.0634268
0.0634356
0.0634443
0.0634531
0.0634618
0.0634704
0.0634791
0.0634877
0.0634963
0.0635049
0.0635135
0.063522
0.0635305
0.063539
0.0635475
0.0635559
0.0635643
0.0635727
0.063581
0.0635894
0.0635977
0.0636059
0.0636142
0.0636224
0.0636306
0.0636388
0.0636469
0.0636551
0.0636631
0.0636712
0.0636792
0.0636873
0.0636952
0.0637032
0.0637111
0.063719
0.0637269
0.0637347
0.0637426
0.0637503
0.0637581
0.0637658
0.0637735
0.0637812
0.0637889
0.0637965
0.0638041
0.0638116
0.0638191
0.0638266
0.0638341
0.0638416
0.063849
0.0638563
0.0638637
0.063871
0.0638783
0.0638856
0.0638928
0.0639
0.0639072
0.0639143
0.0639214
0.0639285
0.0639355
0.0639426
0.0639495
0.0639565
0.0639634
0.0639703
0.0639772
0.063984
0.0639908
0.0639975
0.0640043
0.064011
0.0640176
0.0640243
0.0640309
0.0640374
0.064044
0.0640505
0.064057
0.0640634
0.0640698
0.0640762
0.0640825
0.0640888
0.0640951
0.0641013
0.0641075
0.0641137
0.0641199
0.064126
0.064132
0.0641381
0.0641441
0.06415
0.064156
0.0641619
0.0641677
0.0641736
0.0641794
0.0641851
0.0641909
0.0641965
0.0642022
0.0642078
0.0642134
0.064219
0.0642245
0.06423
0.0642354
0.0642408
0.0642462
0.0642515
0.0642568
0.0642621
0.0642673
0.0642725
0.0642776
0.0642828
0.0642878
0.0642929
0.0642979
0.0643029
0.0643078
0.0643127
0.0643176
0.0643224
0.0643272
0.064332
0.0643366
0.0643413
0.064346
0.0643505
0.0643553
0.0643594
0.0643646
0.063072
0.0630824
0.0630929
0.0631026
0.0631127
0.0631228
0.0631327
0.0631427
0.0631526
0.0631624
0.0631723
0.0631821
0.0631919
0.0632017
0.0632115
0.0632212
0.0632309
0.0632406
0.0632503
0.06326
0.0632696
0.0632793
0.0632889
0.0632985
0.0633081
0.0633177
0.0633271
0.0633366
0.0633459
0.0633551
0.0633642
0.0633733
0.0633823
0.0633913
0.0634002
0.0634091
0.0634179
0.0634268
0.0634355
0.0634443
0.063453
0.0634618
0.0634704
0.0634791
0.0634877
0.0634963
0.0635049
0.0635135
0.063522
0.0635305
0.063539
0.0635475
0.0635559
0.0635643
0.0635727
0.063581
0.0635894
0.0635977
0.0636059
0.0636142
0.0636224
0.0636306
0.0636388
0.0636469
0.063655
0.0636631
0.0636712
0.0636792
0.0636873
0.0636952
0.0637032
0.0637111
0.063719
0.0637269
0.0637347
0.0637426
0.0637503
0.0637581
0.0637658
0.0637735
0.0637812
0.0637889
0.0637965
0.0638041
0.0638116
0.0638191
0.0638266
0.0638341
0.0638415
0.063849
0.0638563
0.0638637
0.063871
0.0638783
0.0638856
0.0638928
0.0639
0.0639072
0.0639143
0.0639214
0.0639285
0.0639355
0.0639425
0.0639495
0.0639565
0.0639634
0.0639703
0.0639772
0.063984
0.0639908
0.0639975
0.0640043
0.064011
0.0640176
0.0640243
0.0640309
0.0640374
0.064044
0.0640505
0.064057
0.0640634
0.0640698
0.0640762
0.0640825
0.0640888
0.0640951
0.0641013
0.0641075
0.0641137
0.0641199
0.064126
0.064132
0.0641381
0.0641441
0.06415
0.064156
0.0641619
0.0641677
0.0641736
0.0641794
0.0641851
0.0641909
0.0641965
0.0642022
0.0642078
0.0642134
0.064219
0.0642245
0.0642299
0.0642354
0.0642408
0.0642462
0.0642515
0.0642568
0.0642621
0.0642673
0.0642725
0.0642776
0.0642828
0.0642878
0.0642929
0.0642979
0.0643029
0.0643078
0.0643127
0.0643176
0.0643224
0.0643272
0.064332
0.0643366
0.0643413
0.064346
0.0643505
0.0643553
0.0643594
0.0643646
0.0630713
0.0630831
0.0630919
0.0631025
0.063113
0.0631229
0.0631327
0.0631427
0.0631527
0.0631625
0.0631723
0.0631822
0.063192
0.0632018
0.0632115
0.0632213
0.063231
0.0632407
0.0632504
0.0632601
0.0632697
0.0632793
0.0632889
0.0632985
0.0633081
0.0633177
0.0633271
0.0633365
0.0633459
0.063355
0.0633641
0.0633732
0.0633823
0.0633913
0.0634002
0.0634091
0.0634179
0.0634267
0.0634355
0.0634443
0.063453
0.0634618
0.0634704
0.0634791
0.0634877
0.0634963
0.0635049
0.0635135
0.063522
0.0635305
0.063539
0.0635475
0.0635559
0.0635643
0.0635727
0.063581
0.0635894
0.0635977
0.0636059
0.0636142
0.0636224
0.0636306
0.0636388
0.0636469
0.063655
0.0636631
0.0636712
0.0636792
0.0636873
0.0636952
0.0637032
0.0637111
0.063719
0.0637269
0.0637347
0.0637425
0.0637503
0.0637581
0.0637658
0.0637735
0.0637812
0.0637888
0.0637965
0.063804
0.0638116
0.0638191
0.0638266
0.0638341
0.0638415
0.063849
0.0638563
0.0638637
0.063871
0.0638783
0.0638856
0.0638928
0.0639
0.0639072
0.0639143
0.0639214
0.0639285
0.0639355
0.0639425
0.0639495
0.0639565
0.0639634
0.0639703
0.0639772
0.063984
0.0639908
0.0639975
0.0640043
0.064011
0.0640176
0.0640243
0.0640309
0.0640374
0.064044
0.0640505
0.064057
0.0640634
0.0640698
0.0640762
0.0640825
0.0640888
0.0640951
0.0641013
0.0641075
0.0641137
0.0641198
0.064126
0.064132
0.0641381
0.0641441
0.06415
0.064156
0.0641619
0.0641677
0.0641736
0.0641794
0.0641851
0.0641908
0.0641965
0.0642022
0.0642078
0.0642134
0.064219
0.0642245
0.0642299
0.0642354
0.0642408
0.0642462
0.0642515
0.0642568
0.0642621
0.0642673
0.0642725
0.0642776
0.0642828
0.0642878
0.0642929
0.0642979
0.0643029
0.0643078
0.0643127
0.0643176
0.0643224
0.0643272
0.0643319
0.0643366
0.0643413
0.064346
0.0643505
0.0643553
0.0643594
0.0643646
0.0630823
0.0630933
0.0631022
0.0631127
0.0631229
0.0631327
0.0631427
0.0631527
0.0631625
0.0631724
0.0631822
0.063192
0.0632018
0.0632116
0.0632213
0.0632311
0.0632408
0.0632505
0.0632601
0.0632698
0.0632794
0.063289
0.0632986
0.0633081
0.0633177
0.0633271
0.0633365
0.0633458
0.063355
0.0633641
0.0633732
0.0633823
0.0633912
0.0634002
0.0634091
0.0634179
0.0634267
0.0634355
0.0634443
0.063453
0.0634618
0.0634704
0.0634791
0.0634877
0.0634963
0.0635049
0.0635135
0.063522
0.0635305
0.063539
0.0635475
0.0635559
0.0635643
0.0635727
0.063581
0.0635894
0.0635977
0.0636059
0.0636142
0.0636224
0.0636306
0.0636388
0.0636469
0.063655
0.0636631
0.0636712
0.0636792
0.0636872
0.0636952
0.0637032
0.0637111
0.063719
0.0637269
0.0637347
0.0637425
0.0637503
0.0637581
0.0637658
0.0637735
0.0637812
0.0637888
0.0637965
0.063804
0.0638116
0.0638191
0.0638266
0.0638341
0.0638415
0.063849
0.0638563
0.0638637
0.063871
0.0638783
0.0638856
0.0638928
0.0639
0.0639072
0.0639143
0.0639214
0.0639285
0.0639355
0.0639425
0.0639495
0.0639565
0.0639634
0.0639703
0.0639771
0.063984
0.0639908
0.0639975
0.0640043
0.064011
0.0640176
0.0640243
0.0640309
0.0640374
0.064044
0.0640505
0.0640569
0.0640634
0.0640698
0.0640762
0.0640825
0.0640888
0.0640951
0.0641013
0.0641075
0.0641137
0.0641198
0.0641259
0.064132
0.0641381
0.0641441
0.06415
0.064156
0.0641619
0.0641677
0.0641736
0.0641794
0.0641851
0.0641908
0.0641965
0.0642022
0.0642078
0.0642134
0.0642189
0.0642245
0.0642299
0.0642354
0.0642408
0.0642462
0.0642515
0.0642568
0.0642621
0.0642673
0.0642725
0.0642776
0.0642828
0.0642878
0.0642929
0.0642979
0.0643029
0.0643078
0.0643127
0.0643176
0.0643224
0.0643272
0.0643319
0.0643366
0.0643413
0.064346
0.0643505
0.0643553
0.0643594
0.0643646
0.063092
0.063102
0.063113
0.0631229
0.0631327
0.0631429
0.0631528
0.0631626
0.0631725
0.0631823
0.0631921
0.0632019
0.0632117
0.0632214
0.0632311
0.0632408
0.0632505
0.0632602
0.0632698
0.0632794
0.063289
0.0632986
0.0633082
0.0633177
0.0633271
0.0633365
0.0633458
0.063355
0.0633641
0.0633732
0.0633822
0.0633912
0.0634001
0.063409
0.0634179
0.0634267
0.0634355
0.0634443
0.063453
0.0634618
0.0634704
0.0634791
0.0634877
0.0634963
0.0635049
0.0635135
0.063522
0.0635305
0.063539
0.0635475
0.0635559
0.0635643
0.0635727
0.063581
0.0635894
0.0635977
0.0636059
0.0636142
0.0636224
0.0636306
0.0636388
0.0636469
0.063655
0.0636631
0.0636712
0.0636792
0.0636872
0.0636952
0.0637032
0.0637111
0.063719
0.0637269
0.0637347
0.0637425
0.0637503
0.0637581
0.0637658
0.0637735
0.0637812
0.0637888
0.0637965
0.063804
0.0638116
0.0638191
0.0638266
0.0638341
0.0638415
0.0638489
0.0638563
0.0638637
0.063871
0.0638783
0.0638855
0.0638928
0.0639
0.0639071
0.0639143
0.0639214
0.0639285
0.0639355
0.0639425
0.0639495
0.0639565
0.0639634
0.0639703
0.0639771
0.063984
0.0639908
0.0639975
0.0640043
0.064011
0.0640176
0.0640243
0.0640309
0.0640374
0.064044
0.0640505
0.0640569
0.0640634
0.0640698
0.0640762
0.0640825
0.0640888
0.0640951
0.0641013
0.0641075
0.0641137
0.0641198
0.0641259
0.064132
0.0641381
0.0641441
0.06415
0.064156
0.0641619
0.0641677
0.0641736
0.0641793
0.0641851
0.0641908
0.0641965
0.0642022
0.0642078
0.0642134
0.0642189
0.0642245
0.0642299
0.0642354
0.0642408
0.0642462
0.0642515
0.0642568
0.0642621
0.0642673
0.0642725
0.0642776
0.0642828
0.0642878
0.0642929
0.0642979
0.0643029
0.0643078
0.0643127
0.0643176
0.0643224
0.0643272
0.0643319
0.0643366
0.0643413
0.064346
0.0643505
0.0643552
0.0643594
0.0643646
0.0630915
0.0631026
0.0631121
0.063123
0.0631327
0.0631428
0.0631528
0.0631626
0.0631725
0.0631823
0.0631921
0.0632019
0.0632117
0.0632214
0.0632312
0.0632409
0.0632506
0.0632602
0.0632699
0.0632795
0.0632891
0.0632987
0.0633082
0.0633177
0.0633271
0.0633365
0.0633458
0.0633549
0.0633641
0.0633732
0.0633822
0.0633912
0.0634001
0.063409
0.0634179
0.0634267
0.0634355
0.0634443
0.063453
0.0634617
0.0634704
0.0634791
0.0634877
0.0634963
0.0635049
0.0635135
0.063522
0.0635305
0.063539
0.0635475
0.0635559
0.0635643
0.0635727
0.063581
0.0635893
0.0635977
0.0636059
0.0636142
0.0636224
0.0636306
0.0636388
0.0636469
0.063655
0.0636631
0.0636712
0.0636792
0.0636872
0.0636952
0.0637032
0.0637111
0.063719
0.0637269
0.0637347
0.0637425
0.0637503
0.0637581
0.0637658
0.0637735
0.0637812
0.0637888
0.0637964
0.063804
0.0638116
0.0638191
0.0638266
0.0638341
0.0638415
0.0638489
0.0638563
0.0638637
0.063871
0.0638783
0.0638855
0.0638928
0.0639
0.0639071
0.0639143
0.0639214
0.0639285
0.0639355
0.0639425
0.0639495
0.0639565
0.0639634
0.0639703
0.0639771
0.063984
0.0639908
0.0639975
0.0640043
0.064011
0.0640176
0.0640243
0.0640309
0.0640374
0.064044
0.0640505
0.0640569
0.0640634
0.0640698
0.0640762
0.0640825
0.0640888
0.0640951
0.0641013
0.0641075
0.0641137
0.0641198
0.0641259
0.064132
0.064138
0.064144
0.06415
0.064156
0.0641619
0.0641677
0.0641735
0.0641793
0.0641851
0.0641908
0.0641965
0.0642022
0.0642078
0.0642134
0.0642189
0.0642245
0.0642299
0.0642354
0.0642408
0.0642462
0.0642515
0.0642568
0.0642621
0.0642673
0.0642725
0.0642776
0.0642827
0.0642878
0.0642929
0.0642979
0.0643029
0.0643078
0.0643127
0.0643175
0.0643224
0.0643271
0.0643319
0.0643366
0.0643413
0.064346
0.0643505
0.0643552
0.0643594
0.0643646
0.063102
0.0631132
0.0631223
0.0631327
0.063143
0.0631529
0.0631627
0.0631726
0.0631824
0.0631922
0.063202
0.0632118
0.0632215
0.0632312
0.063241
0.0632506
0.0632603
0.0632699
0.0632796
0.0632892
0.0632987
0.0633082
0.0633177
0.0633271
0.0633365
0.0633457
0.0633549
0.0633641
0.0633731
0.0633822
0.0633912
0.0634001
0.063409
0.0634179
0.0634267
0.0634355
0.0634443
0.063453
0.0634617
0.0634704
0.0634791
0.0634877
0.0634963
0.0635049
0.0635135
0.063522
0.0635305
0.063539
0.0635474
0.0635559
0.0635643
0.0635727
0.063581
0.0635893
0.0635976
0.0636059
0.0636142
0.0636224
0.0636306
0.0636388
0.0636469
0.063655
0.0636631
0.0636712
0.0636792
0.0636872
0.0636952
0.0637032
0.0637111
0.063719
0.0637269
0.0637347
0.0637425
0.0637503
0.0637581
0.0637658
0.0637735
0.0637812
0.0637888
0.0637964
0.063804
0.0638116
0.0638191
0.0638266
0.0638341
0.0638415
0.0638489