/*--------------------------------*- C++ -*----------------------------------*\
| =========                 |                                                 |
| \\      /  F ield         | OpenFOAM: The Open Source CFD Toolbox           |
|  \\    /   O peration     | Version:  2512                                  |
|   \\  /    A nd           | Website:  www.openfoam.com                      |
|    \\/     M anipulation  |                                                 |
\*---------------------------------------------------------------------------*/
FoamFile
{
    version     2.0;
    format      ascii;
    arch        "LSB;label=32;scalar=64";
    class       volScalarField;
    location    "0.1";
    object      Uy;
}
// * * * * * * * * * * * * * * * * * * * * * * * * * * * * * * * * * * * * * //

dimensions      [0 1 -1 0 0 0 0];

internalField   nonuniform List<scalar> 
8334
(
-4.67065e-06
-1.96722e-06
-2.76226e-06
-1.99828e-06
-1.71582e-06
-1.34607e-06
-1.14228e-06
-8.83072e-07
-5.95881e-07
-4.0834e-07
-2.71908e-07
-1.12977e-07
4.327e-08
1.91874e-07
3.3767e-07
4.76753e-07
6.17138e-07
7.60591e-07
9.05924e-07
1.05604e-06
1.20124e-06
1.36934e-06
1.51987e-06
1.70598e-06
1.87887e-06
2.06873e-06
2.30943e-06
2.4184e-06
2.6694e-06
2.6705e-06
3.00814e-06
3.02677e-06
3.6527e-06
3.83045e-06
4.00575e-06
4.28832e-06
1.67109e-06
1.33902e-06
6.97556e-07
2.42644e-07
2.30004e-07
2.4996e-07
2.15355e-07
1.85986e-07
1.72266e-07
1.65122e-07
1.62204e-07
1.62706e-07
1.65768e-07
1.71084e-07
1.77849e-07
1.8469e-07
1.91494e-07
1.97807e-07
2.03381e-07
2.08244e-07
2.12463e-07
2.1595e-07
2.18675e-07
2.20728e-07
2.22015e-07
2.22401e-07
2.21907e-07
2.20526e-07
2.1833e-07
2.15392e-07
2.11881e-07
2.07811e-07
2.0317e-07
1.98003e-07
1.92277e-07
1.86119e-07
1.79554e-07
1.72645e-07
1.6538e-07
1.57833e-07
1.50077e-07
1.42102e-07
1.33868e-07
1.25192e-07
1.16336e-07
1.07292e-07
9.81771e-08
8.9072e-08
7.95644e-08
6.96599e-08
5.90455e-08
4.79597e-08
3.65066e-08
2.49775e-08
1.34632e-08
1.96672e-09
-9.402e-09
-2.06133e-08
-3.16115e-08
-4.24149e-08
-5.32259e-08
-6.42508e-08
-7.58193e-08
-8.78359e-08
-1.00314e-07
-1.13151e-07
-1.26214e-07
-1.39031e-07
-1.51592e-07
-1.64042e-07
-1.76321e-07
-1.8854e-07
-2.00403e-07
-2.11988e-07
-2.24425e-07
-2.36937e-07
-2.50057e-07
-2.63878e-07
-2.77603e-07
-2.91407e-07
-3.04927e-07
-3.17952e-07
-3.30443e-07
-3.42873e-07
-3.55805e-07
-3.68723e-07
-3.82239e-07
-3.96117e-07
-4.09841e-07
-4.23484e-07
-4.37135e-07
-4.50242e-07
-4.63691e-07
-4.77015e-07
-4.90081e-07
-5.03363e-07
-5.17213e-07
-5.30757e-07
-5.43708e-07
-5.56606e-07
-5.70816e-07
-5.85013e-07
-5.98883e-07
-6.12128e-07
-6.25143e-07
-6.37923e-07
-6.51498e-07
-6.65239e-07
-6.78652e-07
-6.92004e-07
-7.04706e-07
-7.17163e-07
-7.31515e-07
-7.45825e-07
-7.59372e-07
-7.72163e-07
-7.83825e-07
-7.98192e-07
-8.12391e-07
-8.25678e-07
-8.37932e-07
-8.51171e-07
-8.66322e-07
-8.83017e-07
-9.00414e-07
-9.17314e-07
-9.3397e-07
-9.51792e-07
-9.71255e-07
-9.9071e-07
-1.01072e-06
-1.03175e-06
-1.05351e-06
-1.07486e-06
-1.09598e-06
-1.11597e-06
-1.13535e-06
-1.15175e-06
-1.17131e-06
-1.17864e-06
-1.20995e-06
-1.18054e-06
-1.27071e-06
-1.11611e-06
-1.3928e-06
-9.3018e-07
-1.39923e-06
-6.00989e-07
-3.18529e-08
-2.57802e-06
2.63273e-08
-3.71e-07
-2.28705e-08
5.91205e-07
7.71362e-07
8.813e-07
1.13186e-06
1.32382e-06
1.50456e-06
1.69003e-06
1.84866e-06
2.00653e-06
2.16708e-06
2.31436e-06
2.45958e-06
2.60695e-06
2.75161e-06
2.90027e-06
3.04133e-06
3.196e-06
3.34297e-06
3.50221e-06
3.65931e-06
3.8137e-06
4.01697e-06
4.13668e-06
4.4519e-06
4.47248e-06
4.90407e-06
4.81417e-06
5.48302e-06
5.13174e-06
6.03601e-06
5.01528e-06
3.03716e-06
3.18564e-06
2.86335e-06
2.33485e-06
2.21628e-06
2.24202e-06
2.21934e-06
2.185e-06
2.16755e-06
2.16018e-06
2.15727e-06
2.15736e-06
2.16016e-06
2.16424e-06
2.16934e-06
2.17495e-06
2.18067e-06
2.18629e-06
2.19149e-06
2.19607e-06
2.19995e-06
2.20304e-06
2.20522e-06
2.20643e-06
2.20674e-06
2.20616e-06
2.20477e-06
2.20263e-06
2.19968e-06
2.19594e-06
2.19139e-06
2.18621e-06
2.18053e-06
2.1743e-06
2.16759e-06
2.16039e-06
2.15271e-06
2.14455e-06
2.13595e-06
2.12689e-06
2.11738e-06
2.10765e-06
2.09764e-06
2.08768e-06
2.07767e-06
2.06752e-06
2.05714e-06
2.04643e-06
2.03503e-06
2.02297e-06
2.01071e-06
1.99829e-06
1.98597e-06
1.97347e-06
1.96066e-06
1.9476e-06
1.93449e-06
1.92141e-06
1.9082e-06
1.89494e-06
1.88191e-06
1.86924e-06
1.85605e-06
1.84237e-06
1.82861e-06
1.8148e-06
1.80081e-06
1.7866e-06
1.77224e-06
1.75801e-06
1.74385e-06
1.72983e-06
1.71573e-06
1.70132e-06
1.68644e-06
1.67145e-06
1.6567e-06
1.64232e-06
1.62783e-06
1.61337e-06
1.5988e-06
1.58422e-06
1.56958e-06
1.55469e-06
1.53892e-06
1.523e-06
1.50747e-06
1.49203e-06
1.47676e-06
1.46189e-06
1.44746e-06
1.43296e-06
1.41745e-06
1.4013e-06
1.38492e-06
1.36888e-06
1.35343e-06
1.33808e-06
1.32274e-06
1.3072e-06
1.2909e-06
1.27474e-06
1.25866e-06
1.24254e-06
1.2267e-06
1.21163e-06
1.19587e-06
1.17975e-06
1.16355e-06
1.14752e-06
1.13169e-06
1.1164e-06
1.09982e-06
1.08362e-06
1.06757e-06
1.05199e-06
1.03722e-06
1.02091e-06
1.00471e-06
9.89111e-07
9.74823e-07
9.58791e-07
9.40376e-07
9.22319e-07
9.03702e-07
8.84336e-07
8.64715e-07
8.45433e-07
8.2592e-07
8.05742e-07
7.83605e-07
7.5949e-07
7.39022e-07
7.20351e-07
7.02788e-07
6.85957e-07
6.69278e-07
6.54481e-07
6.38284e-07
6.30716e-07
6.09866e-07
6.24787e-07
5.76658e-07
6.51597e-07
5.36203e-07
6.62194e-07
6.06379e-07
5.69553e-07
-2.5457e-06
-3.41862e-06
-9.49294e-07
-1.30966e-06
-1.00012e-06
-9.21773e-07
-6.72125e-07
-3.05406e-07
-1.51615e-07
-1.13204e-08
1.78715e-07
3.37834e-07
4.84783e-07
6.31014e-07
7.66437e-07
8.99773e-07
1.04037e-06
1.17579e-06
1.31027e-06
1.44555e-06
1.58785e-06
1.72081e-06
1.86796e-06
2.01372e-06
2.14162e-06
2.32603e-06
2.41713e-06
2.6932e-06
2.69806e-06
3.10581e-06
3.02779e-06
3.726e-06
3.47206e-06
4.17188e-06
3.55754e-06
1.87043e-06
1.88555e-06
1.61141e-06
1.05489e-06
8.91056e-07
9.12177e-07
8.90538e-07
8.50141e-07
8.2518e-07
8.11604e-07
8.0327e-07
7.99807e-07
8.00058e-07
8.03156e-07
8.08035e-07
8.13462e-07
8.1909e-07
8.24579e-07
8.29579e-07
8.34016e-07
8.37924e-07
8.41209e-07
8.43801e-07
8.4567e-07
8.46717e-07
8.47142e-07
8.46887e-07
8.45891e-07
8.44234e-07
8.42115e-07
8.3952e-07
8.36333e-07
8.3248e-07
8.28044e-07
8.23098e-07
8.17694e-07
8.11853e-07
8.05608e-07
7.98773e-07
7.91561e-07
7.83946e-07
7.75657e-07
7.67157e-07
7.58251e-07
7.48855e-07
7.39054e-07
7.28901e-07
7.18359e-07
7.08083e-07
6.98263e-07
6.88993e-07
6.79912e-07
6.70175e-07
6.60152e-07
6.50005e-07
6.39641e-07
6.28914e-07
6.17944e-07
6.06749e-07
5.95194e-07
5.8335e-07
5.70816e-07
5.58477e-07
5.46419e-07
5.34638e-07
5.23032e-07
5.11723e-07
5.00556e-07
4.89184e-07
4.77186e-07
4.64816e-07
4.52045e-07
4.39051e-07
4.2601e-07
4.1345e-07
4.00853e-07
3.88214e-07
3.75505e-07
3.62983e-07
3.50525e-07
3.37792e-07
3.2477e-07
3.11459e-07
2.9785e-07
2.84876e-07
2.7169e-07
2.58556e-07
2.45835e-07
2.32932e-07
2.1968e-07
2.05925e-07
1.91942e-07
1.78771e-07
1.65897e-07
1.52979e-07
1.39459e-07
1.25955e-07
1.12307e-07
9.83659e-08
8.42606e-08
7.08498e-08
5.70787e-08
4.32467e-08
2.96788e-08
1.63565e-08
1.9986e-09
-1.18999e-08
-2.56678e-08
-3.96318e-08
-5.34771e-08
-6.76814e-08
-8.21566e-08
-9.57546e-08
-1.09905e-07
-1.24119e-07
-1.38693e-07
-1.54091e-07
-1.6775e-07
-1.8131e-07
-1.94978e-07
-2.09197e-07
-2.23215e-07
-2.36476e-07
-2.4996e-07
-2.6295e-07
-2.76102e-07
-2.89693e-07
-3.03208e-07
-3.1528e-07
-3.27333e-07
-3.39579e-07
-3.52549e-07
-3.62805e-07
-3.71874e-07
-3.80482e-07
-3.88389e-07
-3.95926e-07
-4.02534e-07
-4.09817e-07
-4.13892e-07
-4.22467e-07
-4.19382e-07
-4.34341e-07
-4.21488e-07
-4.21459e-07
-4.28733e-07
-2.69031e-07
-4.54112e-07
-8.69847e-07
1.42482e-07
-5.81509e-07
3.50277e-08
1.66832e-07
4.489e-07
7.57532e-07
9.39588e-07
1.12892e-06
1.29612e-06
1.427e-06
1.58141e-06
1.73894e-06
1.87068e-06
2.00764e-06
2.1479e-06
2.28657e-06
2.42497e-06
2.56074e-06
2.70438e-06
2.84627e-06
2.99457e-06
3.14842e-06
3.28986e-06
3.48318e-06
3.60221e-06
3.87035e-06
3.91695e-06
4.2903e-06
4.20278e-06
4.75466e-06
4.45386e-06
4.81884e-06
4.26456e-06
2.93505e-06
2.90286e-06
2.80021e-06
2.34403e-06
2.13492e-06
2.13163e-06
2.11835e-06
2.08414e-06
2.06238e-06
2.05154e-06
2.04653e-06
2.04482e-06
2.04593e-06
2.04889e-06
2.05294e-06
2.05776e-06
2.06287e-06
2.06792e-06
2.07268e-06
2.07691e-06
2.08052e-06
2.08348e-06
2.08573e-06
2.08721e-06
2.08791e-06
2.08762e-06
2.08646e-06
2.08456e-06
2.08187e-06
2.07834e-06
2.07405e-06
2.06921e-06
2.0642e-06
2.05872e-06
2.05275e-06
2.0464e-06
2.03962e-06
2.03251e-06
2.02521e-06
2.01749e-06
2.00949e-06
2.00144e-06
1.99292e-06
1.98358e-06
1.97458e-06
1.96563e-06
1.95651e-06
1.94736e-06
1.93792e-06
1.92794e-06
1.9171e-06
1.90585e-06
1.89447e-06
1.8828e-06
1.87083e-06
1.8586e-06
1.84676e-06
1.8353e-06
1.82397e-06
1.81286e-06
1.80151e-06
1.7899e-06
1.77797e-06
1.7659e-06
1.75363e-06
1.74137e-06
1.72836e-06
1.71513e-06
1.702e-06
1.68916e-06
1.67657e-06
1.66407e-06
1.6516e-06
1.63914e-06
1.62666e-06
1.61398e-06
1.6009e-06
1.58724e-06
1.57332e-06
1.55916e-06
1.5451e-06
1.53161e-06
1.51832e-06
1.50522e-06
1.49201e-06
1.47895e-06
1.46522e-06
1.45058e-06
1.43614e-06
1.42176e-06
1.40724e-06
1.39274e-06
1.37837e-06
1.36426e-06
1.35028e-06
1.33694e-06
1.32245e-06
1.30758e-06
1.29267e-06
1.27777e-06
1.26222e-06
1.24702e-06
1.23231e-06
1.21774e-06
1.20276e-06
1.18763e-06
1.17279e-06
1.15843e-06
1.14402e-06
1.12911e-06
1.11374e-06
1.09773e-06
1.08229e-06
1.06718e-06
1.05204e-06
1.0367e-06
1.02156e-06
1.00672e-06
9.91869e-07
9.76644e-07
9.60514e-07
9.44627e-07
9.29291e-07
9.13974e-07
8.98673e-07
8.83572e-07
8.68603e-07
8.53728e-07
8.38131e-07
8.22291e-07
8.06998e-07
7.93251e-07
7.78871e-07
7.64367e-07
7.49787e-07
7.35751e-07
7.2255e-07
7.10765e-07
6.98856e-07
6.88374e-07
6.77358e-07
6.70246e-07
6.67492e-07
6.51267e-07
6.89121e-07
5.86459e-07
7.62243e-07
4.63156e-07
-2.99186e-06
3.91139e-07
-5.51728e-07
-8.29978e-07
-3.55307e-07
4.68434e-08
1.14559e-07
3.18166e-07
5.55887e-07
7.07014e-07
8.63465e-07
1.01822e-06
1.15312e-06
1.29409e-06
1.44366e-06
1.5848e-06
1.72258e-06
1.86247e-06
2.01116e-06
2.15524e-06
2.29768e-06
2.4505e-06
2.59129e-06
2.77564e-06
2.88594e-06
3.12363e-06
3.16999e-06
3.5108e-06
3.454e-06
3.94769e-06
3.74437e-06
4.00647e-06
3.61663e-06
2.52371e-06
2.41052e-06
2.34758e-06
1.92144e-06
1.67068e-06
1.64416e-06
1.62864e-06
1.59083e-06
1.56305e-06
1.5486e-06
1.53959e-06
1.53475e-06
1.53316e-06
1.53485e-06
1.53837e-06
1.54278e-06
1.54765e-06
1.55256e-06
1.55715e-06
1.5613e-06
1.56493e-06
1.56785e-06
1.57e-06
1.57144e-06
1.57237e-06
1.57271e-06
1.57248e-06
1.57153e-06
1.56995e-06
1.56783e-06
1.56523e-06
1.56197e-06
1.55783e-06
1.55314e-06
1.54801e-06
1.54249e-06
1.53661e-06
1.53028e-06
1.52303e-06
1.51549e-06
1.50763e-06
1.49981e-06
1.49183e-06
1.48394e-06
1.47531e-06
1.46618e-06
1.45676e-06
1.44646e-06
1.43594e-06
1.42548e-06
1.41465e-06
1.40359e-06
1.39331e-06
1.38328e-06
1.37331e-06
1.36309e-06
1.35236e-06
1.34132e-06
1.33002e-06
1.3186e-06
1.30758e-06
1.29728e-06
1.28666e-06
1.27583e-06
1.26443e-06
1.25229e-06
1.24021e-06
1.22787e-06
1.21502e-06
1.20256e-06
1.19025e-06
1.1781e-06
1.16601e-06
1.15384e-06
1.14146e-06
1.12897e-06
1.11682e-06
1.10532e-06
1.09379e-06
1.08205e-06
1.06957e-06
1.0564e-06
1.04313e-06
1.0304e-06
1.01772e-06
1.0046e-06
9.91713e-07
9.79342e-07
9.66935e-07
9.5473e-07
9.43234e-07
9.31522e-07
9.19232e-07
9.06287e-07
8.9316e-07
8.79649e-07
8.66835e-07
8.54303e-07
8.41953e-07
8.2962e-07
8.17192e-07
8.04849e-07
7.92375e-07
7.7937e-07
7.6591e-07
7.53238e-07
7.40941e-07
7.2859e-07
7.15748e-07
7.02854e-07
6.90116e-07
6.77572e-07
6.64285e-07
6.50705e-07
6.37387e-07
6.24357e-07
6.11033e-07
5.97773e-07
5.84504e-07
5.71754e-07
5.58815e-07
5.4567e-07
5.32474e-07
5.19503e-07
5.06127e-07
4.9267e-07
4.79235e-07
4.6632e-07
4.53596e-07
4.413e-07
4.29549e-07
4.1786e-07
4.05717e-07
3.93796e-07
3.81997e-07
3.70689e-07
3.59659e-07
3.4876e-07
3.39537e-07
3.30871e-07
3.26841e-07
3.14781e-07
3.26759e-07
2.85544e-07
3.66602e-07
2.36595e-07
4.61004e-07
2.22211e-07
2.83198e-07
-1.49561e-06
4.10211e-07
-1.8186e-07
-3.88278e-08
4.40518e-07
6.54906e-07
8.76061e-07
1.0186e-06
1.13572e-06
1.31711e-06
1.48041e-06
1.60433e-06
1.74315e-06
1.89144e-06
2.02853e-06
2.16513e-06
2.30555e-06
2.44396e-06
2.58206e-06
2.73067e-06
2.88627e-06
3.0243e-06
3.19687e-06
3.32001e-06
3.55287e-06
3.62386e-06
3.92788e-06
3.90583e-06
4.28317e-06
4.12719e-06
4.22164e-06
3.91103e-06
3.02145e-06
2.83958e-06
2.81874e-06
2.49807e-06
2.26635e-06
2.22243e-06
2.20856e-06
2.17578e-06
2.14942e-06
2.13463e-06
2.12555e-06
2.12155e-06
2.12136e-06
2.12374e-06
2.12759e-06
2.13266e-06
2.1381e-06
2.14339e-06
2.14838e-06
2.15283e-06
2.15671e-06
2.16004e-06
2.1628e-06
2.16481e-06
2.16587e-06
2.16614e-06
2.16574e-06
2.1647e-06
2.16307e-06
2.1609e-06
2.1583e-06
2.15502e-06
2.15056e-06
2.1454e-06
2.13965e-06
2.1333e-06
2.12659e-06
2.1196e-06
2.11262e-06
2.10525e-06
2.09755e-06
2.08925e-06
2.08042e-06
2.07115e-06
2.0617e-06
2.05191e-06
2.042e-06
2.03256e-06
2.02325e-06
2.01369e-06
2.0046e-06
1.99593e-06
1.98631e-06
1.97627e-06
1.96604e-06
1.95612e-06
1.94576e-06
1.93455e-06
1.92318e-06
1.91154e-06
1.8998e-06
1.88767e-06
1.87561e-06
1.86334e-06
1.85083e-06
1.83737e-06
1.82404e-06
1.81152e-06
1.79993e-06
1.78831e-06
1.77668e-06
1.76491e-06
1.75361e-06
1.74263e-06
1.73035e-06
1.71792e-06
1.70508e-06
1.69157e-06
1.67782e-06
1.66388e-06
1.65019e-06
1.63589e-06
1.62197e-06
1.60823e-06
1.59455e-06
1.58101e-06
1.56842e-06
1.55593e-06
1.54288e-06
1.52899e-06
1.51487e-06
1.5006e-06
1.48639e-06
1.47217e-06
1.45763e-06
1.4423e-06
1.42696e-06
1.41197e-06
1.39725e-06
1.38299e-06
1.36938e-06
1.35433e-06
1.33924e-06
1.32435e-06
1.30953e-06
1.29461e-06
1.27928e-06
1.26258e-06
1.24654e-06
1.23143e-06
1.21637e-06
1.20184e-06
1.18773e-06
1.17266e-06
1.15693e-06
1.14045e-06
1.12483e-06
1.10855e-06
1.09214e-06
1.0762e-06
1.06073e-06
1.04619e-06
1.03205e-06
1.0172e-06
1.0025e-06
9.87551e-07
9.72492e-07
9.56516e-07
9.40667e-07
9.26139e-07
9.12958e-07
9.00512e-07
8.86701e-07
8.73088e-07
8.60229e-07
8.47854e-07
8.35976e-07
8.23756e-07
8.13444e-07
8.01646e-07
7.9714e-07
7.79755e-07
7.95797e-07
7.49516e-07
8.238e-07
6.98646e-07
8.50561e-07
6.63648e-07
-8.82149e-07
5.39214e-07
-6.76563e-07
-8.56626e-08
9.07311e-08
1.7634e-07
5.34667e-07
7.72472e-07
8.78635e-07
1.04037e-06
1.19282e-06
1.31233e-06
1.45742e-06
1.60963e-06
1.74482e-06
1.88373e-06
2.0246e-06
2.16989e-06
2.31599e-06
2.46168e-06
2.61198e-06
2.75268e-06
2.92601e-06
3.0542e-06
3.26787e-06
3.3535e-06
3.608e-06
3.62156e-06
3.91638e-06
3.82376e-06
3.85013e-06
3.62932e-06
2.93076e-06
2.72166e-06
2.69169e-06
2.42274e-06
2.18802e-06
2.12091e-06
2.10066e-06
2.06746e-06
2.04018e-06
2.02563e-06
2.01837e-06
2.01523e-06
2.01597e-06
2.01912e-06
2.02306e-06
2.02723e-06
2.03191e-06
2.03676e-06
2.04138e-06
2.04548e-06
2.04899e-06
2.05181e-06
2.05402e-06
2.05558e-06
2.05645e-06
2.0566e-06
2.05608e-06
2.0547e-06
2.05258e-06
2.04975e-06
2.04622e-06
2.0422e-06
2.03789e-06
2.03299e-06
2.02769e-06
2.0219e-06
2.01528e-06
2.00812e-06
2.00143e-06
1.99464e-06
1.98739e-06
1.97994e-06
1.97249e-06
1.96474e-06
1.95638e-06
1.94796e-06
1.93951e-06
1.93161e-06
1.92357e-06
1.91534e-06
1.90582e-06
1.89572e-06
1.88557e-06
1.87534e-06
1.86468e-06
1.85325e-06
1.84211e-06
1.83137e-06
1.82023e-06
1.80888e-06
1.79701e-06
1.78505e-06
1.77401e-06
1.76326e-06
1.7527e-06
1.74272e-06
1.73266e-06
1.722e-06
1.71152e-06
1.70111e-06
1.69049e-06
1.67966e-06
1.66809e-06
1.65629e-06
1.64441e-06
1.63193e-06
1.61938e-06
1.60626e-06
1.59283e-06
1.58029e-06
1.56846e-06
1.55704e-06
1.54553e-06
1.53403e-06
1.52271e-06
1.51222e-06
1.50172e-06
1.49047e-06
1.47878e-06
1.46672e-06
1.4541e-06
1.44132e-06
1.42855e-06
1.41562e-06
1.4021e-06
1.39038e-06
1.37804e-06
1.36588e-06
1.35394e-06
1.34218e-06
1.33164e-06
1.32109e-06
1.30973e-06
1.29793e-06
1.28565e-06
1.27234e-06
1.25879e-06
1.24575e-06
1.23335e-06
1.22164e-06
1.2097e-06
1.19752e-06
1.18559e-06
1.1749e-06
1.16388e-06
1.15254e-06
1.14005e-06
1.12771e-06
1.11492e-06
1.10126e-06
1.08867e-06
1.07622e-06
1.06417e-06
1.05296e-06
1.04231e-06
1.03107e-06
1.01912e-06
1.00797e-06
9.97083e-07
9.85109e-07
9.71915e-07
9.59989e-07
9.49082e-07
9.38354e-07
9.29081e-07
9.19389e-07
9.1006e-07
9.014e-07
8.9405e-07
8.83404e-07
8.80884e-07
8.62396e-07
8.8133e-07
8.34322e-07
9.07158e-07
7.98516e-07
9.19255e-07
7.9488e-07
-1.62901e-06
1.28991e-06
-5.88497e-07
1.80428e-07
5.11133e-07
7.61901e-07
8.52803e-07
9.89544e-07
1.22841e-06
1.38572e-06
1.495e-06
1.64346e-06
1.80027e-06
1.93712e-06
2.06933e-06
2.20646e-06
2.35044e-06
2.4946e-06
2.6339e-06
2.78137e-06
2.92337e-06
3.09218e-06
3.2255e-06
3.41422e-06
3.51743e-06
3.74252e-06
3.77939e-06
4.01088e-06
3.94551e-06
3.90869e-06
3.73107e-06
3.17876e-06
2.95815e-06
2.9282e-06
2.72807e-06
2.52055e-06
2.45055e-06
2.43018e-06
2.40517e-06
2.38282e-06
2.3708e-06
2.36444e-06
2.36097e-06
2.35978e-06
2.36075e-06
2.3631e-06
2.36627e-06
2.37039e-06
2.3747e-06
2.37898e-06
2.38313e-06
2.38692e-06
2.39003e-06
2.39263e-06
2.39449e-06
2.39553e-06
2.39576e-06
2.39586e-06
2.39517e-06
2.39369e-06
2.39158e-06
2.3889e-06
2.38547e-06
2.38163e-06
2.37726e-06
2.3722e-06
2.36671e-06
2.3612e-06
2.35542e-06
2.3489e-06
2.34213e-06
2.3351e-06
2.32797e-06
2.3209e-06
2.31352e-06
2.30542e-06
2.29686e-06
2.28794e-06
2.27831e-06
2.26869e-06
2.25888e-06
2.24893e-06
2.23807e-06
2.22725e-06
2.21652e-06
2.20614e-06
2.1959e-06
2.18489e-06
2.17422e-06
2.16389e-06
2.15323e-06
2.14311e-06
2.1328e-06
2.12198e-06
2.11104e-06
2.10022e-06
2.0894e-06
2.07903e-06
2.0683e-06
2.05665e-06
2.04495e-06
2.03265e-06
2.01991e-06
2.00635e-06
1.99211e-06
1.97881e-06
1.96614e-06
1.95342e-06
1.94161e-06
1.9301e-06
1.91791e-06
1.9055e-06
1.89311e-06
1.88082e-06
1.86905e-06
1.85753e-06
1.84591e-06
1.83249e-06
1.81911e-06
1.80549e-06
1.79214e-06
1.77811e-06
1.76388e-06
1.74946e-06
1.73525e-06
1.72207e-06
1.70869e-06
1.69597e-06
1.68298e-06
1.67004e-06
1.65709e-06
1.64363e-06
1.63062e-06
1.61684e-06
1.60329e-06
1.5893e-06
1.57505e-06
1.56058e-06
1.54628e-06
1.53156e-06
1.51611e-06
1.50158e-06
1.48765e-06
1.47426e-06
1.46073e-06
1.44749e-06
1.43513e-06
1.42131e-06
1.4069e-06
1.39168e-06
1.37674e-06
1.36138e-06
1.34621e-06
1.33199e-06
1.31765e-06
1.30326e-06
1.28993e-06
1.2774e-06
1.26475e-06
1.25233e-06
1.23895e-06
1.22505e-06
1.21136e-06
1.19877e-06
1.18635e-06
1.17388e-06
1.16179e-06
1.15036e-06
1.1392e-06
1.13039e-06
1.12024e-06
1.11784e-06
1.10084e-06
1.11563e-06
1.06997e-06
1.12838e-06
1.03706e-06
1.11827e-06
1.03304e-06
5.49009e-07
-1.26561e-06
9.81336e-07
-1.60329e-07
1.17365e-07
7.86799e-07
8.99177e-07
9.45595e-07
1.14403e-06
1.27885e-06
1.38741e-06
1.54953e-06
1.69637e-06
1.82691e-06
1.96633e-06
2.10907e-06
2.24726e-06
2.39165e-06
2.53903e-06
2.69017e-06
2.83523e-06
2.99859e-06
3.13505e-06
3.31612e-06
3.42577e-06
3.63339e-06
3.68292e-06
3.86964e-06
3.8335e-06
3.78004e-06
3.6332e-06
3.20829e-06
2.99011e-06
2.95282e-06
2.78953e-06
2.60534e-06
2.52347e-06
2.4957e-06
2.46922e-06
2.44593e-06
2.43111e-06
2.42316e-06
2.41955e-06
2.41871e-06
2.4199e-06
2.42352e-06
2.42871e-06
2.4344e-06
2.44004e-06
2.4454e-06
2.45095e-06
2.45592e-06
2.46019e-06
2.46355e-06
2.46585e-06
2.46735e-06
2.4679e-06
2.46678e-06
2.46527e-06
2.46334e-06
2.46089e-06
2.45808e-06
2.45462e-06
2.45046e-06
2.44551e-06
2.44024e-06
2.43454e-06
2.42866e-06
2.42254e-06
2.41607e-06
2.40927e-06
2.40223e-06
2.39507e-06
2.38746e-06
2.3797e-06
2.37207e-06
2.36401e-06
2.3554e-06
2.34623e-06
2.33612e-06
2.3252e-06
2.31562e-06
2.30676e-06
2.29766e-06
2.28827e-06
2.27866e-06
2.26999e-06
2.26143e-06
2.25176e-06
2.2418e-06
2.23176e-06
2.22102e-06
2.21064e-06
2.20016e-06
2.18964e-06
2.17979e-06
2.16947e-06
2.1584e-06
2.14692e-06
2.13561e-06
2.12369e-06
2.11229e-06
2.10071e-06
2.08895e-06
2.07688e-06
2.0652e-06
2.05393e-06
2.04317e-06
2.03324e-06
2.02302e-06
2.01239e-06
2.00209e-06
1.99162e-06
1.98077e-06
1.969e-06
1.95682e-06
1.94436e-06
1.9323e-06
1.9198e-06
1.90772e-06
1.89575e-06
1.88393e-06
1.87154e-06
1.85853e-06
1.84629e-06
1.83492e-06
1.82341e-06
1.8129e-06
1.80192e-06
1.79028e-06
1.77841e-06
1.76594e-06
1.75371e-06
1.74145e-06
1.7284e-06
1.71574e-06
1.70389e-06
1.69196e-06
1.67917e-06
1.66655e-06
1.65331e-06
1.64096e-06
1.62835e-06
1.61677e-06
1.60468e-06
1.592e-06
1.57947e-06
1.56787e-06
1.55591e-06
1.54413e-06
1.53149e-06
1.51828e-06
1.5059e-06
1.49285e-06
1.48003e-06
1.46713e-06
1.45484e-06
1.44383e-06
1.4322e-06
1.41988e-06
1.40797e-06
1.39707e-06
1.38677e-06
1.37581e-06
1.36492e-06
1.35397e-06
1.34345e-06
1.33335e-06
1.32273e-06
1.31419e-06
1.30475e-06
1.30249e-06
1.28635e-06
1.29943e-06
1.2619e-06
1.30635e-06
1.23763e-06
1.28732e-06
1.23406e-06
1.24308e-08
-1.05773e-06
5.45273e-07
2.96957e-07
5.58004e-07
6.77488e-07
8.94436e-07
1.20091e-06
1.32733e-06
1.41807e-06
1.59586e-06
1.75782e-06
1.88714e-06
2.02593e-06
2.16946e-06
2.31002e-06
2.45226e-06
2.59303e-06
2.73824e-06
2.88097e-06
3.03921e-06
3.17779e-06
3.35142e-06
3.46772e-06
3.64984e-06
3.7179e-06
3.86421e-06
3.85232e-06
3.78865e-06
3.66321e-06
3.33307e-06
3.13161e-06
3.08335e-06
2.95827e-06
2.803e-06
2.72312e-06
2.69569e-06
2.67494e-06
2.65639e-06
2.64445e-06
2.63888e-06
2.63727e-06
2.63875e-06
2.64217e-06
2.64722e-06
2.65245e-06
2.6575e-06
2.66242e-06
2.66719e-06
2.67173e-06
2.67563e-06
2.67907e-06
2.68104e-06
2.68256e-06
2.68342e-06
2.68377e-06
2.6828e-06
2.6813e-06
2.67916e-06
2.67625e-06
2.67271e-06
2.66883e-06
2.6651e-06
2.66144e-06
2.65728e-06
2.6526e-06
2.64757e-06
2.64196e-06
2.63578e-06
2.62947e-06
2.62253e-06
2.61547e-06
2.60839e-06
2.60125e-06
2.59311e-06
2.58452e-06
2.57588e-06
2.56717e-06
2.55799e-06
2.54884e-06
2.5394e-06
2.52967e-06
2.52016e-06
2.51095e-06
2.50217e-06
2.49317e-06
2.48466e-06
2.4751e-06
2.46512e-06
2.45481e-06
2.4432e-06
2.43185e-06
2.42079e-06
2.40969e-06
2.39803e-06
2.38722e-06
2.37645e-06
2.36572e-06
2.3548e-06
2.34328e-06
2.33165e-06
2.32005e-06
2.3087e-06
2.29756e-06
2.28626e-06
2.27544e-06
2.26411e-06
2.25245e-06
2.24088e-06
2.22976e-06
2.21849e-06
2.20713e-06
2.1953e-06
2.18244e-06
2.16965e-06
2.15667e-06
2.1439e-06
2.1317e-06
2.11942e-06
2.10674e-06
2.09414e-06
2.08227e-06
2.07055e-06
2.05879e-06
2.04644e-06
2.03382e-06
2.02115e-06
2.00907e-06
1.99701e-06
1.98432e-06
1.97178e-06
1.95986e-06
1.9474e-06
1.9338e-06
1.92062e-06
1.90734e-06
1.89408e-06
1.88163e-06
1.86914e-06
1.85687e-06
1.84491e-06
1.83265e-06
1.81882e-06
1.80552e-06
1.79274e-06
1.77981e-06
1.7666e-06
1.75385e-06
1.742e-06
1.72924e-06
1.71685e-06
1.7046e-06
1.69162e-06
1.67865e-06
1.66609e-06
1.65367e-06
1.64109e-06
1.6289e-06
1.61701e-06
1.60567e-06
1.59471e-06
1.58332e-06
1.57197e-06
1.56097e-06
1.55029e-06
1.53987e-06
1.53014e-06
1.52068e-06
1.51293e-06
1.50253e-06
1.49916e-06
1.48389e-06
1.4933e-06
1.4622e-06
1.49394e-06
1.44102e-06
1.46891e-06
1.43551e-06
2.86997e-08
1.26486e-06
2.74705e-07
9.06307e-07
8.77759e-07
9.55545e-07
1.19126e-06
1.32047e-06
1.4357e-06
1.6087e-06
1.75071e-06
1.86845e-06
2.00581e-06
2.14498e-06
2.28655e-06
2.43073e-06
2.57363e-06
2.71985e-06
2.86503e-06
3.02173e-06
3.1638e-06
3.32816e-06
3.45158e-06
3.615e-06
3.69607e-06
3.81611e-06
3.82117e-06
3.76183e-06
3.66079e-06
3.40428e-06
3.22291e-06
3.17081e-06
3.07267e-06
2.93963e-06
2.86244e-06
2.83204e-06
2.8128e-06
2.79692e-06
2.78734e-06
2.7831e-06
2.78204e-06
2.78365e-06
2.78705e-06
2.79099e-06
2.79583e-06
2.80111e-06
2.80652e-06
2.81178e-06
2.81608e-06
2.81989e-06
2.82308e-06
2.82548e-06
2.82732e-06
2.82836e-06
2.82888e-06
2.82924e-06
2.82885e-06
2.82764e-06
2.82559e-06
2.82234e-06
2.81891e-06
2.81535e-06
2.81185e-06
2.80772e-06
2.80313e-06
2.79795e-06
2.79226e-06
2.78622e-06
2.7797e-06
2.77323e-06
2.76605e-06
2.75812e-06
2.74994e-06
2.74188e-06
2.73391e-06
2.72582e-06
2.71754e-06
2.7093e-06
2.70089e-06
2.69199e-06
2.68264e-06
2.67336e-06
2.66422e-06
2.65543e-06
2.64623e-06
2.63641e-06
2.62679e-06
2.61701e-06
2.6071e-06
2.59757e-06
2.58726e-06
2.57667e-06
2.56585e-06
2.55446e-06
2.54384e-06
2.53379e-06
2.52406e-06
2.51367e-06
2.50337e-06
2.49249e-06
2.48193e-06
2.47144e-06
2.46065e-06
2.45007e-06
2.43908e-06
2.42829e-06
2.41729e-06
2.40645e-06
2.39525e-06
2.38374e-06
2.3724e-06
2.36102e-06
2.34967e-06
2.33832e-06
2.32678e-06
2.31494e-06
2.30376e-06
2.29201e-06
2.28018e-06
2.2682e-06
2.25673e-06
2.24578e-06
2.23441e-06
2.22288e-06
2.21113e-06
2.19921e-06
2.18716e-06
2.17492e-06
2.16269e-06
2.15057e-06
2.13842e-06
2.12642e-06
2.11453e-06
2.10235e-06
2.0902e-06
2.07799e-06
2.06619e-06
2.05417e-06
2.0421e-06
2.0292e-06
2.01682e-06
2.00448e-06
1.9922e-06
1.97989e-06
1.96728e-06
1.9548e-06
1.94255e-06
1.93019e-06
1.91823e-06
1.90606e-06
1.89354e-06
1.8814e-06
1.86933e-06
1.85736e-06
1.84539e-06
1.83333e-06
1.82154e-06
1.81e-06
1.79875e-06
1.78765e-06
1.77664e-06
1.76587e-06
1.7553e-06
1.74496e-06
1.73493e-06
1.72557e-06
1.71628e-06
1.70847e-06
1.6986e-06
1.69462e-06
1.68084e-06
1.68699e-06
1.66114e-06
1.68237e-06
1.64235e-06
1.65515e-06
1.63321e-06
-1.3716e-06
1.85612e-06
6.7771e-07
4.1611e-07
8.84557e-07
1.24931e-06
1.25217e-06
1.35353e-06
1.585e-06
1.7411e-06
1.86745e-06
2.01394e-06
2.15496e-06
2.29659e-06
2.4412e-06
2.58238e-06
2.72638e-06
2.87097e-06
3.02469e-06
3.16797e-06
3.32724e-06
3.45449e-06
3.60724e-06
3.69534e-06
3.79951e-06
3.81656e-06
3.76746e-06
3.6836e-06
3.48736e-06
3.3327e-06
3.2771e-06
3.1976e-06
3.08781e-06
3.01917e-06
2.99129e-06
2.97411e-06
2.96015e-06
2.9525e-06
2.94974e-06
2.9497e-06
2.95178e-06
2.95597e-06
2.96075e-06
2.96639e-06
2.9723e-06
2.97818e-06
2.98319e-06
2.98761e-06
2.99164e-06
2.99488e-06
2.99793e-06
2.99991e-06
3.00141e-06
3.00214e-06
3.00198e-06
3.00108e-06
2.99967e-06
2.99786e-06
2.99552e-06
2.99281e-06
2.98897e-06
2.98437e-06
2.9799e-06
2.97521e-06
2.96951e-06
2.96364e-06
2.95772e-06
2.95144e-06
2.94546e-06
2.93856e-06
2.93091e-06
2.92332e-06
2.91587e-06
2.90821e-06
2.90034e-06
2.89216e-06
2.88379e-06
2.87575e-06
2.86705e-06
2.85835e-06
2.84943e-06
2.84044e-06
2.83095e-06
2.82136e-06
2.81173e-06
2.80257e-06
2.79281e-06
2.78327e-06
2.77373e-06
2.76362e-06
2.75357e-06
2.74354e-06
2.73358e-06
2.72338e-06
2.71305e-06
2.70244e-06
2.69186e-06
2.68144e-06
2.67111e-06
2.66059e-06
2.64996e-06
2.6396e-06
2.62937e-06
2.61811e-06
2.60746e-06
2.59626e-06
2.58514e-06
2.57405e-06
2.56289e-06
2.5519e-06
2.54072e-06
2.52958e-06
2.51833e-06
2.50697e-06
2.49582e-06
2.48443e-06
2.473e-06
2.46165e-06
2.45039e-06
2.43903e-06
2.42771e-06
2.41622e-06
2.4047e-06
2.39317e-06
2.38146e-06
2.36959e-06
2.35773e-06
2.34608e-06
2.33427e-06
2.32226e-06
2.31036e-06
2.29867e-06
2.28691e-06
2.27514e-06
2.26349e-06
2.25168e-06
2.23982e-06
2.2279e-06
2.21582e-06
2.20371e-06
2.1917e-06
2.17963e-06
2.16752e-06
2.15534e-06
2.14335e-06
2.13141e-06
2.11936e-06
2.10755e-06
2.09564e-06
2.08364e-06
2.07188e-06
2.06017e-06
2.04852e-06
2.03689e-06
2.02524e-06
2.0138e-06
2.00256e-06
1.99157e-06
1.98078e-06
1.97018e-06
1.95976e-06
1.94953e-06
1.93953e-06
1.92984e-06
1.92072e-06
1.91167e-06
1.90394e-06
1.8946e-06
1.89005e-06
1.87768e-06
1.88084e-06
1.85944e-06
1.87246e-06
1.84208e-06
1.84482e-06
1.82946e-06
1.06454e-06
-7.89139e-07
1.16248e-06
7.14941e-07
7.87742e-07
1.16795e-06
1.33729e-06
1.46575e-06
1.65846e-06
1.77127e-06
1.88577e-06
2.02987e-06
2.16331e-06
2.30072e-06
2.44483e-06
2.58409e-06
2.72688e-06
2.87199e-06
3.02405e-06
3.16871e-06
3.32318e-06
3.45331e-06
3.59735e-06
3.69255e-06
3.78788e-06
3.81552e-06
3.78012e-06
3.71311e-06
3.56444e-06
3.43514e-06
3.38145e-06
3.31765e-06
3.22958e-06
3.16928e-06
3.14264e-06
3.12808e-06
3.11752e-06
3.11178e-06
3.11077e-06
3.11247e-06
3.11621e-06
3.12113e-06
3.12694e-06
3.1333e-06
3.1396e-06
3.14538e-06
3.15065e-06
3.1555e-06
3.1597e-06
3.16319e-06
3.16606e-06
3.1682e-06
3.16963e-06
3.17015e-06
3.16999e-06
3.16924e-06
3.16793e-06
3.166e-06
3.16361e-06
3.16056e-06
3.15711e-06
3.15315e-06
3.14878e-06
3.14378e-06
3.1386e-06
3.1332e-06
3.12747e-06
3.12143e-06
3.11492e-06
3.10813e-06
3.1012e-06
3.09404e-06
3.08675e-06
3.0792e-06
3.07141e-06
3.06343e-06
3.05541e-06
3.04716e-06
3.0387e-06
3.03023e-06
3.02157e-06
3.01272e-06
3.00362e-06
2.99439e-06
2.98509e-06
2.97568e-06
2.96628e-06
2.95678e-06
2.94729e-06
2.93783e-06
2.92818e-06
2.91842e-06
2.90864e-06
2.89861e-06
2.88842e-06
2.87819e-06
2.86804e-06
2.8579e-06
2.84763e-06
2.83724e-06
2.82688e-06
2.81659e-06
2.80604e-06
2.79566e-06
2.78498e-06
2.77426e-06
2.7635e-06
2.75275e-06
2.74195e-06
2.73099e-06
2.72006e-06
2.70922e-06
2.69825e-06
2.6873e-06
2.67631e-06
2.66507e-06
2.65398e-06
2.6429e-06
2.63191e-06
2.62076e-06
2.60953e-06
2.59829e-06
2.58703e-06
2.57575e-06
2.56426e-06
2.55274e-06
2.54131e-06
2.52988e-06
2.51828e-06
2.50652e-06
2.49491e-06
2.4835e-06
2.47204e-06
2.46052e-06
2.44906e-06
2.43749e-06
2.42589e-06
2.41429e-06
2.40261e-06
2.39086e-06
2.37909e-06
2.36727e-06
2.35547e-06
2.34367e-06
2.33197e-06
2.32029e-06
2.30858e-06
2.29705e-06
2.28549e-06
2.27388e-06
2.26239e-06
2.251e-06
2.23966e-06
2.22836e-06
2.21709e-06
2.206e-06
2.19509e-06
2.18441e-06
2.17395e-06
2.16367e-06
2.15357e-06
2.14365e-06
2.13399e-06
2.12462e-06
2.11575e-06
2.10699e-06
2.09935e-06
2.09047e-06
2.08542e-06
2.07426e-06
2.07494e-06
2.05715e-06
2.06391e-06
2.04047e-06
2.03687e-06
2.02499e-06
3.52869e-07
2.01404e-06
7.37801e-07
8.50672e-07
1.12991e-06
1.10394e-06
1.31327e-06
1.6097e-06
1.73623e-06
1.85922e-06
2.01659e-06
2.15421e-06
2.29789e-06
2.44572e-06
2.58439e-06
2.72651e-06
2.8723e-06
3.02313e-06
3.16854e-06
3.31979e-06
3.45263e-06
3.59159e-06
3.69263e-06
3.78374e-06
3.82083e-06
3.80043e-06
3.75049e-06
3.63982e-06
3.5353e-06
3.48694e-06
3.43671e-06
3.36709e-06
3.31572e-06
3.29208e-06
3.28077e-06
3.27353e-06
3.27038e-06
3.27128e-06
3.27456e-06
3.2797e-06
3.28567e-06
3.29227e-06
3.2991e-06
3.30567e-06
3.31178e-06
3.31754e-06
3.32265e-06
3.32698e-06
3.33058e-06
3.33344e-06
3.3356e-06
3.33691e-06
3.33752e-06
3.33756e-06
3.33693e-06
3.33565e-06
3.3338e-06
3.33149e-06
3.32855e-06
3.32522e-06
3.32138e-06
3.31701e-06
3.31234e-06
3.30748e-06
3.3022e-06
3.29656e-06
3.29058e-06
3.28413e-06
3.27759e-06
3.27092e-06
3.26392e-06
3.25672e-06
3.24932e-06
3.24173e-06
3.234e-06
3.2261e-06
3.21798e-06
3.20984e-06
3.2016e-06
3.19316e-06
3.18451e-06
3.17567e-06
3.16666e-06
3.15755e-06
3.14838e-06
3.13928e-06
3.13003e-06
3.1208e-06
3.11154e-06
3.10207e-06
3.09251e-06
3.08294e-06
3.07316e-06
3.0633e-06
3.05341e-06
3.04349e-06
3.03348e-06