/*--------------------------------*- C++ -*----------------------------------*\
| =========                 |                                                 |
| \\      /  F ield         | OpenFOAM: The Open Source CFD Toolbox           |
|  \\    /   O peration     | Version:  2512                                  |
|   \\  /    A nd           | Website:  www.openfoam.com                      |
|    \\/     M anipulation  |                                                 |
\*---------------------------------------------------------------------------*/
FoamFile
{
    version     2.0;
    format      ascii;
    arch        "LSB;label=32;scalar=64";
    class       volScalarField;
    location    "0.1";
    object      Uz;
}
// * * * * * * * * * * * * * * * * * * * * * * * * * * * * * * * * * * * * * //

dimensions      [0 1 -1 0 0 0 0];

internalField   nonuniform List<scalar> 
8334
(
2.52694e-18
-1.09044e-17
-1.1069e-18
-1.01615e-17
-5.79186e-18
-4.32578e-18
-8.50788e-19
-3.16093e-18
3.28961e-18
-6.66416e-18
-4.66227e-18
-1.25662e-18
-3.50637e-18
2.51369e-18
-5.97565e-18
-5.96591e-18
-2.45775e-19
-5.91495e-18
-1.09085e-17
6.47852e-18
-1.54486e-17
2.87205e-19
-6.31715e-18
-3.87304e-19
-1.27493e-17
-6.98082e-18
-6.05786e-18
-1.20321e-18
-7.6418e-19
-2.71693e-18
5.29582e-18
-4.30458e-18
-2.50306e-18
7.14392e-20
-2.567e-18
1.81293e-18
-2.02125e-18
1.43504e-18
-9.33114e-19
6.80604e-18
-5.03754e-18
-1.50018e-18
-3.15932e-18
1.13302e-19
-5.05128e-19
-2.6255e-18
5.28006e-18
-3.73552e-18
-3.45678e-18
2.5339e-18
-7.40611e-18
9.5076e-18
-1.10778e-17
2.61439e-17
7.82182e-18
1.89121e-17
2.73207e-17
3.45799e-18
2.4647e-17
1.5804e-17
1.80417e-17
2.23436e-18
1.79743e-17
-1.25785e-17
2.26468e-17
5.63521e-18
1.85898e-17
2.87283e-17
5.31751e-18
2.62197e-17
1.69434e-17
1.76928e-17
4.01236e-18
1.46078e-17
-6.56204e-18
1.36669e-17
1.59776e-17
4.83412e-18
1.76464e-17
-5.54219e-18
1.84146e-17
1.05115e-17
1.59146e-17
3.73705e-18
9.73158e-18
1.26835e-18
2.58307e-18
-1.20707e-17
-9.67186e-18
-6.90361e-18
-3.18754e-18
-3.41749e-18
2.74932e-18
-5.96347e-18
8.21424e-18
-9.06854e-18
1.17681e-17
1.6052e-17
4.10123e-18
4.33991e-18
2.44128e-18
1.80231e-18
-1.12571e-18
3.53641e-18
-5.56769e-18
8.07832e-18
-8.43943e-18
9.99281e-18
1.93053e-17
-2.08685e-18
1.23288e-17
-6.83287e-18
1.31053e-17
1.64482e-17
3.94394e-18
4.17965e-18
2.36746e-18
1.77319e-18
-1.12903e-18
3.57206e-18
-5.67363e-18
8.36603e-18
-9.13296e-18
1.15829e-17
1.60313e-17
4.15988e-18
4.37084e-18
2.52452e-18
1.46624e-18
3.14856e-20
9.06689e-19
-1.51205e-18
5.36491e-18
4.23353e-18
5.68443e-18
2.84561e-18
4.90749e-18
-1.15248e-17
1.02678e-17
1.4222e-17
6.82835e-18
1.15472e-17
1.03878e-18
-1.16462e-18
4.25551e-18
-5.54128e-18
-5.51317e-18
-1.0548e-18
-1.78422e-18
-2.61287e-18
3.8573e-18
-9.00345e-19
-7.9819e-18
8.084e-18
-1.22898e-17
1.51079e-17
9.7172e-18
1.49181e-17
2.43787e-18
-5.11025e-19
3.26261e-18
-6.61065e-18
8.8706e-18
-1.17346e-17
1.53046e-17
1.07939e-17
1.3851e-17
4.80577e-18
-5.06808e-18
8.8993e-18
-1.11891e-17
1.35906e-17
1.27075e-17
9.164e-18
9.75756e-18
-9.06522e-18
1.17841e-17
1.50874e-17
7.18701e-18
1.16295e-17
1.49929e-18
-1.17106e-18
4.50883e-18
-5.75486e-18
1.28931e-18
-2.4468e-18
-3.04298e-19
-1.91176e-18
-1.84889e-18
-2.67842e-18
-2.7716e-19
-1.81051e-18
1.0119e-18
4.87809e-19
-1.14844e-18
1.30704e-19
-1.75086e-18
2.53226e-19
7.65937e-19
-1.38043e-18
-1.46997e-18
2.13058e-18
-7.16246e-18
6.92788e-18
-1.11977e-17
9.92827e-18
-1.63498e-17
-1.1196e-17
-1.14023e-17
-8.94937e-18
-6.54607e-18
-3.64383e-18
-3.54343e-19
-1.98808e-18
1.59468e-18
1.0906e-18
2.74671e-21
1.58581e-19
-1.15963e-18
7.93234e-19
-4.98932e-19
1.34025e-18
-6.45781e-19
2.66514e-18
1.1008e-18
4.5396e-19
-8.23926e-19
-7.14273e-19
8.36411e-19
-1.53909e-18
1.72651e-18
1.42272e-18
-7.49732e-19
2.26632e-18
-5.5548e-18
8.02701e-18
-9.30229e-18
9.46664e-18
-1.87764e-18
-2.06964e-18
7.94583e-18
2.32397e-18
5.25281e-18
5.14419e-18
9.84839e-18
1.75179e-18
1.03924e-17
-2.74511e-18
4.4248e-18
3.64461e-18
2.10484e-18
1.23334e-17
6.22154e-18
7.85592e-18
6.77315e-18
1.00168e-17
3.1035e-18
8.34176e-18
6.58099e-19
4.86016e-19
6.24719e-18
2.17483e-18
9.87305e-18
8.09923e-19
4.4108e-18
6.8939e-19
1.27405e-17
-3.69802e-18
1.57133e-17
-1.23295e-17
-8.63271e-18
-1.00707e-17
-9.16833e-18
-6.79871e-18
-3.3696e-18
-2.64628e-18
1.78968e-18
-2.82404e-18
4.00943e-18
-7.74939e-19
-7.93895e-19
4.96057e-18
5.47596e-18
4.33464e-18
2.23042e-18
1.48614e-18
-4.20873e-19
2.57936e-18
-2.48334e-18
3.9502e-18
-3.84422e-19
-1.80022e-18
6.98672e-18
2.27093e-18
7.6399e-18
7.27238e-19
-4.64609e-19
4.83591e-18
5.22484e-18
4.11735e-18
2.13056e-18
1.42821e-18
-4.48345e-19
2.61943e-18
-2.56068e-18
4.15998e-18
-8.38235e-19
-8.31276e-19
4.98397e-18
5.49836e-18
4.38785e-18
2.17983e-18
1.43268e-18
1.26e-20
1.20949e-18
2.5982e-19
6.51747e-19
1.8026e-18
3.1914e-18
7.51649e-19
5.99988e-18
-1.59401e-18
-1.80186e-18
4.18306e-18
3.611e-18
5.33487e-18
4.71556e-18
4.74898e-19
1.63855e-18
2.07318e-19
-1.42369e-18
-1.28248e-18
-2.43089e-20
-1.72516e-18
7.02571e-19
3.21048e-18
-3.40356e-18
4.02847e-18
-3.92173e-18
8.96209e-19
2.03869e-18
6.84755e-18
5.65588e-18
1.63602e-18
2.81386e-18
-3.60404e-18
4.53332e-18
-3.14106e-18
1.42718e-18
2.89858e-18
6.23929e-18
7.35537e-18
-8.92518e-19
5.06312e-18
-3.05045e-18
7.7569e-20
4.08337e-18
3.61192e-18
9.16867e-18
2.87381e-19
-8.04884e-19
4.81432e-18
3.89245e-18
5.48851e-18
4.91998e-18
3.78531e-19
1.70158e-18
1.04368e-19
2.08305e-18
2.43603e-18
2.22394e-18
2.21948e-18
1.55817e-18
2.37725e-18
1.84119e-18
2.57789e-18
3.10079e-18
2.40004e-18
2.75868e-18
2.00751e-18
2.25587e-18
3.08824e-18
2.65032e-18
1.48791e-18
4.3959e-18
-1.111e-18
6.66692e-18
-2.48665e-18
5.14298e-18
2.04028e-18
-5.64438e-19
-2.86661e-18
-3.03413e-18
-1.7782e-18
-2.65991e-19
1.77551e-18
1.59364e-18
2.66465e-18
3.13494e-18
2.78509e-18
2.65001e-18
2.11868e-18
2.76635e-18
2.3591e-18
3.06116e-18
2.31101e-18
3.14707e-18
3.28468e-18
2.92509e-18
2.42648e-18
2.05539e-18
2.83157e-18
1.98197e-18
2.77125e-18
3.40718e-18
2.37721e-18
4.01771e-18
-5.06095e-19
6.64729e-18
-1.36893e-18
4.12537e-18
4.68256e-18
1.42127e-18
3.32019e-18
2.20741e-18
2.58652e-18
2.92781e-18
5.59315e-18
3.06806e-18
6.19393e-18
2.40454e-18
3.18889e-18
3.93559e-18
2.3414e-18
5.97514e-18
5.24606e-18
4.84464e-18
4.38312e-18
6.0229e-18
3.78532e-18
5.4132e-18
3.66816e-18
2.08212e-18
4.12674e-18
2.99504e-18
5.97129e-18
3.39552e-18
4.31198e-18
7.97892e-19
8.64405e-18
-1.54337e-19
7.33712e-18
3.664e-18
4.20722e-19
-2.31855e-18
-2.92265e-18
-1.78167e-18
1.40375e-19
9.26992e-19
2.99362e-18
1.51058e-18
3.65822e-18
3.08943e-18
1.70675e-18
3.36619e-18
4.58574e-18
4.46716e-18
3.58038e-18
3.17323e-18
2.33833e-18
3.4861e-18
1.67368e-18
3.61648e-18
3.22852e-18
1.28688e-18
4.13152e-18
3.43595e-18
5.26873e-18
3.74416e-18
1.81201e-18
3.23489e-18
4.4286e-18
4.30965e-18
3.57123e-18
3.13843e-18
2.29708e-18
3.56229e-18
1.68383e-18
3.73297e-18
3.02323e-18
1.64048e-18
3.29169e-18
4.5987e-18
4.45001e-18
3.7257e-18
2.83882e-18
3.03702e-18
2.4188e-18
3.05778e-18
2.82424e-18
2.76884e-18
3.03118e-18
1.71358e-18
4.20342e-18
2.69201e-18
1.13621e-18
3.13129e-18
3.59568e-18
4.11634e-18
4.65215e-18
3.05973e-18
2.95792e-18
2.85357e-18
2.33116e-18
1.92196e-18
2.55577e-18
1.8929e-18
2.33524e-18
4.04507e-18
1.57429e-18
3.83233e-18
1.70448e-18
2.09896e-18
2.56636e-18
4.35667e-18
4.9412e-18
3.51963e-18
3.8704e-18
1.23001e-18
3.86967e-18
2.02546e-18
2.34234e-18
2.9068e-18
4.19061e-18
5.68618e-18
2.63758e-18
4.39018e-18
2.15397e-18
1.83439e-18
3.39756e-18
3.25935e-18
6.06114e-18
3.84991e-18
1.7041e-18
3.50757e-18
3.74048e-18
4.20384e-18
4.75905e-18
3.02249e-18
2.96926e-18
2.83345e-18
9.2406e-18
9.09066e-18
9.27218e-18
8.96971e-18
9.12874e-18
8.94779e-18
9.21599e-18
9.40323e-18
9.1678e-18
9.34581e-18
9.12164e-18
9.12902e-18
9.33577e-18
9.5647e-18
8.62361e-18
1.03076e-17
6.85727e-18
1.23041e-17
5.96453e-18
1.06241e-17
9.59573e-18
7.5038e-18
5.58895e-18
5.13876e-18
6.06275e-18
7.2372e-18
8.34169e-18
8.75014e-18
9.10554e-18
9.25626e-18
9.21446e-18
9.22828e-18
9.05582e-18
9.3794e-18
9.24258e-18
9.34566e-18
9.01738e-18
9.33695e-18
9.5036e-18
9.23435e-18
9.10142e-18
8.90516e-18
9.03556e-18
8.90531e-18
9.16067e-18
9.59955e-18
9.06948e-18
1.03522e-17
7.16861e-18
1.20726e-17
6.36612e-18
1.04218e-17
1.01263e-17
7.66005e-18
7.00295e-18
6.65909e-18
7.37244e-18
8.16815e-18
9.50289e-18
9.23791e-18
1.01577e-17
9.24228e-18
9.23509e-18
9.6733e-18
9.11517e-18
1.00288e-17
9.89066e-18
9.80533e-18
9.75777e-18
1.01597e-17
9.54626e-18
9.90781e-18
9.66405e-18
9.05649e-18
9.48735e-18
9.29752e-18
1.02669e-17
9.32462e-18
1.03617e-17
7.45452e-18
1.25162e-17
6.4935e-18
1.12602e-17
1.01514e-17
7.65562e-18
5.63022e-18
5.17445e-18
6.21807e-18
7.43514e-18
8.21215e-18
9.09496e-18
8.8395e-18
9.46427e-18
9.60827e-18
9.01947e-18
9.40547e-18
9.8338e-18
9.81604e-18
9.6047e-18
9.40885e-18
9.14127e-18
9.38062e-18
8.84325e-18
9.33662e-18
9.53454e-18
8.90323e-18
9.53935e-18
9.44809e-18
9.82609e-18
9.58854e-18
9.0268e-18
9.27576e-18
9.70905e-18
9.59175e-18
9.68992e-18
9.41954e-18
9.02033e-18
9.55965e-18
9.03562e-18
9.47525e-18
9.51755e-18
8.88165e-18
9.13804e-18
9.84749e-18
9.67826e-18
1.00725e-17
8.40224e-18
1.09094e-17
7.31798e-18
1.08289e-17
9.20168e-18
7.81031e-18
7.04903e-18
6.59256e-18
8.04243e-18
8.60965e-18
8.40665e-18
9.04775e-18
9.44058e-18
9.63779e-18
9.7061e-18
9.37275e-18
9.27978e-18
9.25112e-18
9.10085e-18
8.89203e-18
9.13944e-18
8.89426e-18
8.94891e-18
9.68316e-18
9.0161e-18
9.54678e-18
9.05717e-18
8.91489e-18
9.21656e-18
9.44446e-18
9.72401e-18
9.55249e-18
9.71573e-18
8.82693e-18
9.36542e-18
9.19899e-18
8.97148e-18
9.1442e-18
9.59061e-18
1.01403e-17
9.2641e-18
9.81839e-18
9.38621e-18
8.96005e-18
9.44394e-18
9.29e-18
1.03612e-17
9.96945e-18
8.97729e-18
9.44316e-18
9.5269e-18
9.66557e-18
9.87202e-18
9.35112e-18
9.28762e-18
9.25453e-18
2.43071e-17
2.51696e-17
2.46082e-17
2.46644e-17
2.43724e-17
2.46832e-17
2.46934e-17
2.46275e-17
2.48683e-17
2.50229e-17
2.49617e-17
2.4656e-17
2.53355e-17
2.42359e-17
2.54005e-17
2.22854e-17
2.84e-17
2.00316e-17
3.02043e-17
1.79012e-17
1.91309e-17
1.95433e-17
2.02128e-17
2.13902e-17
2.27794e-17
2.36072e-17
2.44778e-17
2.4515e-17
2.47928e-17
2.44441e-17
2.47179e-17
2.43262e-17
2.52463e-17
2.481e-17
2.51274e-17
2.43308e-17
2.49256e-17
2.49279e-17
2.4611e-17
2.43527e-17
2.46553e-17
2.37743e-17
2.4253e-17
2.45742e-17
2.51007e-17
2.47073e-17
2.61976e-17
2.28602e-17
2.79258e-17
2.02843e-17
2.9848e-17
1.81904e-17
1.88405e-17
1.96236e-17
2.01439e-17
2.16446e-17
2.31296e-17
2.41765e-17
2.49283e-17
2.47093e-17
2.48995e-17
2.45697e-17
2.46444e-17
2.48389e-17
2.52272e-17
2.47524e-17
2.46744e-17
2.51226e-17
2.53601e-17
2.44499e-17
2.48262e-17
2.47888e-17
2.46521e-17
2.49139e-17
2.50043e-17
2.51678e-17
2.44651e-17
2.57873e-17
2.29496e-17
2.76974e-17
1.99159e-17
2.97469e-17
1.79684e-17
1.8683e-17
1.92784e-17
2.03358e-17
2.16311e-17
2.28797e-17
2.35743e-17
2.43145e-17
2.44082e-17
2.46751e-17
2.50326e-17
2.47515e-17
2.48065e-17
2.50491e-17
2.47804e-17
2.50093e-17
2.48643e-17
2.48855e-17
2.46959e-17
2.41733e-17
2.45026e-17
2.46842e-17
2.48005e-17
2.51092e-17
2.5122e-17
2.46128e-17
2.45128e-17
2.48693e-17
2.47673e-17
2.51419e-17
2.44193e-17
2.48372e-17
2.51988e-17
2.42689e-17
2.50034e-17
2.47241e-17
2.49279e-17
2.49174e-17
2.41737e-17
2.44229e-17
2.5106e-17
2.47929e-17
2.55921e-17
2.29245e-17
2.7741e-17
2.05241e-17
3.03894e-17
1.76424e-17
1.89807e-17
1.93362e-17
2.02457e-17
2.20444e-17
2.34108e-17
2.39953e-17
2.43479e-17
2.47985e-17
2.49407e-17
2.44587e-17
2.48389e-17
2.48824e-17
2.49799e-17
2.42783e-17
2.4252e-17
2.46377e-17
2.44136e-17
2.43776e-17
2.4983e-17
2.46057e-17
2.46816e-17
2.45284e-17
2.45403e-17
2.48032e-17
2.42506e-17
2.45648e-17
2.5116e-17
2.47882e-17
2.47255e-17
2.44052e-17
2.5276e-17
2.47078e-17
2.42428e-17
2.49673e-17
2.51109e-17
2.47574e-17
2.48283e-17
2.51455e-17
2.46421e-17
2.50241e-17
2.47944e-17
2.53804e-17
2.57351e-17
2.50291e-17
2.48559e-17
2.47096e-17
2.50762e-17
2.50787e-17
2.46355e-17
2.46113e-17
2.4604e-17
9.3488e-18
9.52374e-18
9.45291e-18
9.40128e-18
9.34858e-18
9.49981e-18
9.45931e-18
9.38519e-18
9.48923e-18
9.45938e-18
9.49775e-18
9.40363e-18
9.69512e-18
9.16459e-18
1.00158e-17
7.937e-18
1.1586e-17
7.23794e-18
1.05358e-17
9.52506e-18
8.11883e-18
6.90637e-18
6.63527e-18
7.32269e-18
8.2004e-18
8.75576e-18
9.2027e-18
9.35083e-18
9.2952e-18
9.30654e-18
9.3847e-18
9.38078e-18
9.55348e-18
9.52892e-18
9.41002e-18
9.26716e-18
9.4529e-18
9.50747e-18
9.29595e-18
9.29933e-18
9.26002e-18
9.1663e-18
9.23924e-18
9.36935e-18
9.59762e-18
9.27174e-18
1.02315e-17
8.06073e-18
1.14675e-17
7.26781e-18
1.05863e-17
9.73877e-18
8.05835e-18
6.86219e-18
6.57051e-18
7.35006e-18
8.24308e-18
8.87612e-18
9.30333e-18
9.43687e-18
9.35277e-18
9.37811e-18
9.52987e-18
9.49475e-18
9.524e-18
9.34501e-18
9.44832e-18
9.605e-18
9.49719e-18
9.43394e-18
9.40285e-18
9.45018e-18
9.44114e-18
9.36894e-18
9.46426e-18
9.64107e-18
9.22141e-18
1.00937e-17
8.32413e-18
1.11228e-17
7.31525e-18
1.06203e-17
9.53768e-18
7.97283e-18
6.92291e-18
6.81476e-18
7.66207e-18
8.36166e-18
8.9242e-18
9.21315e-18
9.3296e-18
9.46286e-18
9.58204e-18
9.4896e-18
9.5795e-18
9.56376e-18
9.4817e-18
9.50961e-18
9.43766e-18
9.4199e-18
9.33442e-18
9.27026e-18
9.33594e-18
9.45723e-18
9.49678e-18
9.49135e-18
9.4545e-18
9.33931e-18
9.32368e-18
9.45559e-18
9.4807e-18
9.48163e-18
9.29033e-18
9.61726e-18
9.46036e-18
9.30796e-18
9.51032e-18
9.47123e-18
9.4402e-18
9.4923e-18
9.3649e-18
9.30221e-18
9.57084e-18
9.3235e-18
1.00243e-17
8.3803e-18
1.12121e-17
7.40257e-18
1.09097e-17
9.49883e-18
7.98939e-18
6.90518e-18
6.7674e-18
7.60434e-18
8.49211e-18
8.95627e-18
9.21141e-18
9.4262e-18
9.51258e-18
9.31926e-18
9.3786e-18
9.4017e-18
9.37017e-18
9.32059e-18
9.26684e-18
9.34603e-18
9.25404e-18
9.28519e-18
9.47582e-18
9.45472e-18
9.45101e-18
9.40997e-18
9.29785e-18
9.5461e-18
9.28567e-18
9.26713e-18
9.45247e-18
9.53884e-18
9.38561e-18
9.27543e-18
9.46357e-18
9.2794e-18
9.36376e-18
9.49666e-18
9.49402e-18
9.3836e-18
9.56816e-18
9.62561e-18
9.42529e-18
9.53439e-18
9.43492e-18
9.69982e-18
9.6769e-18
9.43288e-18
9.53444e-18
9.47495e-18
9.51331e-18
9.46313e-18
9.37059e-18
9.42008e-18
9.37865e-18
3.59212e-18
3.59033e-18
3.55472e-18
3.54628e-18
3.59166e-18
3.59062e-18
3.55748e-18
3.58795e-18
3.57518e-18
3.59528e-18
3.55213e-18
3.71881e-18
3.37043e-18
4.12256e-18
2.49756e-18
5.03091e-18
2.34964e-18
3.69824e-18
4.33078e-18
3.37531e-18
2.08667e-18
1.5881e-18
1.96491e-18
2.59219e-18
3.06638e-18
3.37695e-18
3.51647e-18
3.51523e-18
3.50946e-18
3.54328e-18
3.56928e-18
3.59551e-18
3.6077e-18
3.54002e-18
3.52535e-18
3.57617e-18
3.58487e-18
3.5196e-18
3.53443e-18
3.51536e-18
3.5132e-18
3.50051e-18
3.53156e-18
3.69921e-18
3.3761e-18
4.1659e-18
2.51924e-18
5.03234e-18
2.32792e-18
3.72888e-18
4.42217e-18
3.38515e-18
2.0768e-18
1.5679e-18
1.96855e-18
2.61666e-18
3.11091e-18
3.41591e-18
3.55422e-18
3.54229e-18
3.55411e-18
3.62164e-18
3.57515e-18
3.59499e-18
3.56845e-18
3.59118e-18
3.63354e-18
3.59164e-18
3.60464e-18
3.57652e-18
3.57185e-18
3.58151e-18
3.53348e-18
3.56162e-18
3.64451e-18
3.451e-18
3.92704e-18
3.00692e-18
4.3513e-18
2.8794e-18
3.65487e-18
4.08326e-18
3.46038e-18
2.67301e-18
2.37095e-18
2.66443e-18
3.02307e-18
3.31767e-18
3.47626e-18
3.53997e-18
3.58921e-18
3.61024e-18
3.59859e-18
3.62304e-18
3.60718e-18
3.57825e-18
3.58554e-18
3.5724e-18
3.55451e-18
3.54185e-18
3.53776e-18
3.56842e-18
3.58489e-18
3.60243e-18
3.59357e-18
3.55616e-18
3.55193e-18
3.52183e-18
3.57731e-18
3.58723e-18
3.59504e-18
3.53086e-18
3.65459e-18
3.57611e-18
3.54399e-18
3.60844e-18
3.57073e-18
3.56702e-18
3.55619e-18
3.56375e-18
3.51755e-18
3.61181e-18
3.49778e-18
3.89314e-18
3.04172e-18
4.38386e-18
2.83317e-18
3.74148e-18
4.07033e-18
3.428e-18
2.65212e-18
2.36726e-18
2.65108e-18
3.06196e-18
3.32084e-18
3.47072e-18
3.54792e-18
3.58652e-18
3.54616e-18
3.55108e-18
3.55981e-18
3.5655e-18
3.55268e-18
3.51236e-18
3.54646e-18
3.51105e-18
3.53263e-18
3.57731e-18
3.59526e-18
3.57717e-18
3.57179e-18
3.52728e-18
3.60325e-18
3.51525e-18
3.52597e-18
3.56521e-18
3.62022e-18
3.56786e-18
3.5357e-18
3.56461e-18
3.52111e-18
3.58061e-18
3.58407e-18
3.60652e-18
3.56011e-18
3.63341e-18
3.64582e-18
3.55635e-18
3.60347e-18
3.59468e-18
3.66563e-18
3.62451e-18
3.56981e-18
3.60473e-18
3.57241e-18
3.59244e-18
3.58647e-18
3.56688e-18
3.59272e-18
3.57704e-18
3.69701e-18
3.67375e-18
3.7008e-18
3.66744e-18
3.68117e-18
3.64461e-18
3.67971e-18
3.69268e-18
3.70649e-18
3.69945e-18
3.85981e-18
3.353e-18
4.63355e-18
1.9806e-18
6.23518e-18
1.13087e-18
5.03535e-18
4.2288e-18
2.25633e-18
5.2391e-19
1.68994e-19
1.01895e-18
2.13933e-18
2.9844e-18
3.46254e-18
3.64778e-18
3.66196e-18
3.64494e-18
3.69563e-18
3.70066e-18
3.67292e-18
3.71172e-18
3.66503e-18
3.65964e-18
3.70488e-18
3.6631e-18
3.70044e-18
3.67555e-18
3.69831e-18
3.70967e-18
3.63885e-18
3.65678e-18
3.92015e-18
3.32788e-18
4.60611e-18
1.92411e-18
6.26179e-18
1.09875e-18
4.98577e-18
4.21896e-18
2.30364e-18
5.18469e-19
1.90308e-19
1.0591e-18
2.21217e-18
2.97171e-18
3.42908e-18
3.65321e-18
3.7032e-18
3.69167e-18
3.73743e-18
3.6635e-18
3.71779e-18
3.72877e-18
3.73107e-18
3.73742e-18
3.73408e-18
3.71421e-18
3.7124e-18
3.66371e-18
3.73932e-18
3.69218e-18
3.65971e-18
3.69857e-18
3.57236e-18
4.06185e-18
3.09266e-18
4.53795e-18
3.0052e-18
3.79125e-18
4.26262e-18
3.58424e-18
2.78113e-18
2.49463e-18
2.73718e-18
3.17403e-18
3.4393e-18
3.60607e-18
3.63192e-18
3.71502e-18
3.66557e-18
3.69696e-18
3.66962e-18
3.65756e-18
3.65751e-18
3.69015e-18
3.69874e-18
3.65235e-18
3.73553e-18
3.712e-18
3.7689e-18
3.68975e-18
3.73653e-18
3.6736e-18
3.67854e-18
3.69556e-18
3.66024e-18
3.66951e-18
3.67442e-18
3.73978e-18
3.69089e-18
3.78771e-18
3.72419e-18
3.70896e-18
3.74516e-18
3.66218e-18
3.67697e-18
3.65916e-18
3.6974e-18
3.6447e-18
3.71541e-18
3.57338e-18
4.03415e-18
3.11702e-18
4.53224e-18
2.90249e-18
3.84977e-18
4.19353e-18
3.52859e-18
2.73176e-18
2.46011e-18
2.76064e-18
3.16375e-18
3.46008e-18
3.60905e-18
3.64854e-18
3.68724e-18
3.71318e-18
3.70397e-18
3.69995e-18
3.72027e-18
3.68363e-18
3.68011e-18
3.71733e-18
3.68313e-18
3.65645e-18
3.70384e-18
3.72954e-18
3.70926e-18
3.70966e-18
3.70183e-18
3.67293e-18
3.66235e-18
3.69188e-18
3.66898e-18
3.71975e-18
3.71679e-18
3.71062e-18
3.70418e-18
3.70988e-18
3.73717e-18
3.65937e-18
3.76164e-18
3.70532e-18
3.71791e-18
3.718e-18
3.66171e-18
3.72511e-18
3.75587e-18
3.73627e-18
3.70433e-18
3.71577e-18
3.69102e-18
3.6676e-18
3.69725e-18
3.75436e-18
3.73289e-18
3.74504e-18
3.74114e-18
1.01377e-17
1.00394e-17
1.01764e-17
1.00553e-17
1.00454e-17
9.99578e-18
1.00959e-17
1.0172e-17
1.01344e-17
1.02188e-17
1.03749e-17
9.62653e-18
1.17667e-17
7.23508e-18
1.50533e-17
3.94672e-18
1.66946e-17
3.31628e-18
3.1363e-18
2.4619e-18
3.2421e-18
5.34118e-18
7.56278e-18
9.08026e-18
9.89404e-18
1.01667e-17
1.01303e-17
1.00589e-17
1.02072e-17
1.01478e-17
1.00681e-17
1.01476e-17
1.00878e-17
1.0071e-17
1.01425e-17
1.00182e-17
1.02027e-17
1.00743e-17
1.01594e-17
1.02167e-17
1.00104e-17
1.00899e-17
1.05832e-17
9.53208e-18
1.16792e-17
6.9233e-18
1.50745e-17
3.94763e-18
1.65152e-17
3.37945e-18
3.22016e-18
2.4499e-18
3.41155e-18
5.54004e-18
7.68815e-18
8.87589e-18
9.66584e-18
1.00562e-17
1.01985e-17
1.01821e-17
1.02565e-17
9.99141e-18
1.02317e-17
1.02084e-17
1.02158e-17
1.01936e-17
1.02276e-17
1.01786e-17
1.01418e-17
1.00456e-17
1.02743e-17
1.01683e-17
1.00436e-17
1.00638e-17
9.90843e-18
1.07935e-17
8.8593e-18
1.21458e-17
8.04394e-18
1.13789e-17
1.04365e-17
8.65623e-18
7.56781e-18
7.4699e-18
8.10434e-18
9.23052e-18
9.68455e-18
9.94471e-18
9.95489e-18
1.01739e-17
9.9996e-18
1.01272e-17
9.96882e-18
9.9895e-18
1.00497e-17
1.00988e-17
1.01164e-17
1.00406e-17
1.03154e-17
1.01997e-17
1.03136e-17
1.01332e-17
1.02525e-17
9.99712e-18
1.01165e-17
1.01376e-17
1.01728e-17
1.00476e-17
1.00369e-17
1.02375e-17
1.01633e-17
1.03771e-17
1.01818e-17
1.02342e-17
1.02426e-17
1.00411e-17
1.00547e-17
1.00535e-17
1.0153e-17
1.00329e-17
1.01525e-17
9.80586e-18
1.08199e-17
8.90189e-18
1.20114e-17
7.87057e-18
1.15788e-17
1.02826e-17
8.59045e-18
7.32795e-18
7.26899e-18
8.15014e-18
9.03182e-18
9.69811e-18
9.93368e-18
1.00326e-17
1.00875e-17
1.018e-17
1.01755e-17
1.0176e-17
1.01984e-17
1.01026e-17
1.01251e-17
1.02374e-17
1.01736e-17
1.00426e-17
1.01308e-17
1.0291e-17
1.01671e-17
1.0223e-17
1.02296e-17
9.99668e-18
1.01403e-17
1.01186e-17
9.9997e-18
1.01539e-17
1.02003e-17
1.01639e-17
1.01561e-17
1.02237e-17
1.02187e-17
1.00447e-17
1.03247e-17
1.01977e-17
1.02014e-17
1.01387e-17
1.0046e-17
1.02367e-17
1.03034e-17
1.0202e-17
1.01122e-17
1.01979e-17
1.01643e-17
1.00585e-17
1.01281e-17
1.02361e-17
1.02397e-17
1.02811e-17
1.02798e-17
2.72047e-17
2.76114e-17
2.74728e-17
2.72358e-17
2.74008e-17
2.75054e-17
2.78259e-17
2.78526e-17
2.80643e-17
2.79555e-17
2.71473e-17
2.95578e-17
2.47398e-17
3.29134e-17
2.1145e-17
3.45051e-17
2.13077e-17
2.08239e-17
1.93714e-17
1.97322e-17
2.2205e-17
2.50116e-17
2.68045e-17
2.754e-17
2.7966e-17
2.79264e-17
2.78205e-17
2.79984e-17
2.75812e-17
2.75666e-17
2.77533e-17
2.78283e-17
2.74972e-17
2.75456e-17
2.73625e-17
2.78115e-17
2.74134e-17
2.77455e-17
2.79356e-17
2.73978e-17
2.77704e-17
2.79827e-17
2.70529e-17
2.93429e-17
2.37584e-17
3.30617e-17
2.12246e-17
3.44768e-17
2.10067e-17
2.05807e-17
1.93638e-17
2.05097e-17
2.27575e-17
2.505e-17
2.59893e-17
2.69968e-17
2.72518e-17
2.77826e-17
2.80114e-17
2.80756e-17
2.72875e-17
2.80456e-17
2.76176e-17
2.79267e-17
2.78329e-17
2.74624e-17
2.79312e-17
2.76301e-17
2.74241e-17
2.8193e-17
2.78114e-17
2.73411e-17
2.74061e-17
2.74262e-17
2.83671e-17
2.5148e-17
3.1458e-17
2.25584e-17
3.27919e-17
2.11023e-17
2.1478e-17
2.20252e-17
2.27029e-17
2.38687e-17
2.6505e-17
2.70201e-17
2.72117e-17
2.72424e-17
2.76818e-17
2.72993e-17
2.75472e-17
2.7232e-17
2.74689e-17
2.76173e-17
2.73979e-17
2.76341e-17
2.74042e-17
2.79898e-17
2.79864e-17
2.76899e-17
2.76855e-17
2.7744e-17
2.72014e-17
2.76856e-17
2.7594e-17
2.81691e-17
2.74569e-17
2.74296e-17
2.75439e-17
2.75858e-17
2.82443e-17
2.75669e-17
2.79931e-17
2.77977e-17
2.74421e-17
2.74812e-17
2.74822e-17
2.76497e-17
2.74724e-17
2.7616e-17
2.69912e-17
2.86955e-17
2.56543e-17
3.11627e-17
2.25958e-17
3.32561e-17
2.0956e-17
2.15056e-17
2.11556e-17
2.21755e-17
2.41377e-17
2.5765e-17
2.69713e-17
2.69745e-17
2.764e-17
2.76291e-17
2.76346e-17
2.76954e-17
2.76451e-17
2.80195e-17
2.75734e-17
2.74674e-17
2.77744e-17
2.76709e-17
2.73669e-17
2.73437e-17
2.80532e-17
2.76502e-17
2.80006e-17
2.78208e-17
2.72162e-17
2.77822e-17
2.74105e-17
2.71899e-17
2.75496e-17
2.77169e-17
2.76646e-17
2.76434e-17
2.78437e-17
2.79356e-17
2.76393e-17
2.80068e-17
2.78319e-17
2.78659e-17
2.77131e-17
2.73543e-17
2.80605e-17
2.77919e-17
2.76532e-17
2.74947e-17
2.78116e-17
2.7945e-17
2.7573e-17
2.75908e-17
2.77182e-17
2.78839e-17
2.81164e-17
2.81603e-17
1.94551e-17
1.928e-17
1.91115e-17
1.91964e-17
1.94461e-17
1.94024e-17
1.92593e-17
1.93967e-17
1.96157e-17
1.87058e-17
2.09658e-17
1.66529e-17
2.35323e-17
1.49168e-17
2.19699e-17
2.00184e-17
1.66085e-17
1.37436e-17
1.34584e-17
1.48506e-17
1.68229e-17
1.82418e-17
1.91786e-17
1.94744e-17
1.9364e-17
1.91247e-17
1.92973e-17
1.9283e-17
1.92677e-17
1.94777e-17
1.93164e-17
1.93024e-17
1.93685e-17
1.91805e-17
1.93919e-17
1.93094e-17
1.93828e-17
1.95086e-17
1.92357e-17
1.91596e-17
1.97286e-17
1.88397e-17
2.08042e-17
1.63263e-17
2.36735e-17
1.48766e-17
2.21389e-17
1.98121e-17
1.6463e-17
1.37276e-17
1.34831e-17
1.50117e-17
1.68155e-17
1.80855e-17
1.88607e-17
1.92568e-17
1.94897e-17
1.9396e-17
1.94022e-17
1.92469e-17
1.95146e-17
1.93082e-17
1.93055e-17
1.93444e-17
1.93337e-17
1.9293e-17
1.9195e-17
1.92007e-17
1.95165e-17
1.94268e-17
1.91496e-17
1.93117e-17
1.89092e-17
2.05479e-17
1.68569e-17
2.311e-17
1.52364e-17
2.1882e-17
1.97394e-17
1.64227e-17
1.43652e-17
1.43097e-17
1.55264e-17
1.73694e-17
1.82235e-17
1.89561e-17
1.90591e-17
1.92836e-17
1.90875e-17
1.92474e-17
1.90502e-17
1.91538e-17
1.93257e-17
1.93635e-17
1.93759e-17
1.91618e-17
1.94892e-17
1.93755e-17
1.95344e-17
1.92632e-17
1.94494e-17
1.90923e-17
1.93612e-17
1.92126e-17
1.93135e-17
1.91393e-17
1.92033e-17
1.94931e-17
1.92854e-17
1.95849e-17
1.93182e-17
1.96718e-17
1.9384e-17
1.92785e-17
1.9209e-17
1.91527e-17
1.93394e-17
1.92025e-17
1.95122e-17
1.89293e-17
2.05761e-17
1.69426e-17
2.30401e-17
1.50063e-17
2.21368e-17
1.94473e-17
1.6271e-17
1.40785e-17
1.40788e-17
1.56015e-17
1.72559e-17
1.85011e-17
1.8885e-17
1.92326e-17
1.92008e-17
1.93942e-17
1.93602e-17
1.94393e-17
1.94754e-17
1.93525e-17
1.94698e-17
1.93097e-17
1.94523e-17
1.93008e-17
1.93702e-17
1.94749e-17
1.93417e-17
1.93251e-17
1.93895e-17
1.91082e-17
1.94298e-17
1.93703e-17
1.92417e-17
1.93192e-17
1.93822e-17
1.93075e-17
1.92588e-17
1.93885e-17
1.91527e-17
1.92001e-17
1.95687e-17
1.94068e-17
1.94306e-17
1.94598e-17
1.91648e-17
1.94442e-17
1.95625e-17
1.9341e-17
1.91796e-17
1.94373e-17
1.94194e-17
1.91783e-17
1.93755e-17
1.94874e-17
1.9343e-17
1.96137e-17
1.94695e-17
3.10353e-17
3.09159e-17
3.10585e-17
3.13754e-17
3.11235e-17
3.08557e-17
3.14105e-17
3.13922e-17
3.04391e-17
3.28329e-17
2.8155e-17
3.5539e-17
2.51399e-17
3.62105e-17
2.49968e-17
2.51083e-17
2.42119e-17
2.48792e-17
2.6471e-17
2.84492e-17
2.96176e-17
3.07898e-17
3.14918e-17
3.12451e-17
3.10728e-17
3.07541e-17
3.08979e-17
3.11644e-17
3.14668e-17
3.10043e-17
3.11496e-17
3.10638e-17
3.10954e-17
3.13042e-17
3.11863e-17
3.13727e-17
3.14177e-17
3.107e-17
3.08449e-17
3.12464e-17
3.07952e-17
3.24761e-17
2.81194e-17
3.58356e-17
2.57439e-17
3.67444e-17
2.49505e-17
2.51654e-17
2.42535e-17
2.48755e-17
2.66079e-17
2.82581e-17
2.97366e-17
3.06315e-17
3.12891e-17
3.14382e-17
3.14563e-17
3.09112e-17
3.12179e-17
3.14048e-17
3.09495e-17
3.07465e-17
3.11645e-17
3.06212e-17
3.09899e-17
3.06724e-17
3.13853e-17
3.11744e-17
3.11645e-17
3.09767e-17
3.12629e-17
3.05437e-17
3.29448e-17
2.78166e-17
3.59111e-17
2.54571e-17
3.67742e-17
2.52602e-17
2.48181e-17
2.4459e-17
2.46583e-17
2.64183e-17
2.84086e-17
2.93433e-17
3.07101e-17
3.09391e-17
3.09348e-17
3.07269e-17
3.10558e-17
3.08907e-17
3.07421e-17
3.13303e-17
3.1529e-17
3.12858e-17
3.05422e-17
3.11946e-17
3.11737e-17
3.10768e-17
3.1037e-17
3.11071e-17
3.06333e-17
3.11175e-17
3.0905e-17
3.07195e-17
3.08437e-17
3.10287e-17
3.14932e-17
3.09753e-17
3.12178e-17
3.07109e-17
3.19577e-17
3.07643e-17
3.14004e-17
3.09797e-17
3.09307e-17
3.14928e-17
3.10043e-17
3.16667e-17
3.08925e-17
3.26212e-17
2.8534e-17
3.59014e-17
2.5466e-17
3.67226e-17
2.46689e-17
2.51493e-17
2.43373e-17
2.46411e-17
2.67286e-17
2.85685e-17
3.00562e-17
3.05365e-17
3.13112e-17
3.07501e-17
3.07268e-17
3.08752e-17
3.08437e-17
3.14504e-17
3.11343e-17
3.14858e-17
3.07486e-17
3.12798e-17
3.11686e-17
3.11588e-17
3.09798e-17
3.07974e-17
3.09316e-17
3.11176e-17
3.08363e-17
3.11901e-17
3.10823e-17
3.12079e-17
3.10689e-17
3.09655e-17
3.11859e-17
3.08719e-17
3.1443e-17
3.05393e-17
3.10652e-17
3.11811e-17
3.12688e-17
3.08684e-17
3.17232e-17
3.07841e-17
3.09459e-17
3.12611e-17
3.08306e-17
3.05404e-17
3.13458e-17
3.13965e-17
3.08948e-17
3.12079e-17
3.09936e-17
3.09159e-17
3.16102e-17
3.10479e-17
2.2719e-17
2.24978e-17
2.25625e-17
2.28172e-17
2.26969e-17
2.24601e-17
2.25985e-17
2.28805e-17
2.17295e-17
2.43114e-17
1.95614e-17
2.71167e-17
1.80443e-17
2.48951e-17
2.32078e-17
1.98516e-17
1.66689e-17
1.66158e-17
1.78371e-17
1.97509e-17
2.14448e-17
2.22271e-17
2.26652e-17
2.25636e-17
2.24309e-17
2.26177e-17
2.2428e-17
2.26513e-17
2.29462e-17
2.26821e-17
2.28157e-17
2.27337e-17
2.26513e-17
2.26651e-17
2.27933e-17
2.27178e-17
2.27646e-17
2.2736e-17
2.24798e-17
2.289e-17
2.21069e-17
2.41512e-17
1.97045e-17
2.72272e-17
1.81023e-17
2.54001e-17
2.32035e-17
1.98484e-17
1.68451e-17
1.65754e-17
1.80379e-17
1.98539e-17
2.13844e-17
2.21081e-17
2.26732e-17
2.2914e-17
2.28793e-17
2.26767e-17
2.27605e-17
2.27294e-17
2.25227e-17
2.25022e-17
2.26768e-17
2.23678e-17
2.25932e-17
2.24687e-17
2.24864e-17
2.25719e-17
2.26086e-17
2.2453e-17
2.29409e-17
2.19401e-17
2.41913e-17
1.96837e-17
2.70868e-17
1.7856e-17
2.54115e-17
2.33473e-17
1.9797e-17
1.6763e-17
1.65526e-17
1.80463e-17
2.00407e-17
2.10634e-17
2.22309e-17
2.23586e-17
2.24752e-17
2.23647e-17
2.24002e-17
2.24802e-17
2.26721e-17
2.29072e-17
2.25805e-17
2.27525e-17
2.24636e-17
2.24465e-17
2.24957e-17
2.26361e-17
2.25033e-17
2.25915e-17
2.24464e-17
2.25292e-17
2.25584e-17
2.2626e-17
2.27275e-17
2.27393e-17
2.26857e-17
2.25617e-17
2.26542e-17
2.2573e-17
2.28037e-17
2.26644e-17
2.25305e-17
2.25396e-17
2.26982e-17
2.2605e-17
2.23221e-17
2.29633e-17
2.21871e-17
2.3833e-17
1.96106e-17
2.7142e-17
1.75336e-17
2.55447e-17
2.3296e-17
1.94858e-17
1.66227e-17
1.64115e-17
1.8139e-17
2.01744e-17
2.16711e-17
2.22329e-17
2.26283e-17
2.2505e-17
2.26589e-17
2.25091e-17
2.26176e-17
2.27586e-17
2.26503e-17
2.26593e-17
2.25276e-17
2.26105e-17
2.26527e-17
2.28173e-17
2.25423e-17
2.25768e-17
2.26583e-17
2.26874e-17
2.273e-17
2.27358e-17
2.27182e-17
2.26368e-17
2.26163e-17
2.26572e-17
2.27242e-17
2.25337e-17
2.24283e-17
2.22208e-17
2.25783e-17
2.25495e-17
2.25976e-17
2.26587e-17
2.27082e-17
2.24282e-17
2.27864e-17
2.27299e-17
2.25911e-17
2.25023e-17
2.26616e-17
2.24521e-17
2.24459e-17
2.26463e-17
2.28555e-17
2.25391e-17
2.29648e-17
2.27939e-17
3.95576e-17
3.96156e-17
3.93782e-17
3.95787e-17
3.93918e-17
3.99442e-17
3.9786e-17
3.82228e-17
4.17769e-17
3.54486e-17
4.57349e-17
3.25321e-17
4.58676e-17
3.34422e-17
3.2084e-17
3.00519e-17
3.14524e-17
3.30948e-17
3.58459e-17
3.84871e-17
3.87349e-17
3.93885e-17
3.95062e-17
3.94437e-17
3.99173e-17
3.89188e-17
3.9715e-17
4.00543e-17
3.96343e-17
3.9798e-17
3.98301e-17
3.97765e-17
3.96722e-17
3.98837e-17
3.96023e-17
4.00044e-17
3.98354e-17
3.95614e-17
3.98063e-17
3.88815e-17
4.1495e-17
3.57996e-17
4.572e-17
3.24347e-17
4.6205e-17
3.31578e-17
3.25476e-17
3.04855e-17
3.15698e-17
3.36429e-17
3.65108e-17
3.79105e-17
3.87823e-17
4.00238e-17
4.01893e-17
4.06335e-17
3.98861e-17
3.99698e-17
3.96435e-17
3.93215e-17
3.94552e-17
3.97889e-17
3.9149e-17
3.96786e-17
3.94713e-17
3.94862e-17
3.95383e-17
3.9713e-17
3.96652e-17
4.03427e-17
3.83292e-17
4.17298e-17
3.58754e-17
4.56498e-17
3.2305e-17
4.66038e-17
3.32675e-17
3.22473e-17
3.03423e-17
3.1758e-17
3.3741e-17
3.65791e-17
3.76255e-17
3.92598e-17
3.94766e-17
3.95101e-17
3.91446e-17
3.8938e-17
3.93886e-17
3.99722e-17
4.03076e-17
3.92812e-17
3.99585e-17
3.90475e-17
3.88426e-17
3.91163e-17