/*--------------------------------*- C++ -*----------------------------------*\
| =========                 |                                                 |
| \\      /  F ield         | OpenFOAM: The Open Source CFD Toolbox           |
|  \\    /   O peration     | Version:  2512                                  |
|   \\  /    A nd           | Website:  www.openfoam.com                      |
|    \\/     M anipulation  |                                                 |
\*---------------------------------------------------------------------------*/
FoamFile
{
    version     2.0;
    format      ascii;
    arch        "LSB;label=32;scalar=64";
    class       volScalarField;
    location    "0.003";
    object      alphat;
}
// * * * * * * * * * * * * * * * * * * * * * * * * * * * * * * * * * * * * * //

dimensions      [1 -1 -1 0 0 0 0];

internalField   nonuniform List<scalar> 
100000
(
1.33722e-07
2.61525e-08
1.07221e-08
5.8566e-09
3.81612e-09
2.80751e-09
2.25178e-09
1.92164e-09
1.7126e-09
1.57239e-09
1.4734e-09
1.40036e-09
1.3444e-09
1.30021e-09
1.26445e-09
1.23494e-09
1.21022e-09
1.18927e-09
1.17135e-09
1.15589e-09
1.14247e-09
1.13078e-09
1.12053e-09
1.11154e-09
1.10361e-09
1.09662e-09
1.09043e-09
1.08497e-09
1.08013e-09
1.07586e-09
1.07209e-09
1.06876e-09
1.06584e-09
1.06328e-09
1.06104e-09
1.05911e-09
1.05745e-09
1.05603e-09
1.05485e-09
1.05387e-09
1.05308e-09
1.05246e-09
1.05201e-09
1.0517e-09
1.05153e-09
1.05149e-09
1.05156e-09
1.05174e-09
1.05202e-09
1.0524e-09
1.05286e-09
1.0534e-09
1.05402e-09
1.05471e-09
1.05547e-09
1.05629e-09
1.05716e-09
1.0581e-09
1.05908e-09
1.06011e-09
1.06118e-09
1.0623e-09
1.06346e-09
1.06465e-09
1.06589e-09
1.06715e-09
1.06844e-09
1.06976e-09
1.07111e-09
1.07248e-09
1.07386e-09
1.07526e-09
1.07667e-09
1.07808e-09
1.07949e-09
1.0809e-09
1.08231e-09
1.0837e-09
1.08509e-09
1.08648e-09
1.08786e-09
1.08924e-09
1.09061e-09
1.09198e-09
1.09336e-09
1.09473e-09
1.0961e-09
1.09748e-09
1.09886e-09
1.10024e-09
1.10162e-09
1.10301e-09
1.1044e-09
1.10579e-09
1.10719e-09
1.1086e-09
1.11e-09
1.11141e-09
1.11283e-09
1.11425e-09
1.11568e-09
1.11711e-09
1.11855e-09
1.11999e-09
1.12144e-09
1.12289e-09
1.12436e-09
1.12583e-09
1.1273e-09
1.12878e-09
1.13027e-09
1.13176e-09
1.13326e-09
1.13475e-09
1.13625e-09
1.13775e-09
1.13925e-09
1.14074e-09
1.14223e-09
1.14372e-09
1.14521e-09
1.1467e-09
1.14818e-09
1.14967e-09
1.15115e-09
1.15264e-09
1.15413e-09
1.15562e-09
1.15711e-09
1.1586e-09
1.1601e-09
1.16159e-09
1.16309e-09
1.1646e-09
1.1661e-09
1.16761e-09
1.16913e-09
1.17065e-09
1.17217e-09
1.1737e-09
1.17523e-09
1.17676e-09
1.17831e-09
1.17985e-09
1.1814e-09
1.18296e-09
1.18451e-09
1.18608e-09
1.18764e-09
1.18921e-09
1.19078e-09
1.19236e-09
1.19394e-09
1.19552e-09
1.1971e-09
1.19868e-09
1.20027e-09
1.20186e-09
1.20345e-09
1.20505e-09
1.20665e-09
1.20825e-09
1.20986e-09
1.21147e-09
1.21308e-09
1.21469e-09
1.21631e-09
1.21794e-09
1.21956e-09
1.22119e-09
1.22283e-09
1.22447e-09
1.22611e-09
1.22776e-09
1.22941e-09
1.23106e-09
1.23272e-09
1.23438e-09
1.23605e-09
1.23772e-09
1.2394e-09
1.24107e-09
1.24276e-09
1.24444e-09
1.24613e-09
1.24782e-09
1.24951e-09
1.25121e-09
1.25291e-09
1.25461e-09
1.25632e-09
1.25803e-09
1.25975e-09
1.26147e-09
1.2632e-09
1.26493e-09
1.26666e-09
1.2684e-09
1.27015e-09
1.2719e-09
1.27366e-09
1.27542e-09
1.27718e-09
1.27895e-09
1.28072e-09
1.2825e-09
1.28429e-09
1.28608e-09
1.28787e-09
1.28967e-09
1.29147e-09
1.29327e-09
1.29508e-09
1.29689e-09
1.29871e-09
1.30053e-09
1.30236e-09
1.30419e-09
1.30602e-09
1.30786e-09
1.3097e-09
1.31155e-09
1.3134e-09
1.31526e-09
1.31712e-09
1.31898e-09
1.32085e-09
1.32272e-09
1.3246e-09
1.32649e-09
1.32838e-09
1.33027e-09
1.33217e-09
1.33407e-09
1.33598e-09
1.33789e-09
1.33981e-09
1.34174e-09
1.34367e-09
1.3456e-09
1.34754e-09
1.34949e-09
1.35144e-09
1.35339e-09
1.35535e-09
1.35732e-09
1.35929e-09
1.36126e-09
1.36324e-09
1.36523e-09
1.36722e-09
1.36922e-09
1.37122e-09
1.37323e-09
1.37524e-09
1.37726e-09
1.37929e-09
1.38132e-09
1.38335e-09
1.38539e-09
1.38744e-09
1.38949e-09
1.39155e-09
1.39361e-09
1.39568e-09
1.39775e-09
1.39983e-09
1.40192e-09
1.40401e-09
1.4061e-09
1.40821e-09
1.41031e-09
1.41243e-09
1.41455e-09
1.41667e-09
1.4188e-09
1.42094e-09
1.42308e-09
1.42523e-09
1.42738e-09
1.42954e-09
1.43171e-09
1.43388e-09
1.43606e-09
1.43824e-09
1.44043e-09
1.44262e-09
1.44483e-09
1.44703e-09
1.44925e-09
1.45147e-09
1.45369e-09
1.45592e-09
1.45816e-09
1.46041e-09
1.46266e-09
1.46491e-09
1.46718e-09
1.46945e-09
1.47172e-09
1.474e-09
1.47629e-09
1.47858e-09
1.48088e-09
1.48319e-09
1.4855e-09
1.48782e-09
1.49015e-09
1.49248e-09
1.49482e-09
1.49717e-09
1.49952e-09
1.50188e-09
1.50424e-09
1.50661e-09
1.50899e-09
1.51138e-09
1.51377e-09
1.51617e-09
1.51857e-09
1.52098e-09
1.5234e-09
1.52583e-09
1.52826e-09
1.5307e-09
1.53314e-09
1.5356e-09
1.53806e-09
1.54052e-09
1.543e-09
1.54548e-09
1.54796e-09
1.55046e-09
1.55296e-09
1.55547e-09
1.55798e-09
1.5605e-09
1.56303e-09
1.56557e-09
1.56811e-09
1.57067e-09
1.57322e-09
1.57579e-09
1.57836e-09
1.58094e-09
1.58353e-09
1.58612e-09
1.58873e-09
1.59133e-09
1.59395e-09
1.59658e-09
1.59921e-09
1.60185e-09
1.60449e-09
1.60715e-09
1.60981e-09
1.61248e-09
1.61515e-09
1.61784e-09
1.62053e-09
1.62323e-09
1.62594e-09
1.62865e-09
1.63137e-09
1.6341e-09
1.63684e-09
1.63959e-09
1.64234e-09
1.6451e-09
1.64787e-09
1.65065e-09
1.65344e-09
1.65623e-09
1.65903e-09
1.66184e-09
1.66466e-09
1.66748e-09
1.67031e-09
1.67315e-09
1.676e-09
1.67886e-09
1.68173e-09
1.6846e-09
1.68748e-09
1.69037e-09
1.69327e-09
1.69618e-09
1.69909e-09
1.70202e-09
1.70495e-09
1.70789e-09
1.71083e-09
1.71379e-09
1.71676e-09
1.71973e-09
1.72271e-09
1.7257e-09
1.7287e-09
1.73171e-09
1.73472e-09
1.73775e-09
1.74078e-09
1.74382e-09
1.74687e-09
1.74993e-09
1.753e-09
1.75608e-09
1.75916e-09
1.76226e-09
1.76536e-09
1.76847e-09
1.77159e-09
1.77472e-09
1.77786e-09
1.78101e-09
1.78416e-09
1.78733e-09
1.7905e-09
1.79368e-09
1.79688e-09
1.80008e-09
1.80329e-09
1.80651e-09
1.80974e-09
1.81297e-09
1.81622e-09
1.81948e-09
1.82274e-09
1.82602e-09
1.8293e-09
1.83259e-09
1.83589e-09
1.83921e-09
1.84253e-09
1.84586e-09
1.8492e-09
1.85255e-09
1.8559e-09
1.85927e-09
1.86265e-09
1.86604e-09
1.86943e-09
1.87284e-09
1.87626e-09
1.87968e-09
1.88312e-09
1.88656e-09
1.89001e-09
1.89348e-09
1.89695e-09
1.90044e-09
1.90393e-09
1.90743e-09
1.91094e-09
1.91447e-09
1.918e-09
1.92154e-09
1.9251e-09
1.92866e-09
1.93223e-09
1.93581e-09
1.9394e-09
1.94301e-09
1.94662e-09
1.95024e-09
1.95387e-09
1.95752e-09
1.96117e-09
1.96483e-09
1.9685e-09
1.97219e-09
1.97588e-09
1.97959e-09
1.9833e-09
1.98702e-09
1.99076e-09
1.9945e-09
1.99826e-09
2.00202e-09
2.0058e-09
2.00959e-09
2.01338e-09
2.01719e-09
2.02101e-09
2.02484e-09
2.02868e-09
2.03253e-09
2.03639e-09
2.04026e-09
2.04414e-09
2.04803e-09
2.05193e-09
2.05585e-09
2.05977e-09
2.06371e-09
2.06765e-09
2.07161e-09
2.07558e-09
2.07955e-09
2.08354e-09
2.08754e-09
2.09155e-09
2.09558e-09
2.09961e-09
2.10365e-09
2.10771e-09
2.11177e-09
2.11585e-09
2.11994e-09
2.12404e-09
2.12815e-09
2.13227e-09
2.1364e-09
2.14054e-09
2.1447e-09
2.14886e-09
2.15304e-09
2.15723e-09
2.16143e-09
2.16564e-09
2.16986e-09
2.17409e-09
2.17834e-09
2.18259e-09
2.18686e-09
2.19114e-09
2.19543e-09
2.19973e-09
2.20404e-09
2.20837e-09
2.2127e-09
2.21705e-09
2.22141e-09
2.22578e-09
2.23016e-09
2.23456e-09
2.23896e-09
2.24338e-09
2.24781e-09
2.25225e-09
2.2567e-09
2.26117e-09
2.26564e-09
2.27013e-09
2.27463e-09
2.27914e-09
2.28366e-09
2.2882e-09
2.29275e-09
2.2973e-09
2.30188e-09
2.30646e-09
2.31105e-09
2.31566e-09
2.32028e-09
2.32491e-09
2.32955e-09
2.33421e-09
2.33887e-09
2.34355e-09
2.34824e-09
2.35295e-09
2.35766e-09
2.36239e-09
2.36713e-09
2.37188e-09
2.37664e-09
2.38142e-09
2.38621e-09
2.39101e-09
2.39582e-09
2.40065e-09
2.40548e-09
2.41034e-09
2.4152e-09
2.42007e-09
2.42496e-09
2.42986e-09
2.43477e-09
2.4397e-09
2.44463e-09
2.44958e-09
2.45455e-09
2.45952e-09
2.46451e-09
2.46951e-09
2.47452e-09
2.47954e-09
2.48458e-09
2.48963e-09
2.4947e-09
2.49977e-09
2.50486e-09
2.50996e-09
2.51507e-09
2.5202e-09
2.52534e-09
2.53049e-09
2.53566e-09
2.54083e-09
2.54602e-09
2.55123e-09
2.55644e-09
2.56167e-09
2.56691e-09
2.57217e-09
2.57744e-09
2.58272e-09
2.58801e-09
2.59332e-09
2.59864e-09
2.60397e-09
2.60932e-09
2.61468e-09
2.62005e-09
2.62543e-09
2.63083e-09
2.63624e-09
2.64166e-09
2.6471e-09
2.65255e-09
2.65802e-09
2.66349e-09
2.66898e-09
2.67449e-09
2.68e-09
2.68553e-09
2.69107e-09
2.69663e-09
2.7022e-09
2.70778e-09
2.71338e-09
2.71899e-09
2.72461e-09
2.73025e-09
2.73589e-09
2.74156e-09
2.74723e-09
2.75292e-09
2.75863e-09
2.76434e-09
2.77007e-09
2.77581e-09
2.78157e-09
2.78734e-09
2.79313e-09
2.79892e-09
2.80473e-09
2.81056e-09
2.81639e-09
2.82225e-09
2.82811e-09
2.83399e-09
2.83988e-09
2.84579e-09
2.85171e-09
2.85764e-09
2.86358e-09
2.86954e-09
2.87552e-09
2.88151e-09
2.88751e-09
2.89352e-09
2.89955e-09
2.90559e-09
2.91165e-09
2.91772e-09
2.9238e-09
2.9299e-09
2.93601e-09
2.94213e-09
2.94827e-09
2.95442e-09
2.96059e-09
2.96677e-09
2.97296e-09
2.97917e-09
2.98539e-09
2.99163e-09
2.99788e-09
3.00414e-09
3.01042e-09
3.01671e-09
3.02301e-09
3.02933e-09
3.03566e-09
3.04201e-09
3.04837e-09
3.05474e-09
3.06113e-09
3.06753e-09
3.07395e-09
3.08038e-09
3.08682e-09
3.09328e-09
3.09975e-09
3.10624e-09
3.11274e-09
3.11925e-09
3.12578e-09
3.13233e-09
3.13888e-09
3.14545e-09
3.15204e-09
3.15863e-09
3.16525e-09
3.17187e-09
3.17851e-09
3.18517e-09
3.19184e-09
3.19852e-09
3.20522e-09
3.21193e-09
3.21865e-09
3.22539e-09
3.23215e-09
3.23891e-09
3.2457e-09
3.25249e-09
3.2593e-09
3.26613e-09
3.27297e-09
3.27982e-09
3.28668e-09
3.29357e-09
3.30046e-09
3.30737e-09
3.31429e-09
3.32123e-09
3.32818e-09
3.33515e-09
3.34213e-09
3.34912e-09
3.35613e-09
3.36315e-09
3.37019e-09
3.37724e-09
3.38431e-09
3.39139e-09
3.39848e-09
3.40559e-09
3.41271e-09
3.41985e-09
3.427e-09
3.43416e-09
3.44134e-09
3.44854e-09
3.45574e-09
3.46297e-09
3.4702e-09
3.47745e-09
3.48472e-09
3.49199e-09
3.49929e-09
3.5066e-09
3.51392e-09
3.52125e-09
3.5286e-09
3.53597e-09
3.54334e-09
3.55074e-09
3.55814e-09
3.56557e-09
3.573e-09
3.58045e-09
3.58791e-09
3.59539e-09
3.60288e-09
3.61039e-09
3.61791e-09
3.62545e-09
3.633e-09
3.64056e-09
3.64814e-09
3.65573e-09
3.66333e-09
3.67095e-09
3.67859e-09
3.68624e-09
3.6939e-09
3.70158e-09
3.70927e-09
3.71697e-09
3.72469e-09
3.73243e-09
3.74018e-09
3.74794e-09
3.75571e-09
3.7635e-09
3.77131e-09
3.77913e-09
3.78696e-09
3.79481e-09
3.80267e-09
3.81054e-09
3.81843e-09
3.82634e-09
3.83426e-09
3.84219e-09
3.85013e-09
3.85809e-09
3.86607e-09
3.87406e-09
3.88206e-09
3.89007e-09
3.8981e-09
3.90615e-09
3.91421e-09
3.92228e-09
3.93037e-09
3.93847e-09
3.94658e-09
3.95471e-09
3.96285e-09
3.97101e-09
3.97918e-09
3.98737e-09
3.99557e-09
4.00378e-09
4.012e-09
4.02025e-09
4.0285e-09
4.03677e-09
4.04505e-09
4.05335e-09
4.06166e-09
4.06998e-09
4.07832e-09
4.08667e-09
4.09504e-09
4.10342e-09
4.11181e-09
4.12022e-09
4.12864e-09
4.13707e-09
4.14552e-09
4.15398e-09
4.16246e-09
4.17095e-09
4.17945e-09
4.18797e-09
4.1965e-09
4.20505e-09
4.21361e-09
4.22218e-09
4.23076e-09
4.23936e-09
4.24798e-09
4.2566e-09
4.26524e-09
4.2739e-09
4.28257e-09
4.29125e-09
4.29994e-09
4.30865e-09
4.31737e-09
4.32611e-09
4.33486e-09
4.34362e-09
4.3524e-09
4.36119e-09
4.36999e-09
4.37881e-09
4.38764e-09
4.39648e-09
4.40534e-09
4.41421e-09
4.42309e-09
4.43199e-09
4.4409e-09
4.44982e-09
4.45876e-09
4.46771e-09
4.47667e-09
4.48565e-09
4.49464e-09
4.50364e-09
4.51266e-09
4.52169e-09
4.53073e-09
4.53979e-09
4.54885e-09
4.55794e-09
4.56703e-09
4.57614e-09
4.58526e-09
4.5944e-09
4.60355e-09
4.61271e-09
4.62188e-09
4.63107e-09
4.64027e-09
4.64948e-09
4.65871e-09
4.66795e-09
4.6772e-09
4.68647e-09
4.69574e-09
4.70503e-09
4.71434e-09
4.72366e-09
4.73299e-09
4.74233e-09
4.75169e-09
4.76105e-09
4.77044e-09
4.77983e-09
4.78924e-09
4.79866e-09
4.80809e-09
4.81754e-09
4.827e-09
4.83647e-09
4.84596e-09
4.85546e-09
4.86497e-09
4.87449e-09
4.88403e-09
4.89358e-09
4.90315e-09
4.91272e-09
4.92231e-09
4.93192e-09
4.94153e-09
4.95116e-09
4.96081e-09
4.97046e-09
4.98013e-09
4.98982e-09
4.99952e-09
5.00923e-09
5.01895e-09
5.02869e-09
5.03845e-09
5.04821e-09
5.05799e-09
5.06779e-09
5.0776e-09
5.08743e-09
5.09727e-09
5.10712e-09
5.11699e-09
5.12688e-09
5.13678e-09
5.1467e-09
5.15663e-09
5.16658e-09
5.17655e-09
5.18653e-09
5.19654e-09
5.20656e-09
5.2166e-09
5.22665e-09
5.23673e-09
5.24683e-09
5.25694e-09
5.26708e-09
5.27724e-09
5.28743e-09
5.29763e-09
5.30786e-09
5.31812e-09
5.3284e-09
5.33871e-09
5.34904e-09
5.35941e-09
5.3698e-09
5.38023e-09
5.39069e-09
5.40119e-09
5.41172e-09
5.42229e-09
5.4329e-09
5.44356e-09
5.45426e-09
5.46501e-09
5.4758e-09
5.48666e-09
5.49756e-09
5.50853e-09
5.51956e-09
5.53066e-09
5.54183e-09
5.55308e-09
5.5644e-09
5.57581e-09
5.58731e-09
5.5989e-09
5.61058e-09
5.62237e-09
5.63426e-09
5.64625e-09
5.65835e-09
5.67058e-09
5.68295e-09
5.69552e-09
5.70832e-09
5.72161e-09
5.73727e-09
5.7572e-09
2.46481e-06
4.02622e-07
1.09899e-07
4.64138e-08
2.81745e-08
2.17041e-08
1.90727e-08
1.79082e-08
1.73617e-08
1.7091e-08
1.69479e-08
1.68657e-08
1.68136e-08
1.67771e-08
1.67495e-08
1.67274e-08
1.6709e-08
1.66933e-08
1.66798e-08
1.6668e-08
1.66577e-08
1.66486e-08
1.66405e-08
1.66333e-08
1.66269e-08
1.66212e-08
1.66161e-08
1.66115e-08
1.66074e-08
1.66037e-08
1.66003e-08
1.65973e-08
1.65947e-08
1.65923e-08
1.65901e-08
1.65882e-08
1.65865e-08
1.65849e-08
1.65836e-08
1.65824e-08
1.65813e-08
1.65804e-08
1.65796e-08
1.6579e-08
1.65784e-08
1.65779e-08
1.65775e-08
1.65773e-08
1.6577e-08
1.65769e-08
1.65768e-08
1.65768e-08
1.65769e-08
1.6577e-08
1.65771e-08
1.65774e-08
1.65776e-08
1.65779e-08
1.65782e-08
1.65786e-08
1.6579e-08
1.65795e-08
1.658e-08
1.65805e-08
1.6581e-08
1.65816e-08
1.65821e-08
1.65827e-08
1.65834e-08
1.6584e-08
1.65846e-08
1.65852e-08
1.65859e-08
1.65865e-08
1.65871e-08
1.65878e-08
1.65884e-08
1.6589e-08
1.65896e-08
1.65902e-08
1.65908e-08
1.65914e-08
1.6592e-08
1.65926e-08
1.65932e-08
1.65938e-08
1.65944e-08
1.6595e-08
1.65956e-08
1.65962e-08
1.65968e-08
1.65974e-08
1.65981e-08
1.65987e-08
1.65993e-08
1.66e-08
1.66006e-08
1.66013e-08
1.66019e-08
1.66026e-08
1.66033e-08
1.66039e-08
1.66046e-08
1.66053e-08
1.6606e-08
1.66067e-08
1.66074e-08
1.66081e-08
1.66088e-08
1.66095e-08
1.66103e-08
1.6611e-08
1.66117e-08
1.66124e-08
1.66132e-08
1.66139e-08
1.66146e-08
1.66153e-08
1.66161e-08
1.66168e-08
1.66175e-08
1.66182e-08
1.66189e-08
1.66197e-08
1.66204e-08
1.66211e-08
1.66218e-08
1.66225e-08
1.66233e-08
1.6624e-08
1.66247e-08
1.66255e-08
1.66262e-08
1.6627e-08
1.66277e-08
1.66285e-08
1.66292e-08
1.663e-08
1.66308e-08
1.66315e-08
1.66323e-08
1.66331e-08
1.66339e-08
1.66347e-08
1.66355e-08
1.66363e-08
1.66371e-08
1.66379e-08
1.66387e-08
1.66395e-08
1.66403e-08
1.66411e-08
1.6642e-08
1.66428e-08
1.66436e-08
1.66444e-08
1.66453e-08
1.66461e-08
1.66469e-08
1.66478e-08
1.66486e-08
1.66495e-08
1.66503e-08
1.66512e-08
1.6652e-08
1.66529e-08
1.66538e-08
1.66546e-08
1.66555e-08
1.66564e-08
1.66573e-08
1.66581e-08
1.6659e-08
1.66599e-08
1.66608e-08
1.66617e-08
1.66626e-08
1.66635e-08
1.66645e-08
1.66654e-08
1.66663e-08
1.66672e-08
1.66681e-08
1.66691e-08
1.667e-08
1.6671e-08
1.66719e-08
1.66728e-08
1.66738e-08
1.66747e-08
1.66757e-08
1.66767e-08
1.66776e-08
1.66786e-08
1.66796e-08
1.66806e-08
1.66815e-08
1.66825e-08
1.66835e-08
1.66845e-08
1.66855e-08
1.66865e-08
1.66876e-08
1.66886e-08
1.66896e-08
1.66906e-08
1.66917e-08
1.66927e-08
1.66937e-08
1.66948e-08
1.66958e-08
1.66969e-08
1.6698e-08
1.6699e-08
1.67001e-08
1.67012e-08
1.67022e-08
1.67033e-08
1.67044e-08
1.67055e-08
1.67066e-08
1.67077e-08
1.67088e-08
1.67099e-08
1.6711e-08
1.67121e-08
1.67132e-08
1.67143e-08
1.67155e-08
1.67166e-08
1.67178e-08
1.67189e-08
1.67201e-08
1.67212e-08
1.67224e-08
1.67235e-08
1.67247e-08
1.67259e-08
1.67271e-08
1.67282e-08
1.67294e-08
1.67306e-08
1.67318e-08
1.6733e-08
1.67343e-08
1.67355e-08
1.67367e-08
1.67379e-08
1.67392e-08
1.67404e-08
1.67416e-08
1.67429e-08
1.67441e-08
1.67454e-08
1.67467e-08
1.67479e-08
1.67492e-08
1.67505e-08
1.67518e-08
1.67531e-08
1.67544e-08
1.67557e-08
1.6757e-08
1.67583e-08
1.67596e-08
1.67609e-08
1.67623e-08
1.67636e-08
1.67649e-08
1.67663e-08
1.67676e-08
1.6769e-08
1.67704e-08
1.67717e-08
1.67731e-08
1.67745e-08
1.67759e-08
1.67773e-08
1.67787e-08
1.67801e-08
1.67815e-08
1.67829e-08
1.67843e-08
1.67858e-08
1.67872e-08
1.67886e-08
1.67901e-08
1.67915e-08
1.6793e-08
1.67945e-08
1.67959e-08
1.67974e-08
1.67989e-08
1.68004e-08
1.68019e-08
1.68034e-08
1.68049e-08
1.68064e-08
1.68079e-08
1.68094e-08
1.6811e-08
1.68125e-08
1.6814e-08
1.68156e-08
1.68171e-08
1.68187e-08
1.68203e-08
1.68219e-08
1.68234e-08
1.6825e-08
1.68266e-08
1.68282e-08
1.68298e-08
1.68314e-08
1.68331e-08
1.68347e-08
1.68363e-08
1.6838e-08
1.68396e-08
1.68413e-08
1.68429e-08
1.68446e-08
1.68463e-08
1.68479e-08
1.68496e-08
1.68513e-08
1.6853e-08
1.68547e-08
1.68564e-08
1.68582e-08
1.68599e-08
1.68616e-08
1.68634e-08
1.68651e-08
1.68669e-08
1.68686e-08
1.68704e-08
1.68722e-08
1.6874e-08
1.68758e-08
1.68775e-08
1.68794e-08
1.68812e-08
1.6883e-08
1.68848e-08
1.68866e-08
1.68885e-08
1.68903e-08
1.68922e-08
1.6894e-08
1.68959e-08
1.68978e-08
1.68997e-08
1.69016e-08
1.69035e-08
1.69054e-08
1.69073e-08
1.69092e-08
1.69111e-08
1.69131e-08
1.6915e-08
1.6917e-08
1.69189e-08
1.69209e-08
1.69229e-08
1.69249e-08
1.69268e-08
1.69288e-08
1.69308e-08
1.69329e-08
1.69349e-08
1.69369e-08
1.69389e-08
1.6941e-08
1.6943e-08
1.69451e-08
1.69472e-08
1.69492e-08
1.69513e-08
1.69534e-08
1.69555e-08
1.69576e-08
1.69597e-08
1.69619e-08
1.6964e-08
1.69661e-08
1.69683e-08
1.69704e-08
1.69726e-08
1.69748e-08
1.6977e-08
1.69792e-08
1.69814e-08
1.69836e-08
1.69858e-08
1.6988e-08
1.69902e-08
1.69925e-08
1.69947e-08
1.6997e-08
1.69992e-08
1.70015e-08
1.70038e-08
1.70061e-08
1.70084e-08
1.70107e-08
1.7013e-08
1.70153e-08
1.70177e-08
1.702e-08
1.70224e-08
1.70247e-08
1.70271e-08
1.70295e-08
1.70319e-08
1.70343e-08
1.70367e-08
1.70391e-08
1.70415e-08
1.70439e-08
1.70464e-08
1.70488e-08
1.70513e-08
1.70537e-08
1.70562e-08
1.70587e-08
1.70612e-08
1.70637e-08
1.70662e-08
1.70687e-08
1.70713e-08
1.70738e-08
1.70764e-08
1.70789e-08
1.70815e-08
1.70841e-08
1.70867e-08
1.70893e-08
1.70919e-08
1.70945e-08
1.70971e-08
1.70997e-08
1.71024e-08
1.7105e-08
1.71077e-08
1.71104e-08
1.71131e-08
1.71157e-08
1.71184e-08
1.71212e-08
1.71239e-08
1.71266e-08
1.71294e-08
1.71321e-08
1.71349e-08
1.71376e-08
1.71404e-08
1.71432e-08
1.7146e-08
1.71488e-08
1.71516e-08
1.71545e-08
1.71573e-08
1.71602e-08
1.7163e-08
1.71659e-08
1.71688e-08
1.71717e-08
1.71746e-08
1.71775e-08
1.71804e-08
1.71833e-08
1.71863e-08
1.71892e-08
1.71922e-08
1.71952e-08
1.71982e-08
1.72012e-08
1.72042e-08
1.72072e-08
1.72102e-08
1.72132e-08
1.72163e-08
1.72193e-08
1.72224e-08
1.72255e-08
1.72286e-08
1.72317e-08
1.72348e-08
1.72379e-08
1.72411e-08
1.72442e-08
1.72474e-08
1.72505e-08
1.72537e-08
1.72569e-08
1.72601e-08
1.72633e-08
1.72665e-08
1.72697e-08
1.7273e-08
1.72762e-08
1.72795e-08
1.72828e-08
1.72861e-08
1.72894e-08
1.72927e-08
1.7296e-08
1.72993e-08
1.73027e-08
1.7306e-08
1.73094e-08
1.73128e-08
1.73162e-08
1.73196e-08
1.7323e-08
1.73264e-08
1.73298e-08
1.73333e-08
1.73367e-08
1.73402e-08
1.73437e-08
1.73472e-08
1.73507e-08
1.73542e-08
1.73577e-08
1.73613e-08
1.73648e-08
1.73684e-08
1.7372e-08
1.73755e-08
1.73791e-08
1.73827e-08
1.73864e-08
1.739e-08
1.73936e-08
1.73973e-08
1.7401e-08
1.74047e-08
1.74084e-08
1.74121e-08
1.74158e-08
1.74195e-08
1.74233e-08
1.7427e-08
1.74308e-08
1.74346e-08
1.74383e-08
1.74421e-08
1.7446e-08
1.74498e-08
1.74536e-08
1.74575e-08
1.74614e-08
1.74652e-08
1.74691e-08
1.7473e-08
1.74769e-08
1.74809e-08
1.74848e-08
1.74888e-08
1.74927e-08
1.74967e-08
1.75007e-08
1.75047e-08
1.75087e-08
1.75128e-08
1.75168e-08
1.75209e-08
1.75249e-08
1.7529e-08
1.75331e-08
1.75372e-08
1.75413e-08
1.75455e-08
1.75496e-08
1.75538e-08
1.75579e-08
1.75621e-08
1.75663e-08
1.75705e-08
1.75748e-08
1.7579e-08
1.75832e-08
1.75875e-08
1.75918e-08
1.75961e-08
1.76004e-08
1.76047e-08
1.7609e-08
1.76134e-08
1.76177e-08
1.76221e-08
1.76265e-08
1.76309e-08
1.76353e-08
1.76397e-08
1.76442e-08
1.76486e-08
1.76531e-08
1.76575e-08
1.7662e-08
1.76665e-08
1.76711e-08
1.76756e-08
1.76801e-08
1.76847e-08
1.76893e-08
1.76939e-08
1.76985e-08
1.77031e-08
1.77077e-08
1.77124e-08
1.7717e-08
1.77217e-08
1.77264e-08
1.77311e-08
1.77358e-08
1.77405e-08
1.77453e-08
1.775e-08
1.77548e-08
1.77596e-08
1.77644e-08
1.77692e-08
1.7774e-08
1.77788e-08
1.77837e-08
1.77886e-08
1.77934e-08
1.77983e-08
1.78032e-08
1.78082e-08
1.78131e-08
1.78181e-08
1.7823e-08
1.7828e-08
1.7833e-08
1.7838e-08
1.78431e-08
1.78481e-08
1.78531e-08
1.78582e-08
1.78633e-08
1.78684e-08
1.78735e-08
1.78786e-08
1.78838e-08
1.78889e-08
1.78941e-08
1.78993e-08
1.79045e-08
1.79097e-08
1.79149e-08
1.79202e-08
1.79255e-08
1.79307e-08
1.7936e-08
1.79413e-08
1.79466e-08
1.7952e-08
1.79573e-08
1.79627e-08
1.79681e-08
1.79735e-08
1.79789e-08
1.79843e-08
1.79897e-08
1.79952e-08
1.80007e-08
1.80061e-08
1.80116e-08
1.80172e-08
1.80227e-08
1.80282e-08
1.80338e-08
1.80394e-08
1.80449e-08
1.80506e-08
1.80562e-08
1.80618e-08
1.80675e-08
1.80731e-08
1.80788e-08
1.80845e-08
1.80902e-08
1.80959e-08
1.81017e-08
1.81074e-08
1.81132e-08
1.8119e-08
1.81248e-08
1.81306e-08
1.81365e-08
1.81423e-08
1.81482e-08
1.81541e-08
1.816e-08
1.81659e-08
1.81718e-08
1.81777e-08
1.81837e-08
1.81897e-08
1.81957e-08
1.82017e-08
1.82077e-08
1.82137e-08
1.82198e-08
1.82258e-08
1.82319e-08
1.8238e-08
1.82441e-08
1.82503e-08
1.82564e-08
1.82626e-08
1.82687e-08
1.82749e-08
1.82811e-08
1.82874e-08
1.82936e-08
1.82999e-08
1.83061e-08
1.83124e-08
1.83187e-08
1.8325e-08
1.83314e-08
1.83377e-08
1.83441e-08
1.83505e-08
1.83569e-08
1.83633e-08
1.83697e-08
1.83762e-08
1.83826e-08
1.83891e-08
1.83956e-08
1.84021e-08
1.84086e-08
1.84152e-08
1.84217e-08
1.84283e-08
1.84349e-08
1.84415e-08
1.84481e-08
1.84548e-08
1.84614e-08
1.84681e-08
1.84748e-08
1.84815e-08
1.84882e-08
1.84949e-08
1.85017e-08
1.85084e-08
1.85152e-08
1.8522e-08
1.85288e-08
1.85357e-08
1.85425e-08
1.85494e-08
1.85562e-08
1.85631e-08
1.85701e-08
1.8577e-08
1.85839e-08
1.85909e-08
1.85979e-08
1.86048e-08
1.86118e-08
1.86189e-08
1.86259e-08
1.8633e-08
1.864e-08
1.86471e-08
1.86542e-08
1.86613e-08
1.86685e-08
1.86756e-08
1.86828e-08
1.869e-08
1.86972e-08
1.87044e-08
1.87116e-08
1.87189e-08
1.87262e-08
1.87334e-08
1.87407e-08
1.8748e-08
1.87554e-08
1.87627e-08
1.87701e-08
1.87775e-08
1.87849e-08
1.87923e-08
1.87997e-08
1.88071e-08
1.88146e-08
1.88221e-08
1.88296e-08
1.88371e-08
1.88446e-08
1.88521e-08
1.88597e-08
1.88673e-08
1.88748e-08
1.88824e-08
1.88901e-08
1.88977e-08
1.89054e-08
1.8913e-08
1.89207e-08
1.89284e-08
1.89361e-08
1.89439e-08
1.89516e-08
1.89594e-08
1.89672e-08
1.89749e-08
1.89828e-08
1.89906e-08
1.89984e-08
1.90063e-08
1.90142e-08
1.90221e-08
1.903e-08
1.90379e-08
1.90458e-08
1.90538e-08
1.90618e-08
1.90698e-08
1.90778e-08
1.90858e-08
1.90938e-08
1.91019e-08
1.911e-08
1.9118e-08
1.91261e-08
1.91343e-08
1.91424e-08
1.91505e-08
1.91587e-08
1.91669e-08
1.91751e-08
1.91833e-08
1.91915e-08
1.91998e-08
1.9208e-08
1.92163e-08
1.92246e-08
1.92329e-08
1.92412e-08
1.92496e-08
1.92579e-08
1.92663e-08
1.92747e-08
1.92831e-08
1.92915e-08
1.92999e-08
1.93084e-08
1.93168e-08
1.93253e-08
1.93338e-08
1.93423e-08
1.93508e-08
1.93594e-08
1.93679e-08
1.93765e-08
1.93851e-08
1.93937e-08
1.94023e-08
1.9411e-08
1.94196e-08
1.94283e-08
1.9437e-08
1.94457e-08
1.94544e-08
1.94631e-08
1.94719e-08
1.94806e-08
1.94894e-08
1.94982e-08
1.9507e-08
1.95158e-08
1.95246e-08
1.95335e-08
1.95423e-08
1.95512e-08
1.95601e-08
1.9569e-08
1.9578e-08
1.95869e-08
1.95959e-08
1.96048e-08
1.96138e-08
1.96228e-08
1.96318e-08
1.96409e-08
1.96499e-08
1.9659e-08
1.96681e-08
1.96772e-08
1.96863e-08
1.96954e-08
1.97045e-08
1.97137e-08
1.97228e-08
1.9732e-08
1.97412e-08
1.97504e-08
1.97597e-08
1.97689e-08
1.97782e-08
1.97874e-08
1.97967e-08
1.9806e-08
1.98153e-08
1.98247e-08
1.9834e-08
1.98434e-08
1.98528e-08
1.98621e-08
1.98715e-08
1.9881e-08
1.98904e-08
1.98999e-08
1.99093e-08
1.99188e-08
1.99283e-08
1.99378e-08
1.99473e-08
1.99569e-08
1.99664e-08
1.9976e-08
1.99856e-08
1.99952e-08
2.00048e-08
2.00144e-08
2.00241e-08
2.00337e-08
2.00434e-08
2.00531e-08
2.00628e-08
2.00726e-08
2.00823e-08
2.00921e-08
2.01018e-08
2.01116e-08
2.01214e-08
2.01313e-08
2.01411e-08
2.0151e-08
2.01609e-08
2.01708e-08
2.01807e-08
2.01906e-08
2.02006e-08
2.02105e-08
2.02205e-08
2.02305e-08
2.02406e-08
2.02506e-08
2.02607e-08
2.02708e-08
2.02809e-08
2.02911e-08
2.03012e-08
2.03114e-08
2.03217e-08
2.03319e-08
2.03422e-08
2.03525e-08
2.03628e-08
2.03732e-08
2.03836e-08
2.0394e-08
2.04045e-08
2.0415e-08
2.04255e-08
2.04361e-08
2.04467e-08
2.04574e-08
2.04681e-08
2.04789e-08
2.04897e-08
2.05005e-08
2.05115e-08
2.05224e-08
2.05335e-08
2.05446e-08
2.05557e-08
2.05669e-08
2.05782e-08
2.05894e-08
2.06007e-08
2.06119e-08
2.06231e-08
2.06343e-08
2.06455e-08
2.0657e-08
2.06701e-08
2.06846e-08
1.75214e-05
3.84565e-06
1.41653e-06
7.11862e-07
4.6922e-07
3.76442e-07
3.38528e-07
3.22499e-07
3.15688e-07
3.12859e-07
3.11753e-07
3.11376e-07
3.11293e-07
3.1132e-07
3.11378e-07
3.1144e-07
3.11496e-07
3.11544e-07
3.11584e-07
3.11617e-07
3.11646e-07
3.1167e-07
3.1169e-07
3.11708e-07
3.11724e-07
3.11737e-07
3.11749e-07
3.1176e-07
3.1177e-07
3.11778e-07
3.11786e-07
3.11793e-07
3.118e-07
3.11806e-07
3.11811e-07
3.11816e-07
3.11821e-07
3.11826e-07
3.1183e-07
3.11834e-07
3.11838e-07
3.11842e-07
3.11845e-07
3.11848e-07
3.11852e-07
3.11855e-07
3.11858e-07
3.1186e-07
3.11863e-07
3.11866e-07
3.11868e-07
3.11871e-07
3.11873e-07
3.11876e-07
3.11878e-07
3.1188e-07
3.11883e-07
3.11885e-07
3.11887e-07
3.11889e-07
3.11891e-07
3.11894e-07
3.11896e-07
3.11898e-07
3.119e-07
3.11901e-07
3.11903e-07
3.11905e-07
3.11907e-07
3.11908e-07
3.1191e-07
3.11911e-07
3.11912e-07
3.11913e-07
3.11914e-07
3.11915e-07
3.11916e-07
3.11916e-07
3.11917e-07
3.11918e-07
3.11919e-07
3.11919e-07
3.1192e-07
3.11921e-07
3.11922e-07
3.11923e-07
3.11924e-07
3.11925e-07
3.11926e-07
3.11928e-07
3.11929e-07
3.1193e-07
3.11931e-07
3.11933e-07
3.11934e-07
3.11935e-07
3.11936e-07
3.11938e-07
3.11939e-07
3.11941e-07
3.11942e-07
3.11943e-07
3.11945e-07
3.11946e-07
3.11948e-07
3.11949e-07
3.11951e-07
3.11952e-07
3.11954e-07
3.11955e-07
3.11957e-07
3.11958e-07
3.1196e-07
3.11961e-07
3.11962e-07
3.11964e-07
3.11965e-07
3.11966e-07
3.11967e-07
3.11969e-07
3.1197e-07
3.11971e-07
3.11972e-07
3.11974e-07
3.11975e-07
3.11976e-07
3.11978e-07
3.11979e-07
3.1198e-07
3.11982e-07
3.11983e-07
3.11985e-07
3.11986e-07
3.11988e-07
3.11989e-07
3.11991e-07
3.11992e-07
3.11994e-07
3.11995e-07
3.11997e-07
3.11998e-07
3.12e-07
3.12002e-07
3.12003e-07
3.12005e-07
3.12006e-07
3.12008e-07
3.12009e-07
3.12011e-07
3.12012e-07
3.12014e-07
3.12016e-07
3.12017e-07
3.12019e-07
3.1202e-07
3.12022e-07
3.12023e-07
3.12025e-07
3.12026e-07
3.12028e-07
3.1203e-07
3.12031e-07
3.12033e-07
3.12034e-07
3.12036e-07
3.12038e-07
3.12039e-07
3.12041e-07
3.12042e-07
3.12044e-07
3.12046e-07
3.12047e-07
3.12049e-07
3.12051e-07
3.12052e-07
3.12054e-07
3.12056e-07
3.12057e-07
3.12059e-07
3.12061e-07
3.12062e-07
3.12064e-07
3.12066e-07
3.12067e-07
3.12069e-07
3.12071e-07
3.12072e-07
3.12074e-07
3.12076e-07
3.12078e-07
3.12079e-07
3.12081e-07
3.12083e-07
3.12085e-07
3.12086e-07
3.12088e-07
3.1209e-07
3.12092e-07
3.12093e-07
3.12095e-07
3.12097e-07
3.12099e-07
3.12101e-07
3.12102e-07
3.12104e-07
3.12106e-07
3.12108e-07
3.1211e-07
3.12111e-07
3.12113e-07
3.12115e-07
3.12117e-07
3.12119e-07
3.1212e-07
3.12122e-07
3.12124e-07
3.12126e-07
3.12128e-07
3.12129e-07
3.12131e-07
3.12133e-07
3.12135e-07
3.12137e-07
3.12139e-07
3.1214e-07
3.12142e-07
3.12144e-07
3.12146e-07
3.12148e-07
3.1215e-07
3.12152e-07
3.12154e-07
3.12156e-07
3.12157e-07
3.12159e-07
3.12161e-07
3.12163e-07
3.12165e-07
3.12167e-07
3.12169e-07
3.12171e-07
3.12173e-07
3.12175e-07
3.12177e-07
3.12179e-07
3.12181e-07
3.12183e-07
3.12185e-07
3.12187e-07
3.12188e-07
3.1219e-07
3.12192e-07
3.12194e-07
3.12196e-07
3.12198e-07
3.122e-07
3.12202e-07
3.12204e-07
3.12206e-07
3.12208e-07
3.1221e-07
3.12212e-07
3.12214e-07
3.12217e-07
3.12219e-07
3.12221e-07
3.12223e-07
3.12225e-07
3.12227e-07
3.12229e-07
3.12231e-07
3.12233e-07
3.12235e-07
3.12237e-07
3.12239e-07
3.12241e-07
3.12243e-07
3.12245e-07
3.12247e-07
3.12249e-07
3.12252e-07
3.12254e-07
3.12256e-07
3.12258e-07
3.1226e-07
3.12262e-07
3.12264e-07
3.12266e-07
3.12269e-07
3.12271e-07
3.12273e-07
3.12275e-07
3.12277e-07
3.12279e-07
3.12281e-07
3.12284e-07
3.12286e-07
3.12288e-07
3.1229e-07
3.12292e-07
3.12294e-07
3.12297e-07
3.12299e-07
3.12301e-07
3.12303e-07
3.12305e-07
3.12308e-07
3.1231e-07
3.12312e-07
3.12314e-07
3.12316e-07
3.12319e-07
3.12321e-07
3.12323e-07
3.12325e-07
3.12328e-07
3.1233e-07
3.12332e-07
3.12334e-07
3.12337e-07
3.12339e-07
3.12341e-07
3.12343e-07
3.12346e-07
3.12348e-07
3.1235e-07
3.12352e-07
3.12355e-07
3.12357e-07
3.12359e-07
3.12362e-07
3.12364e-07
3.12366e-07
3.12369e-07
3.12371e-07
3.12373e-07
3.12376e-07
3.12378e-07
3.1238e-07
3.12383e-07
3.12385e-07
3.12387e-07
3.1239e-07
3.12392e-07
3.12394e-07
3.12397e-07
3.12399e-07
3.12401e-07
3.12404e-07
3.12406e-07
3.12409e-07
3.12411e-07
3.12413e-07
3.12416e-07
3.12418e-07
3.12421e-07
3.12423e-07
3.12425e-07
3.12428e-07
3.1243e-07
3.12433e-07
3.12435e-07
3.12438e-07
3.1244e-07
3.12442e-07
3.12445e-07
3.12447e-07
3.1245e-07
3.12452e-07
3.12455e-07
3.12457e-07
3.1246e-07
3.12462e-07
3.12465e-07
3.12467e-07
3.1247e-07
3.12472e-07
3.12475e-07
3.12477e-07
3.1248e-07
3.12482e-07
3.12485e-07
3.12487e-07
3.1249e-07
3.12492e-07
3.12495e-07
3.12497e-07
3.125e-07
3.12502e-07
3.12505e-07
3.12508e-07
3.1251e-07
3.12513e-07
3.12515e-07
3.12518e-07
3.1252e-07
3.12523e-07
3.12526e-07
3.12528e-07
3.12531e-07
3.12533e-07
3.12536e-07
3.12539e-07
3.12541e-07
3.12544e-07
3.12547e-07
3.12549e-07
3.12552e-07
3.12554e-07
3.12557e-07
3.1256e-07
3.12562e-07
3.12565e-07
3.12568e-07
3.1257e-07
3.12573e-07
3.12576e-07
3.12578e-07
3.12581e-07
3.12584e-07
3.12587e-07
3.12589e-07
3.12592e-07
3.12595e-07
3.12597e-07
3.126e-07
3.12603e-07
3.12606e-07
3.12608e-07
3.12611e-07
3.12614e-07
3.12617e-07
3.12619e-07
3.12622e-07
3.12625e-07
3.12628e-07
3.1263e-07
3.12633e-07
3.12636e-07
3.12639e-07
3.12642e-07
3.12644e-07
3.12647e-07
3.1265e-07
3.12653e-07
3.12656e-07
3.12658e-07
3.12661e-07
3.12664e-07