/*--------------------------------*- C++ -*----------------------------------*\
| =========                 |                                                 |
| \\      /  F ield         | OpenFOAM: The Open Source CFD Toolbox           |
|  \\    /   O peration     | Version:  2512                                  |
|   \\  /    A nd           | Website:  www.openfoam.com                      |
|    \\/     M anipulation  |                                                 |
\*---------------------------------------------------------------------------*/
FoamFile
{
    version     2.0;
    format      ascii;
    arch        "LSB;label=32;scalar=64";
    class       volVectorField;
    location    "0.003";
    object      B;
}
// * * * * * * * * * * * * * * * * * * * * * * * * * * * * * * * * * * * * * //

dimensions      [1 0 -2 0 0 -1 0];

internalField   nonuniform List<vector> 
100000
(
(0.182214 20.0549 0)
(0.177746 20.031 0)
(0.166898 20.0342 0)
(0.156455 20.0299 0)
(0.148047 20.0242 0)
(0.141409 20.0193 0)
(0.136123 20.0154 0)
(0.131873 20.0123 0)
(0.12842 20.0098 0)
(0.125588 20.0079 0)
(0.123242 20.0064 0)
(0.121281 20.0053 0)
(0.119628 20.0044 0)
(0.118223 20.0037 0)
(0.117021 20.0031 0)
(0.115984 20.0027 0)
(0.115085 20.0023 0)
(0.114301 20.002 0)
(0.113614 20.0018 0)
(0.113008 20.0016 0)
(0.112473 20.0014 0)
(0.111998 20.0013 0)
(0.111576 20.0011 0)
(0.1112 20.001 0)
(0.110864 20.0009 0)
(0.110563 20.0008 0)
(0.110293 20.0008 0)
(0.110052 20.0007 0)
(0.109835 20.0006 0)
(0.10964 20.0006 0)
(0.109465 20.0005 0)
(0.109308 20.0005 0)
(0.109168 20.0004 0)
(0.109042 20.0004 0)
(0.108929 20.0004 0)
(0.108829 20.0003 0)
(0.10874 20.0003 0)
(0.108661 20.0003 0)
(0.108592 20.0003 0)
(0.108531 20.0002 0)
(0.108478 20.0002 0)
(0.108432 20.0002 0)
(0.108393 20.0002 0)
(0.10836 20.0002 0)
(0.108333 20.0002 0)
(0.108311 20.0001 0)
(0.108294 20.0001 0)
(0.108281 20.0001 0)
(0.108273 20.0001 0)
(0.108268 20.0001 0)
(0.108267 20.0001 0)
(0.10827 20.0001 0)
(0.108276 20.0001 0)
(0.108284 20.0001 0)
(0.108296 20.0001 0)
(0.10831 20 0)
(0.108326 20 0)
(0.108345 20 0)
(0.108365 20 0)
(0.108388 20 0)
(0.108412 20 0)
(0.108438 20 0)
(0.108466 20 0)
(0.108495 20 0)
(0.108525 20 0)
(0.108557 20 0)
(0.10859 20 0)
(0.108624 20 0)
(0.108659 20 0)
(0.108694 20 0)
(0.10873 20 0)
(0.108767 20 0)
(0.108805 20 0)
(0.108843 20 0)
(0.108881 20 0)
(0.108919 20 0)
(0.108958 20 0)
(0.108996 20 0)
(0.109034 20 0)
(0.109073 20 0)
(0.109111 20 0)
(0.109149 20 0)
(0.109188 20 0)
(0.109226 20 0)
(0.109264 20 0)
(0.109302 20 0)
(0.10934 20 0)
(0.109378 20 0)
(0.109416 20 0)
(0.109454 20 0)
(0.109493 20 0)
(0.109531 20 0)
(0.109569 20 0)
(0.109608 20 0)
(0.109646 20 0)
(0.109684 20 0)
(0.109723 20 0)
(0.109762 20 0)
(0.1098 20 0)
(0.109839 20 0)
(0.109878 20 0)
(0.109917 20 0)
(0.109957 20 0)
(0.109996 20 0)
(0.110036 20 0)
(0.110075 20 0)
(0.110115 20 0)
(0.110155 20 0)
(0.110195 20 0)
(0.110235 20 0)
(0.110275 20 0)
(0.110316 20 0)
(0.110356 20 0)
(0.110397 20 0)
(0.110437 20 0)
(0.110478 20 0)
(0.110518 20 0)
(0.110558 20 0)
(0.110599 20 0)
(0.110639 20 0)
(0.110679 20 0)
(0.110719 20 0)
(0.110759 20 0)
(0.110799 20 0)
(0.110838 20 0)
(0.110878 20 0)
(0.110917 20 0)
(0.110957 20 0)
(0.110997 20 0)
(0.111036 20 0)
(0.111075 20 0)
(0.111115 20 0)
(0.111154 20 0)
(0.111194 20 0)
(0.111233 20 0)
(0.111273 20 0)
(0.111313 20 0)
(0.111352 20 0)
(0.111392 20 0)
(0.111432 20 0)
(0.111472 20 0)
(0.111512 20 0)
(0.111552 20 0)
(0.111592 20 0)
(0.111632 20 0)
(0.111672 20 0)
(0.111713 20 0)
(0.111753 20 0)
(0.111794 20 0)
(0.111834 20 0)
(0.111875 20 0)
(0.111915 20 0)
(0.111956 20 0)
(0.111997 20 0)
(0.112037 20 0)
(0.112078 20 0)
(0.112119 20 0)
(0.112159 20 0)
(0.1122 20 0)
(0.112241 20 0)
(0.112281 20 0)
(0.112322 20 0)
(0.112363 20 0)
(0.112404 20 0)
(0.112445 20 0)
(0.112486 20 0)
(0.112526 20 0)
(0.112567 20 0)
(0.112608 20 0)
(0.112649 20 0)
(0.11269 20 0)
(0.112731 20 0)
(0.112773 20 0)
(0.112814 20 0)
(0.112855 20 0)
(0.112896 20 0)
(0.112938 20 0)
(0.112979 20 0)
(0.11302 20 0)
(0.113062 20 0)
(0.113103 20 0)
(0.113145 20 0)
(0.113186 20 0)
(0.113228 20 0)
(0.113269 20 0)
(0.113311 20 0)
(0.113352 20 0)
(0.113394 20 0)
(0.113436 20 0)
(0.113477 20 0)
(0.113519 20 0)
(0.113561 20 0)
(0.113603 20 0)
(0.113644 20 0)
(0.113686 20 0)
(0.113728 20 0)
(0.11377 20 0)
(0.113813 20 0)
(0.113855 20 0)
(0.113897 20 0)
(0.113939 20 0)
(0.113982 20 0)
(0.114024 20 0)
(0.114067 20 0)
(0.114109 20 0)
(0.114152 20 0)
(0.114194 20 0)
(0.114237 20 0)
(0.11428 20 0)
(0.114323 20 0)
(0.114365 20 0)
(0.114408 20 0)
(0.114451 20 0)
(0.114494 20 0)
(0.114537 20 0)
(0.11458 20 0)
(0.114623 20 0)
(0.114666 20 0)
(0.114709 20 0)
(0.114752 20 0)
(0.114795 20 0)
(0.114838 20 0)
(0.114882 20 0)
(0.114925 20 0)
(0.114968 20 0)
(0.115011 20 0)
(0.115055 20 0)
(0.115098 20 0)
(0.115141 20 0)
(0.115185 20 0)
(0.115228 20 0)
(0.115272 20 0)
(0.115316 20 0)
(0.115359 20 0)
(0.115403 20 0)
(0.115447 20 0)
(0.115491 20 0)
(0.115535 20 0)
(0.115579 20 0)
(0.115623 20 0)
(0.115667 20 0)
(0.115711 20 0)
(0.115755 20 0)
(0.115799 20 0)
(0.115843 20 0)
(0.115888 20 0)
(0.115932 20 0)
(0.115976 20 0)
(0.116021 20 0)
(0.116065 20 0)
(0.11611 20 0)
(0.116154 20 0)
(0.116199 20 0)
(0.116244 20 0)
(0.116289 20 0)
(0.116333 20 0)
(0.116378 20 0)
(0.116423 20 0)
(0.116468 20 0)
(0.116513 20 0)
(0.116558 20 0)
(0.116603 20 0)
(0.116649 20 0)
(0.116694 20 0)
(0.116739 20 0)
(0.116785 20 0)
(0.11683 20 0)
(0.116875 20 0)
(0.116921 20 0)
(0.116966 20 0)
(0.117012 20 0)
(0.117058 20 0)
(0.117103 20 0)
(0.117149 20 0)
(0.117195 20 0)
(0.117241 20 0)
(0.117287 20 0)
(0.117333 20 0)
(0.117379 20 0)
(0.117425 20 0)
(0.117471 20 0)
(0.117517 20 0)
(0.117563 20 0)
(0.117609 20 0)
(0.117656 20 0)
(0.117702 20 0)
(0.117748 20 0)
(0.117795 20 0)
(0.117841 20 0)
(0.117888 20 0)
(0.117935 20 0)
(0.117981 20 0)
(0.118028 20 0)
(0.118075 20 0)
(0.118122 20 0)
(0.118169 20 0)
(0.118215 20 0)
(0.118262 20 0)
(0.11831 20 0)
(0.118357 20 0)
(0.118404 20 0)
(0.118451 20 0)
(0.118498 20 0)
(0.118546 20 0)
(0.118593 20 0)
(0.11864 20 0)
(0.118688 20 0)
(0.118735 20 0)
(0.118783 20 0)
(0.11883 20 0)
(0.118878 20 0)
(0.118926 20 0)
(0.118974 20 0)
(0.119021 20 0)
(0.119069 20 0)
(0.119117 20 0)
(0.119165 20 0)
(0.119213 20 0)
(0.119261 20 0)
(0.11931 20 0)
(0.119358 20 0)
(0.119406 20 0)
(0.119454 20 0)
(0.119503 20 0)
(0.119551 20 0)
(0.1196 20 0)
(0.119648 20 0)
(0.119697 20 0)
(0.119746 20 0)
(0.119794 20 0)
(0.119843 20 0)
(0.119892 20 0)
(0.119941 20 0)
(0.11999 20 0)
(0.120039 20 0)
(0.120088 20 0)
(0.120137 20 0)
(0.120186 20 0)
(0.120235 20 0)
(0.120285 20 0)
(0.120334 20 0)
(0.120383 20 0)
(0.120433 20 0)
(0.120482 20 0)
(0.120532 20 0)
(0.120581 20 0)
(0.120631 20 0)
(0.120681 20 0)
(0.120731 20 0)
(0.12078 20 0)
(0.12083 20 0)
(0.12088 20 0)
(0.12093 20 0)
(0.12098 20 0)
(0.12103 20 0)
(0.121081 20 0)
(0.121131 20 0)
(0.121181 20 0)
(0.121232 20 0)
(0.121282 20 0)
(0.121332 20 0)
(0.121383 20 0)
(0.121434 20 0)
(0.121484 20 0)
(0.121535 20 0)
(0.121586 20 0)
(0.121637 20 0)
(0.121687 20 0)
(0.121738 20 0)
(0.121789 20 0)
(0.12184 20 0)
(0.121892 20 0)
(0.121943 20 0)
(0.121994 20 0)
(0.122045 20 0)
(0.122097 20 0)
(0.122148 20 0)
(0.1222 20 0)
(0.122251 20 0)
(0.122303 20 0)
(0.122354 20 0)
(0.122406 20 0)
(0.122458 20 0)
(0.12251 20 0)
(0.122562 20 0)
(0.122614 20 0)
(0.122666 20 0)
(0.122718 20 0)
(0.12277 20 0)
(0.122822 20 0)
(0.122874 20 0)
(0.122927 20 0)
(0.122979 20 0)
(0.123032 20 0)
(0.123084 20 0)
(0.123137 20 0)
(0.123189 20 0)
(0.123242 20 0)
(0.123295 20 0)
(0.123348 20 0)
(0.1234 20 0)
(0.123453 20 0)
(0.123506 20 0)
(0.123559 20 0)
(0.123613 20 0)
(0.123666 20 0)
(0.123719 20 0)
(0.123772 20 0)
(0.123826 20 0)
(0.123879 20 0)
(0.123933 20 0)
(0.123986 20 0)
(0.12404 20 0)
(0.124093 20 0)
(0.124147 20 0)
(0.124201 20 0)
(0.124255 20 0)
(0.124309 20 0)
(0.124363 20 0)
(0.124417 20 0)
(0.124471 20 0)
(0.124525 20 0)
(0.124579 20 0)
(0.124634 20 0)
(0.124688 20 0)
(0.124742 20 0)
(0.124797 20 0)
(0.124851 20 0)
(0.124906 20 0)
(0.124961 20 0)
(0.125015 20 0)
(0.12507 20 0)
(0.125125 20 0)
(0.12518 20 0)
(0.125235 20 0)
(0.12529 20 0)
(0.125345 20 0)
(0.1254 20 0)
(0.125456 20 0)
(0.125511 20 0)
(0.125566 20 0)
(0.125622 20 0)
(0.125677 20 0)
(0.125733 20 0)
(0.125788 20 0)
(0.125844 20 0)
(0.1259 20 0)
(0.125956 20 0)
(0.126012 20 0)
(0.126068 20 0)
(0.126124 20 0)
(0.12618 20 0)
(0.126236 20 0)
(0.126292 20 0)
(0.126348 20 0)
(0.126404 20 0)
(0.126461 20 0)
(0.126517 20 0)
(0.126574 20 0)
(0.12663 20 0)
(0.126687 20 0)
(0.126744 20 0)
(0.1268 20 0)
(0.126857 20 0)
(0.126914 20 0)
(0.126971 20 0)
(0.127028 20 0)
(0.127085 20 0)
(0.127142 20 0)
(0.1272 20 0)
(0.127257 20 0)
(0.127314 20 0)
(0.127372 20 0)
(0.127429 20 0)
(0.127487 20 0)
(0.127544 20 0)
(0.127602 20 0)
(0.12766 20 0)
(0.127717 20 0)
(0.127775 20 0)
(0.127833 20 0)
(0.127891 20 0)
(0.127949 20 0)
(0.128007 20 0)
(0.128065 20 0)
(0.128124 20 0)
(0.128182 20 0)
(0.12824 20 0)
(0.128299 20 0)
(0.128357 20 0)
(0.128416 20 0)
(0.128474 20 0)
(0.128533 20 0)
(0.128592 20 0)
(0.128651 20 0)
(0.128709 20 0)
(0.128768 20 0)
(0.128827 20 0)
(0.128886 20 0)
(0.128946 20 0)
(0.129005 20 0)
(0.129064 20 0)
(0.129123 20 0)
(0.129183 20 0)
(0.129242 20 0)
(0.129302 20 0)
(0.129361 20 0)
(0.129421 20 0)
(0.129481 20 0)
(0.12954 20 0)
(0.1296 20 0)
(0.12966 20 0)
(0.12972 20 0)
(0.12978 20 0)
(0.12984 20 0)
(0.1299 20 0)
(0.12996 20 0)
(0.130021 20 0)
(0.130081 20 0)
(0.130141 20 0)
(0.130202 20 0)
(0.130262 20 0)
(0.130323 20 0)
(0.130384 20 0)
(0.130444 20 0)
(0.130505 20 0)
(0.130566 20 0)
(0.130627 20 0)
(0.130688 20 0)
(0.130749 20 0)
(0.13081 20 0)
(0.130871 20 0)
(0.130932 20 0)
(0.130994 20 0)
(0.131055 20 0)
(0.131116 20 0)
(0.131178 20 0)
(0.131239 20 0)
(0.131301 20 0)
(0.131363 20 0)
(0.131424 20 0)
(0.131486 20 0)
(0.131548 20 0)
(0.13161 20 0)
(0.131672 20 0)
(0.131734 20 0)
(0.131796 20 0)
(0.131858 20 0)
(0.13192 20 0)
(0.131983 20 0)
(0.132045 20 0)
(0.132107 20 0)
(0.13217 20 0)
(0.132232 20 0)
(0.132295 20 0)
(0.132358 20 0)
(0.13242 20 0)
(0.132483 20 0)
(0.132546 20 0)
(0.132609 20 0)
(0.132672 20 0)
(0.132735 20 0)
(0.132798 20 0)
(0.132861 20 0)
(0.132925 20 0)
(0.132988 20 0)
(0.133051 20 0)
(0.133115 20 0)
(0.133178 20 0)
(0.133242 20 0)
(0.133305 20 0)
(0.133369 20 0)
(0.133433 20 0)
(0.133496 20 0)
(0.13356 20 0)
(0.133624 20 0)
(0.133688 20 0)
(0.133752 20 0)
(0.133816 20 0)
(0.13388 20 0)
(0.133944 20 0)
(0.134009 20 0)
(0.134073 20 0)
(0.134137 20 0)
(0.134202 20 0)
(0.134266 20 0)
(0.134331 20 0)
(0.134396 20 0)
(0.13446 20 0)
(0.134525 20 0)
(0.13459 20 0)
(0.134655 20 0)
(0.13472 20 0)
(0.134785 20 0)
(0.13485 20 0)
(0.134915 20 0)
(0.13498 20 0)
(0.135045 20 0)
(0.135111 20 0)
(0.135176 20 0)
(0.135241 20 0)
(0.135307 20 0)
(0.135372 20 0)
(0.135438 20 0)
(0.135504 20 0)
(0.135569 20 0)
(0.135635 20 0)
(0.135701 20 0)
(0.135767 20 0)
(0.135833 20 0)
(0.135899 20 0)
(0.135965 20 0)
(0.136031 20 0)
(0.136097 20 0)
(0.136163 20 0)
(0.13623 20 0)
(0.136296 20 0)
(0.136362 20 0)
(0.136429 20 0)
(0.136495 20 0)
(0.136562 20 0)
(0.136629 20 0)
(0.136695 20 0)
(0.136762 20 0)
(0.136829 20 0)
(0.136896 20 0)
(0.136963 20 0)
(0.13703 20 0)
(0.137097 20 0)
(0.137164 20 0)
(0.137231 20 0)
(0.137298 20 0)
(0.137366 20 0)
(0.137433 20 0)
(0.1375 20 0)
(0.137568 20 0)
(0.137635 20 0)
(0.137703 20 0)
(0.137771 20 0)
(0.137838 20 0)
(0.137906 20 0)
(0.137974 20 0)
(0.138042 20 0)
(0.13811 20 0)
(0.138177 20 0)
(0.138246 20 0)
(0.138314 20 0)
(0.138382 20 0)
(0.13845 20 0)
(0.138518 20 0)
(0.138586 20 0)
(0.138655 20 0)
(0.138723 20 0)
(0.138792 20 0)
(0.13886 20 0)
(0.138929 20 0)
(0.138997 20 0)
(0.139066 20 0)
(0.139135 20 0)
(0.139204 20 0)
(0.139272 20 0)
(0.139341 20 0)
(0.13941 20 0)
(0.139479 20 0)
(0.139548 20 0)
(0.139618 20 0)
(0.139687 20 0)
(0.139756 20 0)
(0.139825 20 0)
(0.139895 20 0)
(0.139964 20 0)
(0.140033 20 0)
(0.140103 20 0)
(0.140172 20 0)
(0.140242 20 0)
(0.140312 20 0)
(0.140381 20 0)
(0.140451 20 0)
(0.140521 20 0)
(0.140591 20 0)
(0.140661 20 0)
(0.140731 20 0)
(0.140801 20 0)
(0.140871 20 0)
(0.140941 20 0)
(0.141011 20 0)
(0.141081 20 0)
(0.141152 20 0)
(0.141222 20 0)
(0.141292 20 0)
(0.141363 20 0)
(0.141433 20 0)
(0.141504 20 0)
(0.141574 20 0)
(0.141645 20 0)
(0.141716 20 0)
(0.141786 20 0)
(0.141857 20 0)
(0.141928 20 0)
(0.141999 20 0)
(0.14207 20 0)
(0.142141 20 0)
(0.142212 20 0)
(0.142283 20 0)
(0.142354 20 0)
(0.142425 20 0)
(0.142496 20 0)
(0.142568 20 0)
(0.142639 20 0)
(0.14271 20 0)
(0.142782 20 0)
(0.142853 20 0)
(0.142925 20 0)
(0.142996 20 0)
(0.143068 20 0)
(0.14314 20 0)
(0.143211 20 0)
(0.143283 20 0)
(0.143355 20 0)
(0.143427 20 0)
(0.143499 20 0)
(0.143571 20 0)
(0.143643 20 0)
(0.143715 20 0)
(0.143787 20 0)
(0.143859 20 0)
(0.143931 20 0)
(0.144003 20 0)
(0.144076 20 0)
(0.144148 20 0)
(0.14422 20 0)
(0.144293 20 0)
(0.144365 20 0)
(0.144438 20 0)
(0.14451 20 0)
(0.144583 20 0)
(0.144655 20 0)
(0.144728 20 0)
(0.144801 20 0)
(0.144874 20 0)
(0.144946 20 0)
(0.145019 20 0)
(0.145092 20 0)
(0.145165 20 0)
(0.145238 20 0)
(0.145311 20 0)
(0.145384 20 0)
(0.145457 20 0)
(0.14553 20 0)
(0.145604 20 0)
(0.145677 20 0)
(0.14575 20 0)
(0.145824 19.9999 0)
(0.145897 19.9999 0)
(0.14597 19.9999 0)
(0.146044 19.9999 0)
(0.146117 19.9999 0)
(0.146191 19.9999 0)
(0.146264 19.9999 0)
(0.146338 19.9999 0)
(0.146412 19.9999 0)
(0.146485 19.9999 0)
(0.146559 19.9999 0)
(0.146633 19.9999 0)
(0.146707 19.9999 0)
(0.146781 19.9999 0)
(0.146855 19.9999 0)
(0.146929 19.9999 0)
(0.147003 19.9999 0)
(0.147077 19.9999 0)
(0.147151 19.9999 0)
(0.147225 19.9999 0)
(0.147299 19.9999 0)
(0.147373 19.9999 0)
(0.147447 19.9999 0)
(0.147522 19.9999 0)
(0.147596 19.9999 0)
(0.14767 19.9999 0)
(0.147745 19.9999 0)
(0.147819 19.9999 0)
(0.147894 19.9999 0)
(0.147968 19.9999 0)
(0.148043 19.9999 0)
(0.148117 19.9999 0)
(0.148192 19.9999 0)
(0.148266 19.9999 0)
(0.148341 19.9999 0)
(0.148416 19.9999 0)
(0.148491 19.9999 0)
(0.148565 19.9999 0)
(0.14864 19.9999 0)
(0.148715 19.9999 0)
(0.14879 19.9999 0)
(0.148865 19.9999 0)
(0.14894 19.9999 0)
(0.149015 19.9999 0)
(0.14909 19.9999 0)
(0.149165 19.9999 0)
(0.14924 19.9999 0)
(0.149315 19.9999 0)
(0.149391 19.9999 0)
(0.149466 19.9999 0)
(0.149541 19.9999 0)
(0.149616 19.9999 0)
(0.149692 19.9999 0)
(0.149767 19.9999 0)
(0.149842 19.9999 0)
(0.149918 19.9999 0)
(0.149993 19.9999 0)
(0.150069 19.9999 0)
(0.150144 19.9999 0)
(0.15022 19.9999 0)
(0.150295 19.9999 0)
(0.150371 19.9999 0)
(0.150447 19.9999 0)
(0.150522 19.9999 0)
(0.150598 19.9999 0)
(0.150674 19.9999 0)
(0.15075 19.9999 0)
(0.150826 19.9999 0)
(0.150901 19.9999 0)
(0.150977 19.9999 0)
(0.151053 19.9999 0)
(0.151129 19.9999 0)
(0.151205 19.9999 0)
(0.151281 19.9999 0)
(0.151357 19.9999 0)
(0.151433 19.9999 0)
(0.151509 19.9999 0)
(0.151585 19.9999 0)
(0.151662 19.9999 0)
(0.151738 19.9999 0)
(0.151814 19.9999 0)
(0.15189 19.9999 0)
(0.151966 19.9999 0)
(0.152043 19.9999 0)
(0.152119 19.9999 0)
(0.152195 19.9999 0)
(0.152272 19.9999 0)
(0.152348 19.9999 0)
(0.152425 19.9999 0)
(0.152501 19.9999 0)
(0.152578 19.9999 0)
(0.152654 19.9999 0)
(0.152731 19.9999 0)
(0.152807 19.9999 0)
(0.152884 19.9999 0)
(0.152961 19.9999 0)
(0.153037 19.9999 0)
(0.153114 19.9999 0)
(0.153191 19.9999 0)
(0.153267 19.9999 0)
(0.153344 19.9999 0)
(0.153421 19.9999 0)
(0.153498 19.9999 0)
(0.153575 19.9999 0)
(0.153651 19.9999 0)
(0.153728 19.9999 0)
(0.153805 19.9999 0)
(0.153882 19.9999 0)
(0.153959 19.9999 0)
(0.154036 19.9999 0)
(0.154113 19.9999 0)
(0.15419 19.9999 0)
(0.154267 19.9999 0)
(0.154344 19.9999 0)
(0.154421 19.9999 0)
(0.154498 19.9999 0)
(0.154576 19.9999 0)
(0.154653 19.9999 0)
(0.15473 19.9999 0)
(0.154807 19.9999 0)
(0.154884 19.9999 0)
(0.154962 19.9999 0)
(0.155039 19.9999 0)
(0.155116 19.9999 0)
(0.155194 19.9999 0)
(0.155271 19.9999 0)
(0.155348 19.9999 0)
(0.155426 19.9999 0)
(0.155503 19.9999 0)
(0.15558 19.9999 0)
(0.155658 19.9999 0)
(0.155735 19.9999 0)
(0.155813 19.9999 0)
(0.15589 19.9999 0)
(0.155968 19.9999 0)
(0.156045 19.9999 0)
(0.156123 19.9999 0)
(0.156201 19.9999 0)
(0.156278 19.9999 0)
(0.156356 19.9999 0)
(0.156433 19.9999 0)
(0.156511 19.9999 0)
(0.156589 19.9999 0)
(0.156666 19.9999 0)
(0.156744 19.9999 0)
(0.156822 19.9999 0)
(0.1569 19.9999 0)
(0.156977 19.9999 0)
(0.157055 19.9999 0)
(0.157133 19.9999 0)
(0.157211 19.9999 0)
(0.157289 19.9999 0)
(0.157366 19.9999 0)
(0.157444 19.9999 0)
(0.157522 19.9999 0)
(0.1576 19.9999 0)
(0.157678 19.9999 0)
(0.157756 19.9999 0)
(0.157834 19.9999 0)
(0.157912 19.9999 0)
(0.15799 19.9999 0)
(0.158068 19.9999 0)
(0.158146 19.9999 0)
(0.158224 19.9999 0)
(0.158302 19.9999 0)
(0.15838 19.9999 0)
(0.158458 19.9999 0)
(0.158536 19.9999 0)
(0.158614 19.9999 0)
(0.158693 19.9999 0)
(0.158771 19.9999 0)
(0.158849 19.9999 0)
(0.158927 19.9999 0)
(0.159005 19.9999 0)
(0.159084 19.9999 0)
(0.159162 19.9999 0)
(0.15924 19.9999 0)
(0.159318 19.9999 0)
(0.159397 19.9999 0)
(0.159475 19.9999 0)
(0.159553 19.9999 0)
(0.159632 19.9999 0)
(0.15971 19.9999 0)
(0.159789 19.9999 0)
(0.159867 19.9999 0)
(0.159946 19.9999 0)
(0.160024 19.9999 0)
(0.160103 19.9999 0)
(0.160181 19.9999 0)
(0.16026 19.9999 0)
(0.160338 19.9999 0)
(0.160417 19.9999 0)
(0.160496 19.9999 0)
(0.160574 19.9999 0)
(0.160653 19.9999 0)
(0.160732 19.9999 0)
(0.160811 19.9999 0)
(0.160889 19.9999 0)
(0.160968 19.9999 0)
(0.161047 19.9999 0)
(0.161126 19.9999 0)
(0.161205 19.9999 0)
(0.161284 19.9999 0)
(0.161363 19.9999 0)
(0.161442 19.9999 0)
(0.161522 19.9999 0)
(0.161601 19.9999 0)
(0.16168 19.9999 0)
(0.16176 19.9999 0)
(0.161839 19.9999 0)
(0.161919 19.9999 0)
(0.161998 19.9999 0)
(0.162078 19.9999 0)
(0.162158 19.9999 0)
(0.162238 19.9999 0)
(0.162318 19.9999 0)
(0.162398 19.9999 0)
(0.162478 19.9999 0)
(0.162558 19.9999 0)
(0.162638 19.9999 0)
(0.162719 19.9999 0)
(0.162799 19.9999 0)
(0.16288 19.9999 0)
(0.162961 19.9999 0)
(0.163042 19.9999 0)
(0.163123 19.9999 0)
(0.163204 19.9999 0)
(0.163286 19.9999 0)
(0.163367 19.9999 0)
(0.163449 19.9999 0)
(0.163531 19.9999 0)
(0.163613 19.9999 0)
(0.163695 20 0)
(0.163777 20 0)
(0.163859 20 0)
(0.163941 20 0)
(0.164023 20 0)
(0.164106 20 0)
(0.164188 20 0)
(0.16427 20 0)
(0.164352 20 0)
(0.164434 20 0)
(0.164517 20 0)
(0.164602 20 0)
(0.164689 20 0)
(0.164781 20 0)
(0.164884 20 0)
(0.164988 20 0)
(0.203714 20.0311 0)
(0.217515 20.0346 0)
(0.234238 20.0499 0)
(0.245939 20.0543 0)
(0.252098 20.0511 0)
(0.254281 20.0449 0)
(0.253982 20.038 0)
(0.25228 20.0315 0)
(0.249892 20.0259 0)
(0.247261 20.0213 0)
(0.244644 20.0175 0)
(0.242175 20.0145 0)
(0.239914 20.0122 0)
(0.237877 20.0103 0)
(0.236059 20.0088 0)
(0.234442 20.0076 0)
(0.233007 20.0066 0)
(0.231731 20.0058 0)
(0.230595 20.0051 0)
(0.229583 20.0046 0)
(0.228678 20.0041 0)
(0.227868 20.0036 0)
(0.227141 20.0033 0)
(0.226487 20.003 0)
(0.225897 20.0027 0)
(0.225366 20.0025 0)
(0.224886 20.0022 0)
(0.224451 20.002 0)
(0.224058 20.0019 0)
(0.223702 20.0017 0)
(0.223379 20.0016 0)
(0.223086 20.0015 0)
(0.22282 20.0013 0)
(0.222579 20.0012 0)
(0.222361 20.0011 0)
(0.222163 20.0011 0)
(0.221984 20.001 0)
(0.221822 20.0009 0)
(0.221675 20.0008 0)
(0.221543 20.0008 0)
(0.221425 20.0007 0)
(0.221318 20.0007 0)
(0.221223 20.0006 0)
(0.221138 20.0006 0)
(0.221063 20.0005 0)
(0.220997 20.0005 0)
(0.220938 20.0005 0)
(0.220888 20.0004 0)
(0.220844 20.0004 0)
(0.220808 20.0004 0)
(0.220777 20.0003 0)
(0.220752 20.0003 0)
(0.220732 20.0003 0)
(0.220717 20.0003 0)
(0.220707 20.0002 0)
(0.220701 20.0002 0)
(0.220698 20.0002 0)
(0.2207 20.0002 0)
(0.220705 20.0002 0)
(0.220713 20.0002 0)
(0.220724 20.0001 0)
(0.220738 20.0001 0)
(0.220754 20.0001 0)
(0.220772 20.0001 0)
(0.220793 20.0001 0)
(0.220815 20.0001 0)
(0.22084 20.0001 0)
(0.220866 20.0001 0)
(0.220893 20.0001 0)
(0.220922 20.0001 0)
(0.220953 20.0001 0)
(0.220984 20.0001 0)
(0.221017 20.0001 0)
(0.221051 20.0001 0)
(0.221086 20.0001 0)
(0.221122 20.0001 0)
(0.221159 20.0001 0)
(0.221196 20.0001 0)
(0.221234 20.0001 0)
(0.221273 20.0001 0)
(0.221312 20.0001 0)
(0.221351 20.0001 0)
(0.22139 20.0001 0)
(0.22143 20.0001 0)
(0.221469 20.0001 0)
(0.221509 20.0001 0)
(0.221548 20.0001 0)
(0.221588 20.0001 0)
(0.221628 20.0001 0)
(0.221667 20.0001 0)
(0.221707 20.0001 0)
(0.221747 20.0001 0)
(0.221787 20.0001 0)
(0.221827 20.0001 0)
(0.221868 20.0001 0)
(0.221908 20.0001 0)
(0.221949 20.0001 0)
(0.221989 20.0001 0)
(0.22203 20.0001 0)
(0.222071 20.0001 0)
(0.222112 20.0001 0)
(0.222153 20.0001 0)
(0.222194 20.0001 0)
(0.222235 20.0001 0)
(0.222276 20.0001 0)
(0.222318 20.0001 0)
(0.222359 20.0001 0)
(0.222401 20.0001 0)
(0.222443 20.0001 0)
(0.222485 20.0001 0)
(0.222527 20.0001 0)
(0.22257 20.0001 0)
(0.222612 20.0001 0)
(0.222654 20.0001 0)
(0.222697 20.0001 0)
(0.22274 20.0001 0)
(0.222783 20.0001 0)
(0.222825 20.0001 0)
(0.222868 20.0001 0)
(0.222911 20.0001 0)
(0.222953 20.0001 0)
(0.222995 20.0001 0)
(0.223038 20.0001 0)
(0.22308 20.0001 0)
(0.223122 20.0001 0)
(0.223163 20.0001 0)
(0.223205 20.0001 0)
(0.223247 20.0002 0)
(0.223288 20.0002 0)
(0.22333 20.0002 0)
(0.223371 20.0002 0)
(0.223412 20.0002 0)
(0.223453 20.0002 0)
(0.223495 20.0002 0)
(0.223536 20.0002 0)
(0.223577 20.0002 0)
(0.223618 20.0002 0)
(0.22366 20.0002 0)
(0.223701 20.0002 0)
(0.223742 20.0001 0)
(0.223784 20.0001 0)
(0.223825 20.0001 0)
(0.223867 20.0001 0)
(0.223908 20.0001 0)
(0.22395 20.0001 0)
(0.223992 20.0001 0)
(0.224033 20.0001 0)
(0.224075 20.0001 0)
(0.224117 20.0001 0)
(0.224159 20.0001 0)
(0.224201 20.0001 0)
(0.224243 20.0001 0)
(0.224286 20.0001 0)
(0.224328 20.0001 0)
(0.22437 20.0001 0)
(0.224412 20.0001 0)
(0.224454 20.0001 0)
(0.224496 20.0001 0)
(0.224539 20.0001 0)
(0.224581 20.0001 0)
(0.224623 20.0001 0)
(0.224665 20.0001 0)
(0.224707 20.0001 0)
(0.224749 20.0001 0)
(0.224791 20.0001 0)
(0.224833 20.0001 0)
(0.224875 20.0001 0)
(0.224917 20.0001 0)
(0.22496 20.0001 0)
(0.225002 20.0001 0)
(0.225044 20.0001 0)
(0.225086 20.0001 0)
(0.225128 20.0001 0)
(0.22517 20.0001 0)
(0.225212 20.0001 0)
(0.225254 20.0001 0)
(0.225296 20.0001 0)
(0.225338 20.0001 0)
(0.22538 20.0001 0)
(0.225423 20.0001 0)
(0.225465 20.0001 0)
(0.225507 20.0001 0)
(0.225549 20.0001 0)
(0.225591 20.0001 0)
(0.225633 20.0001 0)
(0.225675 20.0001 0)
(0.225718 20.0001 0)
(0.22576 20.0001 0)
(0.225802 20.0001 0)
(0.225844 20.0001 0)
(0.225886 20.0001 0)
(0.225928 20.0001 0)
(0.225971 20.0001 0)
(0.226013 20.0001 0)
(0.226055 20.0001 0)
(0.226098 20.0001 0)
(0.22614 20.0001 0)
(0.226182 20.0001 0)
(0.226225 20.0001 0)
(0.226267 20.0001 0)
(0.22631 20.0001 0)
(0.226353 20.0001 0)
(0.226395 20.0001 0)
(0.226438 20.0001 0)
(0.22648 20.0001 0)
(0.226523 20.0001 0)
(0.226566 20.0001 0)
(0.226609 20.0001 0)
(0.226651 20.0001 0)
(0.226694 20.0001 0)
(0.226737 20.0001 0)
(0.22678 20.0001 0)
(0.226822 20.0001 0)
(0.226865 20.0001 0)
(0.226908 20.0001 0)
(0.226951 20.0001 0)
(0.226993 20.0001 0)
(0.227036 20.0001 0)
(0.227079 20.0001 0)
(0.227122 20.0001 0)
(0.227164 20.0001 0)
(0.227207 20.0001 0)
(0.22725 20.0001 0)
(0.227293 20.0001 0)
(0.227335 20.0001 0)
(0.227378 20.0001 0)
(0.227421 20.0001 0)
(0.227463 20.0001 0)
(0.227506 20.0001 0)
(0.227549 20.0001 0)
(0.227592 20.0001 0)
(0.227634 20.0001 0)
(0.227677 20.0001 0)
(0.22772 20.0001 0)
(0.227763 20.0001 0)
(0.227806 20.0001 0)
(0.227849 20.0001 0)
(0.227892 20.0001 0)
(0.227935 20.0001 0)
(0.227977 20.0001 0)
(0.22802 20.0001 0)
(0.228063 20.0001 0)
(0.228106 20.0001 0)
(0.228149 20.0001 0)
(0.228193 20.0001 0)
(0.228236 20.0001 0)
(0.228279 20.0001 0)
(0.228322 20.0001 0)
(0.228365 20.0001 0)
(0.228408 20.0001 0)
(0.228451 20.0001 0)
(0.228494 20.0001 0)
(0.228538 20.0001 0)
(0.228581 20.0001 0)
(0.228624 20.0001 0)
(0.228667 20.0001 0)
(0.228711 20.0001 0)
(0.228754 20.0001 0)
(0.228797 20.0001 0)
(0.228841 20.0001 0)
(0.228884 20.0001 0)
(0.228927 20.0001 0)
(0.228971 20.0001 0)
(0.229014 20.0001 0)
(0.229057 20.0001 0)
(0.229101 20.0001 0)
(0.229144 20.0001 0)
(0.229188 20.0001 0)
(0.229231 20.0001 0)
(0.229275 20.0001 0)
(0.229318 20.0001 0)
(0.229362 20.0001 0)
(0.229405 20.0001 0)
(0.229449 20.0001 0)
(0.229492 20.0001 0)
(0.229536 20.0001 0)
(0.229579 20.0001 0)
(0.229623 20.0001 0)
(0.229666 20.0001 0)
(0.22971 20.0001 0)
(0.229753 20.0001 0)
(0.229797 20.0001 0)
(0.229841 20.0001 0)
(0.229884 20.0001 0)
(0.229928 20.0001 0)
(0.229972 20.0001 0)
(0.230015 20.0001 0)
(0.230059 20.0001 0)
(0.230103 20.0001 0)
(0.230146 20.0001 0)
(0.23019 20.0001 0)
(0.230234 20.0001 0)
(0.230278 20.0001 0)
(0.230321 20.0001 0)
(0.230365 20.0001 0)
(0.230409 20.0001 0)
(0.230453 20.0001 0)
(0.230497 20.0001 0)
(0.23054 20.0001 0)
(0.230584 20.0001 0)
(0.230628 20.0001 0)
(0.230672 20.0001 0)
(0.230716 20.0001 0)
(0.23076 20.0001 0)
(0.230803 20.0001 0)
(0.230847 20.0001 0)
(0.230891 20.0001 0)
(0.230935 20.0001 0)
(0.230979 20.0001 0)
(0.231023 20.0001 0)
(0.231067 20.0001 0)
(0.231111 20.0001 0)
(0.231155 20.0001 0)
(0.231199 20.0001 0)
(0.231243 20.0001 0)
(0.231287 20.0001 0)
(0.231331 20.0001 0)
(0.231375 20.0001 0)
(0.231419 20.0001 0)
(0.231463 20.0001 0)
(0.231507 20.0001 0)
(0.231551 20.0001 0)
(0.231595 20.0001 0)
(0.231639 20.0001 0)
(0.231683 20.0001 0)
(0.231727 20.0001 0)
(0.231771 20.0001 0)
(0.231815 20.0001 0)
(0.231859 20.0001 0)
(0.231903 20.0001 0)
(0.231947 20.0001 0)
(0.231991 20.0001 0)
(0.232036 20.0001 0)
(0.23208 20.0001 0)
(0.232124 20.0001 0)
(0.232168 20.0001 0)
(0.232212 20.0001 0)
(0.232256 20.0001 0)
(0.232301 20.0001 0)
(0.232345 20.0001 0)
(0.232389 20.0001 0)
(0.232433 20.0001 0)
(0.232478 20.0001 0)
(0.232522 20.0001 0)
(0.232566 20.0001 0)
(0.23261 20.0001 0)
(0.232655 20.0001 0)
(0.232699 20.0001 0)
(0.232743 20.0001 0)
(0.232788 20.0001 0)
(0.232832 20.0001 0)
(0.232876 20.0001 0)
(0.232921 20.0001 0)
(0.232965 20.0001 0)
(0.233009 20.0001 0)
(0.233054 20.0001 0)
(0.233098 20.0001 0)
(0.233142 20.0001 0)
(0.233187 20.0001 0)
(0.233231 20.0001 0)
(0.233276 20.0001 0)
(0.23332 20.0001 0)
(0.233365 20.0001 0)
(0.233409 20.0001 0)
(0.233454 20.0001 0)
(0.233498 20.0001 0)
(0.233543 20.0001 0)
(0.233587 20.0001 0)
(0.233632 20.0001 0)
(0.233676 20.0001 0)
(0.233721 20.0001 0)
(0.233765 20.0001 0)
(0.23381 20.0001 0)
(0.233854 20.0001 0)
(0.233899 20.0001 0)
(0.233944 20.0001 0)
(0.233988 20.0001 0)
(0.234033 20.0001 0)
(0.234077 20.0001 0)
(0.234122 20.0001 0)
(0.234167 20.0001 0)
(0.234211 20.0001 0)
(0.234256 20.0001 0)
(0.234301 20.0001 0)
(0.234345 20.0001 0)
(0.23439 20.0001 0)
(0.234435 20.0001 0)
(0.23448 20.0001 0)
(0.234524 20.0001 0)
(0.234569 20.0001 0)
(0.234614 20.0001 0)
(0.234659 20.0001 0)
(0.234703 20.0001 0)
(0.234748 20.0001 0)
(0.234793 20.0001 0)
(0.234838 20.0001 0)
(0.234883 20.0001 0)
(0.234928 20.0001 0)
(0.234972 20.0001 0)
(0.235017 20.0001 0)
(0.235062 20.0001 0)
(0.235107 20.0001 0)
(0.235152 20.0001 0)
(0.235197 20.0001 0)
(0.235242 20.0001 0)
(0.235287 20.0001 0)
(0.235332 20.0001 0)
(0.235377 20.0001 0)
(0.235422 20.0001 0)
(0.235467 20.0001 0)
(0.235512 20.0001 0)
(0.235557 20.0001 0)
(0.235602 20.0001 0)
(0.235647 20.0001 0)
(0.235692 20.0001 0)
(0.235737 20.0001 0)
(0.235782 20.0001 0)
(0.235827 20.0001 0)
(0.235872 20.0001 0)
(0.235917 20.0001 0)
(0.235962 20.0001 0)
(0.236007 20.0001 0)
(0.236052 20.0001 0)
(0.236098 20.0001 0)
(0.236143 20.0001 0)
(0.236188 20.0001 0)
(0.236233 20.0001 0)
(0.236278 20.0001 0)
(0.236324 20.0001 0)
(0.236369 20.0001 0)
(0.236414 20.0001 0)
(0.236459 20.0001 0)
(0.236505 20.0001 0)
(0.23655 20.0001 0)
(0.236595 20.0001 0)
(0.23664 20.0001 0)
(0.236686 20.0001 0)
(0.236731 20.0001 0)
(0.236776 20.0001 0)
(0.236822 20.0001 0)
(0.236867 20.0001 0)
(0.236912 20.0001 0)
(0.236958 20.0001 0)
(0.237003 20.0001 0)
(0.237049 20.0001 0)
(0.237094 20.0001 0)
(0.237139 20.0001 0)
(0.237185 20.0001 0)
(0.23723 20.0001 0)
(0.237276 20.0001 0)
(0.237321 20.0001 0)
(0.237367 20.0001 0)
(0.237412 20.0001 0)
(0.237458 20.0001 0)
(0.237503 20.0001 0)
(0.237549 20.0001 0)
(0.237594 20.0001 0)
(0.23764 20.0001 0)
(0.237685 20.0001 0)
(0.237731 20.0001 0)
(0.237777 20.0001 0)
(0.237822 20.0001 0)
(0.237868 20.0001 0)
(0.237913 20.0001 0)
(0.237959 20.0001 0)
(0.238005 20.0001 0)
(0.23805 20.0001 0)
(0.238096 20.0001 0)
(0.238142 20.0001 0)
(0.238188 20.0001 0)
(0.238233 20.0001 0)
(0.238279 20.0001 0)
(0.238325 20.0001 0)
(0.23837 20.0001 0)
(0.238416 20.0001 0)
(0.238462 20.0001 0)
(0.238508 20.0001 0)
(0.238554 20.0001 0)
(0.238599 20.0001 0)
(0.238645 20.0001 0)
(0.238691 20.0001 0)
(0.238737 20.0001 0)
(0.238783 20.0001 0)
(0.238829 20.0001 0)
(0.238874 20.0001 0)
(0.23892 20.0001 0)
(0.238966 20.0001 0)
(0.239012 20.0001 0)
(0.239058 20.0001 0)
(0.239104 20.0001 0)
(0.23915 20.0001 0)
(0.239196 20.0001 0)
(0.239242 20.0001 0)
(0.239288 20.0001 0)
(0.239334 20.0001 0)
(0.23938 20.0001 0)
(0.239426 20.0001 0)
(0.239472 20.0001 0)
(0.239518 20.0001 0)
(0.239564 20.0001 0)
(0.23961 20.0001 0)
(0.239656 20.0001 0)
(0.239702 20.0001 0)
(0.239749 20.0001 0)
(0.239795 20.0001 0)
(0.239841 20.0001 0)
(0.239887 20.0001 0)
(0.239933 20.0001 0)
(0.239979 20.0001 0)
(0.240025 20.0001 0)
(0.240072 20.0001 0)
(0.240118 20.0001 0)
(0.240164 20.0001 0)
(0.24021 20.0001 0)
(0.240257 20.0001 0)
(0.240303 20.0001 0)
(0.240349 20.0001 0)
(0.240395 20.0001 0)
(0.240442 20.0001 0)
(0.240488 20.0001 0)
(0.240534 20.0001 0)
(0.240581 20.0001 0)
(0.240627 20.0001 0)
(0.240673 20.0001 0)
(0.24072 20.0001 0)
(0.240766 20.0001 0)
(0.240812 20.0001 0)
(0.240859 20.0001 0)
(0.240905 20.0001 0)
(0.240952 20.0001 0)
(0.240998 20.0001 0)
(0.241044 20.0001 0)
(0.241091 20.0001 0)
(0.241137 20.0001 0)
(0.241184 20.0001 0)
(0.24123 20.0001 0)
(0.241277 20.0001 0)
(0.241323 20.0001 0)
(0.24137 20.0001 0)
(0.241416 20.0001 0)
(0.241463 20.0001 0)
(0.24151 20.0001 0)
(0.241556 20.0001 0)
(0.241603 20.0001 0)
(0.241649 20.0001 0)
(0.241696 20.0001 0)
(0.241743 20.0001 0)
(0.241789 20.0001 0)
(0.241836 20.0001 0)
(0.241883 20.0001 0)
(0.241929 20.0001 0)
(0.241976 20.0001 0)
(0.242023 20.0001 0)
(0.242069 20.0001 0)
(0.242116 20.0001 0)
(0.242163 20.0001 0)
(0.242209 20.0001 0)
(0.242256 20.0001 0)
(0.242303 20.0001 0)
(0.24235 20.0001 0)
(0.242396 20.0001 0)
(0.242443 20.0001 0)
(0.24249 20.0001 0)
(0.242537 20.0001 0)