/*--------------------------------*- C++ -*----------------------------------*\
| =========                 |                                                 |
| \\      /  F ield         | OpenFOAM: The Open Source CFD Toolbox           |
|  \\    /   O peration     | Version:  2512                                  |
|   \\  /    A nd           | Website:  www.openfoam.com                      |
|    \\/     M anipulation  |                                                 |
\*---------------------------------------------------------------------------*/
FoamFile
{
    version     2.0;
    format      ascii;
    arch        "LSB;label=32;scalar=64";
    class       volScalarField;
    location    "0.003";
    object      k;
}
// * * * * * * * * * * * * * * * * * * * * * * * * * * * * * * * * * * * * * //

dimensions      [0 2 -2 0 0 0 0];

internalField   nonuniform List<scalar> 
100000
(
0.113674
0.0222318
0.00911473
0.00497863
0.00324404
0.00238663
0.00191422
0.00163356
0.00145586
0.00133667
0.00125252
0.00119043
0.00114286
0.00110529
0.00107489
0.00104981
0.0010288
0.00101099
0.000995745
0.000982603
0.0009712
0.000961257
0.00095255
0.0009449
0.000938163
0.000932217
0.000926963
0.000922316
0.000918206
0.000914573
0.000911365
0.000908538
0.000906052
0.000903876
0.000901978
0.000900334
0.000898921
0.000897719
0.000896709
0.000895876
0.000895205
0.000894682
0.000894296
0.000894036
0.000893892
0.000893855
0.000893917
0.000894071
0.00089431
0.000894629
0.000895022
0.000895483
0.000896009
0.000896596
0.000897239
0.000897934
0.000898679
0.000899471
0.000900306
0.000901182
0.000902096
0.000903046
0.000904031
0.000905047
0.000906094
0.000907168
0.000908268
0.000909391
0.000910536
0.000911698
0.000912875
0.000914064
0.000915259
0.000916459
0.000917659
0.000918857
0.000920051
0.00092124
0.000922423
0.0009236
0.000924774
0.000925944
0.000927112
0.000928278
0.000929445
0.000930612
0.00093178
0.00093295
0.000934122
0.000935296
0.000936473
0.000937652
0.000938834
0.000940019
0.000941208
0.0009424
0.000943596
0.000944795
0.000945999
0.000947207
0.00094842
0.000949637
0.000950859
0.000952086
0.000953318
0.000954556
0.000955799
0.000957048
0.000958302
0.000959561
0.000960825
0.000962093
0.000963364
0.000964636
0.00096591
0.000967183
0.000968455
0.000969726
0.000970994
0.000972261
0.000973526
0.00097479
0.000976053
0.000977316
0.000978579
0.000979843
0.000981107
0.000982373
0.00098364
0.000984909
0.00098618
0.000987453
0.000988728
0.000990007
0.000991288
0.000992572
0.000993859
0.000995149
0.000996444
0.000997742
0.000999044
0.00100035
0.00100166
0.00100297
0.00100429
0.00100561
0.00100694
0.00100827
0.0010096
0.00101093
0.00101227
0.00101361
0.00101495
0.00101629
0.00101763
0.00101898
0.00102033
0.00102168
0.00102304
0.00102439
0.00102575
0.00102712
0.00102848
0.00102985
0.00103122
0.00103259
0.00103397
0.00103535
0.00103673
0.00103812
0.00103951
0.0010409
0.0010423
0.0010437
0.0010451
0.00104651
0.00104792
0.00104933
0.00105075
0.00105217
0.00105359
0.00105502
0.00105645
0.00105788
0.00105931
0.00106075
0.00106219
0.00106363
0.00106508
0.00106653
0.00106798
0.00106944
0.00107089
0.00107236
0.00107382
0.0010753
0.00107677
0.00107825
0.00107973
0.00108122
0.00108271
0.00108421
0.00108571
0.00108722
0.00108872
0.00109024
0.00109175
0.00109327
0.0010948
0.00109632
0.00109786
0.00109939
0.00110093
0.00110247
0.00110401
0.00110556
0.00110712
0.00110867
0.00111023
0.00111179
0.00111336
0.00111493
0.0011165
0.00111808
0.00111966
0.00112124
0.00112283
0.00112443
0.00112602
0.00112763
0.00112923
0.00113084
0.00113245
0.00113407
0.0011357
0.00113732
0.00113896
0.00114059
0.00114223
0.00114388
0.00114552
0.00114718
0.00114884
0.0011505
0.00115216
0.00115383
0.00115551
0.00115719
0.00115887
0.00116056
0.00116225
0.00116395
0.00116565
0.00116736
0.00116907
0.00117079
0.00117251
0.00117424
0.00117597
0.0011777
0.00117944
0.00118118
0.00118293
0.00118469
0.00118644
0.00118821
0.00118998
0.00119175
0.00119353
0.00119531
0.00119709
0.00119889
0.00120068
0.00120248
0.00120429
0.0012061
0.00120792
0.00120974
0.00121156
0.00121339
0.00121523
0.00121707
0.00121892
0.00122077
0.00122262
0.00122449
0.00122635
0.00122822
0.0012301
0.00123198
0.00123387
0.00123576
0.00123766
0.00123956
0.00124147
0.00124338
0.0012453
0.00124722
0.00124915
0.00125109
0.00125303
0.00125497
0.00125692
0.00125888
0.00126084
0.0012628
0.00126478
0.00126675
0.00126874
0.00127072
0.00127272
0.00127472
0.00127672
0.00127873
0.00128075
0.00128277
0.0012848
0.00128683
0.00128887
0.00129091
0.00129296
0.00129502
0.00129708
0.00129915
0.00130122
0.0013033
0.00130539
0.00130748
0.00130957
0.00131168
0.00131378
0.0013159
0.00131802
0.00132015
0.00132228
0.00132442
0.00132656
0.00132871
0.00133087
0.00133303
0.0013352
0.00133737
0.00133955
0.00134174
0.00134393
0.00134613
0.00134834
0.00135055
0.00135277
0.00135499
0.00135722
0.00135946
0.0013617
0.00136395
0.00136621
0.00136847
0.00137074
0.00137302
0.0013753
0.00137759
0.00137988
0.00138218
0.00138449
0.0013868
0.00138913
0.00139145
0.00139379
0.00139613
0.00139848
0.00140083
0.00140319
0.00140556
0.00140793
0.00141031
0.0014127
0.0014151
0.0014175
0.00141991
0.00142232
0.00142474
0.00142717
0.00142961
0.00143205
0.0014345
0.00143696
0.00143942
0.00144189
0.00144437
0.00144686
0.00144935
0.00145185
0.00145435
0.00145687
0.00145939
0.00146191
0.00146445
0.00146699
0.00146954
0.0014721
0.00147466
0.00147723
0.00147981
0.0014824
0.00148499
0.00148759
0.0014902
0.00149281
0.00149544
0.00149807
0.0015007
0.00150335
0.001506
0.00150866
0.00151133
0.001514
0.00151669
0.00151938
0.00152208
0.00152478
0.0015275
0.00153022
0.00153295
0.00153568
0.00153843
0.00154118
0.00154394
0.00154671
0.00154948
0.00155227
0.00155506
0.00155786
0.00156066
0.00156348
0.0015663
0.00156913
0.00157197
0.00157482
0.00157767
0.00158054
0.00158341
0.00158629
0.00158917
0.00159207
0.00159497
0.00159789
0.00160081
0.00160373
0.00160667
0.00160962
0.00161257
0.00161553
0.0016185
0.00162148
0.00162446
0.00162746
0.00163046
0.00163347
0.00163649
0.00163952
0.00164256
0.0016456
0.00164866
0.00165172
0.00165479
0.00165787
0.00166096
0.00166405
0.00166716
0.00167027
0.00167339
0.00167652
0.00167966
0.00168281
0.00168597
0.00168914
0.00169231
0.00169549
0.00169869
0.00170189
0.0017051
0.00170832
0.00171154
0.00171478
0.00171803
0.00172128
0.00172455
0.00172782
0.0017311
0.00173439
0.00173769
0.001741
0.00174432
0.00174764
0.00175098
0.00175432
0.00175768
0.00176104
0.00176441
0.00176779
0.00177119
0.00177459
0.001778
0.00178141
0.00178484
0.00178828
0.00179173
0.00179518
0.00179865
0.00180212
0.00180561
0.0018091
0.0018126
0.00181612
0.00181964
0.00182317
0.00182671
0.00183026
0.00183382
0.00183739
0.00184097
0.00184456
0.00184816
0.00185177
0.00185539
0.00185901
0.00186265
0.0018663
0.00186995
0.00187362
0.0018773
0.00188098
0.00188468
0.00188838
0.0018921
0.00189583
0.00189956
0.00190331
0.00190706
0.00191083
0.0019146
0.00191839
0.00192218
0.00192599
0.0019298
0.00193362
0.00193746
0.0019413
0.00194516
0.00194903
0.0019529
0.00195679
0.00196068
0.00196459
0.0019685
0.00197243
0.00197637
0.00198031
0.00198427
0.00198824
0.00199221
0.0019962
0.0020002
0.00200421
0.00200823
0.00201226
0.00201629
0.00202034
0.0020244
0.00202848
0.00203256
0.00203665
0.00204075
0.00204486
0.00204899
0.00205312
0.00205726
0.00206142
0.00206558
0.00206976
0.00207395
0.00207814
0.00208235
0.00208657
0.0020908
0.00209504
0.00209929
0.00210355
0.00210782
0.0021121
0.00211639
0.0021207
0.00212501
0.00212934
0.00213368
0.00213802
0.00214238
0.00214675
0.00215113
0.00215552
0.00215992
0.00216433
0.00216876
0.00217319
0.00217764
0.00218209
0.00218656
0.00219104
0.00219553
0.00220003
0.00220454
0.00220906
0.00221359
0.00221814
0.00222269
0.00222726
0.00223184
0.00223642
0.00224102
0.00224563
0.00225026
0.00225489
0.00225953
0.00226419
0.00226886
0.00227354
0.00227822
0.00228293
0.00228764
0.00229236
0.00229709
0.00230184
0.0023066
0.00231137
0.00231615
0.00232094
0.00232574
0.00233055
0.00233538
0.00234021
0.00234506
0.00234992
0.00235479
0.00235967
0.00236457
0.00236947
0.00237439
0.00237932
0.00238426
0.00238921
0.00239417
0.00239914
0.00240413
0.00240913
0.00241413
0.00241915
0.00242419
0.00242923
0.00243428
0.00243935
0.00244443
0.00244952
0.00245462
0.00245973
0.00246486
0.00246999
0.00247514
0.0024803
0.00248547
0.00249066
0.00249585
0.00250106
0.00250628
0.00251151
0.00251675
0.002522
0.00252727
0.00253254
0.00253783
0.00254313
0.00254844
0.00255377
0.0025591
0.00256445
0.00256981
0.00257518
0.00258057
0.00258596
0.00259137
0.00259679
0.00260222
0.00260766
0.00261311
0.00261858
0.00262406
0.00262955
0.00263505
0.00264056
0.00264609
0.00265163
0.00265718
0.00266274
0.00266831
0.0026739
0.00267949
0.0026851
0.00269072
0.00269636
0.002702
0.00270766
0.00271333
0.00271901
0.0027247
0.00273041
0.00273612
0.00274185
0.00274759
0.00275335
0.00275911
0.00276489
0.00277068
0.00277648
0.00278229
0.00278812
0.00279395
0.0027998
0.00280567
0.00281154
0.00281742
0.00282332
0.00282923
0.00283515
0.00284109
0.00284703
0.00285299
0.00285896
0.00286494
0.00287094
0.00287694
0.00288296
0.00288899
0.00289503
0.00290109
0.00290715
0.00291323
0.00291932
0.00292543
0.00293154
0.00293767
0.00294381
0.00294996
0.00295612
0.0029623
0.00296849
0.00297469
0.0029809
0.00298712
0.00299336
0.0029996
0.00300587
0.00301214
0.00301842
0.00302472
0.00303103
0.00303735
0.00304368
0.00305002
0.00305638
0.00306275
0.00306913
0.00307553
0.00308193
0.00308835
0.00309478
0.00310122
0.00310767
0.00311414
0.00312062
0.00312711
0.00313361
0.00314012
0.00314665
0.00315319
0.00315974
0.0031663
0.00317287
0.00317946
0.00318606
0.00319267
0.00319929
0.00320593
0.00321257
0.00321923
0.0032259
0.00323258
0.00323928
0.00324599
0.0032527
0.00325944
0.00326618
0.00327293
0.0032797
0.00328648
0.00329327
0.00330007
0.00330689
0.00331371
0.00332055
0.0033274
0.00333426
0.00334114
0.00334802
0.00335492
0.00336183
0.00336875
0.00337569
0.00338263
0.00338959
0.00339656
0.00340354
0.00341054
0.00341754
0.00342456
0.00343159
0.00343863
0.00344568
0.00345275
0.00345982
0.00346691
0.00347401
0.00348112
0.00348824
0.00349538
0.00350253
0.00350968
0.00351685
0.00352404
0.00353123
0.00353844
0.00354565
0.00355288
0.00356012
0.00356737
0.00357464
0.00358191
0.0035892
0.0035965
0.00360381
0.00361113
0.00361847
0.00362581
0.00363317
0.00364054
0.00364792
0.00365531
0.00366271
0.00367013
0.00367755
0.00368499
0.00369244
0.0036999
0.00370737
0.00371485
0.00372235
0.00372985
0.00373737
0.0037449
0.00375244
0.00375999
0.00376756
0.00377513
0.00378272
0.00379031
0.00379792
0.00380554
0.00381317
0.00382081
0.00382847
0.00383613
0.00384381
0.0038515
0.00385919
0.0038669
0.00387462
0.00388236
0.0038901
0.00389785
0.00390562
0.0039134
0.00392118
0.00392898
0.00393679
0.00394461
0.00395245
0.00396029
0.00396814
0.00397601
0.00398388
0.00399177
0.00399967
0.00400758
0.0040155
0.00402343
0.00403137
0.00403933
0.00404729
0.00405527
0.00406325
0.00407125
0.00407926
0.00408728
0.00409531
0.00410335
0.0041114
0.00411947
0.00412754
0.00413563
0.00414372
0.00415183
0.00415995
0.00416808
0.00417622
0.00418437
0.00419254
0.00420071
0.0042089
0.0042171
0.00422531
0.00423353
0.00424176
0.00425
0.00425826
0.00426653
0.00427481
0.0042831
0.0042914
0.00429971
0.00430804
0.00431638
0.00432473
0.0043331
0.00434148
0.00434987
0.00435827
0.00436669
0.00437512
0.00438356
0.00439202
0.0044005
0.00440898
0.00441749
0.00442601
0.00443454
0.00444309
0.00445165
0.00446024
0.00446884
0.00447746
0.00448609
0.00449475
0.00450343
0.00451212
0.00452084
0.00452958
0.00453834
0.00454713
0.00455594
0.00456478
0.00457364
0.00458253
0.00459146
0.00460041
0.0046094
0.00461842
0.00462748
0.00463657
0.00464571
0.00465489
0.00466411
0.00467338
0.00468271
0.00469209
0.00470152
0.00471102
0.00472058
0.0047302
0.0047399
0.00474968
0.00475953
0.00476946
0.00477948
0.00478959
0.00479978
0.00481007
0.00482046
0.00483098
0.00484166
0.00485254
0.00486384
0.00487715
0.0048941
0.29916
0.0581058
0.0160948
0.00680644
0.00413184
0.00318269
0.00279662
0.00262575
0.00254554
0.0025058
0.00248478
0.00247271
0.00246505
0.00245969
0.00245563
0.00245238
0.00244967
0.00244737
0.00244539
0.00244366
0.00244214
0.0024408
0.00243961
0.00243856
0.00243762
0.00243678
0.00243603
0.00243535
0.00243475
0.00243421
0.00243372
0.00243328
0.00243288
0.00243253
0.00243221
0.00243193
0.00243168
0.00243145
0.00243126
0.00243108
0.00243093
0.00243079
0.00243068
0.00243058
0.00243049
0.00243043
0.00243037
0.00243033
0.0024303
0.00243027
0.00243026
0.00243026
0.00243027
0.00243029
0.00243031
0.00243034
0.00243038
0.00243042
0.00243047
0.00243053
0.00243059
0.00243065
0.00243072
0.0024308
0.00243087
0.00243096
0.00243104
0.00243113
0.00243122
0.00243131
0.0024314
0.0024315
0.00243159
0.00243168
0.00243177
0.00243187
0.00243196
0.00243204
0.00243213
0.00243222
0.00243231
0.00243239
0.00243248
0.00243257
0.00243266
0.00243274
0.00243283
0.00243292
0.00243301
0.0024331
0.00243319
0.00243328
0.00243338
0.00243347
0.00243356
0.00243366
0.00243375
0.00243385
0.00243394
0.00243404
0.00243414
0.00243424
0.00243434
0.00243444
0.00243454
0.00243464
0.00243474
0.00243485
0.00243495
0.00243506
0.00243516
0.00243527
0.00243538
0.00243548
0.00243559
0.0024357
0.0024358
0.00243591
0.00243601
0.00243612
0.00243622
0.00243633
0.00243644
0.00243654
0.00243665
0.00243675
0.00243686
0.00243696
0.00243707
0.00243718
0.00243729
0.0024374
0.0024375
0.00243761
0.00243772
0.00243783
0.00243795
0.00243806
0.00243817
0.00243828
0.0024384
0.00243851
0.00243863
0.00243874
0.00243886
0.00243898
0.00243909
0.00243921
0.00243933
0.00243945
0.00243957
0.00243969
0.00243981
0.00243993
0.00244005
0.00244017
0.00244029
0.00244042
0.00244054
0.00244066
0.00244079
0.00244091
0.00244103
0.00244116
0.00244129
0.00244141
0.00244154
0.00244167
0.00244179
0.00244192
0.00244205
0.00244218
0.00244231
0.00244244
0.00244258
0.00244271
0.00244284
0.00244297
0.00244311
0.00244324
0.00244338
0.00244351
0.00244365
0.00244379
0.00244392
0.00244406
0.0024442
0.00244434
0.00244448
0.00244462
0.00244476
0.0024449
0.00244504
0.00244518
0.00244532
0.00244547
0.00244561
0.00244576
0.0024459
0.00244605
0.0024462
0.00244635
0.00244649
0.00244664
0.00244679
0.00244695
0.0024471
0.00244725
0.0024474
0.00244755
0.00244771
0.00244786
0.00244802
0.00244817
0.00244833
0.00244849
0.00244865
0.0024488
0.00244896
0.00244912
0.00244928
0.00244944
0.0024496
0.00244977
0.00244993
0.00245009
0.00245026
0.00245042
0.00245059
0.00245075
0.00245092
0.00245109
0.00245126
0.00245143
0.0024516
0.00245177
0.00245194
0.00245211
0.00245229
0.00245246
0.00245263
0.00245281
0.00245299
0.00245316
0.00245334
0.00245352
0.0024537
0.00245388
0.00245406
0.00245424
0.00245442
0.00245461
0.00245479
0.00245497
0.00245516
0.00245535
0.00245553
0.00245572
0.00245591
0.0024561
0.00245629
0.00245648
0.00245667
0.00245686
0.00245706
0.00245725
0.00245745
0.00245764
0.00245784
0.00245804
0.00245824
0.00245843
0.00245863
0.00245884
0.00245904
0.00245924
0.00245944
0.00245965
0.00245985
0.00246006
0.00246027
0.00246047
0.00246068
0.00246089
0.0024611
0.00246131
0.00246152
0.00246174
0.00246195
0.00246217
0.00246238
0.0024626
0.00246281
0.00246303
0.00246325
0.00246347
0.00246369
0.00246391
0.00246414
0.00246436
0.00246459
0.00246481
0.00246504
0.00246526
0.00246549
0.00246572
0.00246595
0.00246618
0.00246641
0.00246665
0.00246688
0.00246712
0.00246735
0.00246759
0.00246783
0.00246806
0.0024683
0.00246854
0.00246879
0.00246903
0.00246927
0.00246952
0.00246976
0.00247001
0.00247025
0.0024705
0.00247075
0.002471
0.00247125
0.00247151
0.00247176
0.00247201
0.00247227
0.00247252
0.00247278
0.00247304
0.0024733
0.00247356
0.00247382
0.00247408
0.00247435
0.00247461
0.00247488
0.00247514
0.00247541
0.00247568
0.00247595
0.00247622
0.00247649
0.00247677
0.00247704
0.00247732
0.00247759
0.00247787
0.00247815
0.00247843
0.00247871
0.00247899
0.00247927
0.00247956
0.00247984
0.00248013
0.00248042
0.0024807
0.00248099
0.00248128
0.00248158
0.00248187
0.00248216
0.00248246
0.00248275
0.00248305
0.00248335
0.00248365
0.00248395
0.00248425
0.00248456
0.00248486
0.00248516
0.00248547
0.00248578
0.00248609
0.0024864
0.00248671
0.00248702
0.00248734
0.00248765
0.00248797
0.00248828
0.0024886
0.00248892
0.00248924
0.00248957
0.00248989
0.00249021
0.00249054
0.00249087
0.0024912
0.00249153
0.00249186
0.00249219
0.00249252
0.00249286
0.00249319
0.00249353
0.00249387
0.00249421
0.00249455
0.00249489
0.00249523
0.00249558
0.00249592
0.00249627
0.00249662
0.00249697
0.00249732
0.00249767
0.00249803
0.00249838
0.00249874
0.0024991
0.00249946
0.00249982
0.00250018
0.00250054
0.00250091
0.00250127
0.00250164
0.00250201
0.00250238
0.00250275
0.00250312
0.00250349
0.00250387
0.00250425
0.00250462
0.002505
0.00250538
0.00250577
0.00250615
0.00250654
0.00250692
0.00250731
0.0025077
0.00250809
0.00250848
0.00250887
0.00250927
0.00250967
0.00251006
0.00251046
0.00251086
0.00251126
0.00251167
0.00251207
0.00251248
0.00251289
0.0025133
0.00251371
0.00251412
0.00251453
0.00251495
0.00251536
0.00251578
0.0025162
0.00251662
0.00251704
0.00251747
0.00251789
0.00251832
0.00251875
0.00251918
0.00251961
0.00252004
0.00252048
0.00252091
0.00252135
0.00252179
0.00252223
0.00252267
0.00252312
0.00252356
0.00252401
0.00252446
0.00252491
0.00252536
0.00252581
0.00252627
0.00252672
0.00252718
0.00252764
0.0025281
0.00252856
0.00252903
0.00252949
0.00252996
0.00253043
0.0025309
0.00253137
0.00253185
0.00253232
0.0025328
0.00253328
0.00253376
0.00253424
0.00253472
0.00253521
0.00253569
0.00253618
0.00253667
0.00253717
0.00253766
0.00253815
0.00253865
0.00253915
0.00253965
0.00254015
0.00254065
0.00254116
0.00254167
0.00254218
0.00254269
0.0025432
0.00254371
0.00254423
0.00254474
0.00254526
0.00254578
0.00254631
0.00254683
0.00254736
0.00254788
0.00254841
0.00254894
0.00254948
0.00255001
0.00255055
0.00255109
0.00255163
0.00255217
0.00255271
0.00255326
0.0025538
0.00255435
0.0025549
0.00255545
0.00255601
0.00255656
0.00255712
0.00255768
0.00255824
0.00255881
0.00255937
0.00255994
0.00256051
0.00256108
0.00256165
0.00256222
0.0025628
0.00256338
0.00256396
0.00256454
0.00256512
0.00256571
0.00256629
0.00256688
0.00256747
0.00256807
0.00256866
0.00256926
0.00256986
0.00257046
0.00257106
0.00257166
0.00257227
0.00257288
0.00257349
0.0025741
0.00257471
0.00257533
0.00257594
0.00257656
0.00257718
0.00257781
0.00257843
0.00257906
0.00257969
0.00258032
0.00258095
0.00258159
0.00258222
0.00258286
0.0025835
0.00258415
0.00258479
0.00258544
0.00258609
0.00258674
0.00258739
0.00258804
0.0025887
0.00258936
0.00259002
0.00259068
0.00259135
0.00259201
0.00259268
0.00259335
0.00259403
0.0025947
0.00259538
0.00259606
0.00259674
0.00259742
0.0025981
0.00259879
0.00259948
0.00260017
0.00260086
0.00260156
0.00260226
0.00260295
0.00260366
0.00260436
0.00260506
0.00260577
0.00260648
0.00260719
0.00260791
0.00260862
0.00260934
0.00261006
0.00261078
0.00261151
0.00261223
0.00261296
0.00261369
0.00261443
0.00261516
0.0026159
0.00261664
0.00261738
0.00261812
0.00261887
0.00261961
0.00262036
0.00262111
0.00262187
0.00262262
0.00262338
0.00262414
0.00262491
0.00262567
0.00262644
0.00262721
0.00262798
0.00262875
0.00262953
0.0026303
0.00263108
0.00263187
0.00263265
0.00263344
0.00263422
0.00263502
0.00263581
0.0026366
0.0026374
0.0026382
0.002639
0.00263981
0.00264061
0.00264142
0.00264223
0.00264304
0.00264386
0.00264468
0.0026455
0.00264632
0.00264714
0.00264797
0.0026488
0.00264963
0.00265046
0.00265129
0.00265213
0.00265297
0.00265381
0.00265466
0.0026555
0.00265635
0.0026572
0.00265806
0.00265891
0.00265977
0.00266063
0.00266149
0.00266236
0.00266322
0.00266409
0.00266496
0.00266584
0.00266671
0.00266759
0.00266847
0.00266935
0.00267024
0.00267113
0.00267201
0.00267291
0.0026738
0.0026747
0.0026756
0.0026765
0.0026774
0.00267831
0.00267921
0.00268012
0.00268104
0.00268195
0.00268287
0.00268379
0.00268471
0.00268563
0.00268656
0.00268749
0.00268842
0.00268935
0.00269029
0.00269123
0.00269217
0.00269311
0.00269405
0.002695
0.00269595
0.0026969
0.00269786
0.00269882
0.00269977
0.00270074
0.0027017
0.00270267
0.00270363
0.0027046
0.00270558
0.00270655
0.00270753
0.00270851
0.00270949
0.00271048
0.00271146
0.00271245
0.00271345
0.00271444
0.00271544
0.00271644
0.00271744
0.00271844
0.00271945
0.00272046
0.00272147
0.00272248
0.00272349
0.00272451
0.00272553
0.00272655
0.00272758
0.00272861
0.00272964
0.00273067
0.0027317
0.00273274
0.00273378
0.00273482
0.00273586
0.00273691
0.00273796
0.00273901
0.00274006
0.00274112
0.00274218
0.00274324
0.0027443
0.00274536
0.00274643
0.0027475
0.00274857
0.00274965
0.00275073
0.0027518
0.00275289
0.00275397
0.00275506
0.00275615
0.00275724
0.00275833
0.00275943
0.00276052
0.00276162
0.00276273
0.00276383
0.00276494
0.00276605
0.00276716
0.00276828
0.00276939
0.00277051
0.00277164
0.00277276
0.00277389
0.00277502
0.00277615
0.00277728
0.00277842
0.00277956
0.0027807
0.00278184
0.00278298
0.00278413
0.00278528
0.00278644
0.00278759
0.00278875
0.00278991
0.00279107
0.00279223
0.0027934
0.00279457
0.00279574
0.00279691
0.00279809
0.00279927
0.00280045
0.00280163
0.00280282
0.002804
0.00280519
0.00280639
0.00280758
0.00280878
0.00280998
0.00281118
0.00281238
0.00281359
0.0028148
0.00281601
0.00281722
0.00281844
0.00281966
0.00282088
0.0028221
0.00282332
0.00282455
0.00282578
0.00282701
0.00282825
0.00282948
0.00283072
0.00283196
0.0028332
0.00283445
0.0028357
0.00283695
0.0028382
0.00283946
0.00284071
0.00284197
0.00284323
0.0028445
0.00284576
0.00284703
0.0028483
0.00284957
0.00285085
0.00285213
0.00285341
0.00285469
0.00285597
0.00285726
0.00285855
0.00285984
0.00286113
0.00286243
0.00286372
0.00286502
0.00286633
0.00286763
0.00286894
0.00287025
0.00287156
0.00287287
0.00287418
0.0028755
0.00287682
0.00287814
0.00287947
0.00288079
0.00288212
0.00288345
0.00288479
0.00288612
0.00288746
0.0028888
0.00289014
0.00289149
0.00289283
0.00289418
0.00289553
0.00289688
0.00289824
0.00289959
0.00290095
0.00290232
0.00290368
0.00290505
0.00290641
0.00290778
0.00290916
0.00291053
0.00291191
0.00291329
0.00291467
0.00291605
0.00291744
0.00291882
0.00292021
0.00292161
0.002923
0.0029244
0.00292579
0.0029272
0.0029286
0.00293
0.00293141
0.00293282
0.00293423
0.00293565
0.00293707
0.00293848
0.00293991
0.00294133
0.00294276
0.00294418
0.00294562
0.00294705
0.00294848
0.00294992
0.00295136
0.00295281
0.00295425
0.0029557
0.00295715
0.00295861
0.00296006
0.00296152
0.00296298
0.00296445
0.00296592
0.00296739
0.00296886
0.00297034
0.00297182
0.0029733
0.00297479
0.00297628
0.00297778
0.00297927
0.00298078
0.00298228
0.00298379
0.00298531
0.00298683
0.00298835
0.00298988
0.00299142
0.00299295
0.0029945
0.00299605
0.00299761
0.00299917
0.00300074
0.00300232
0.00300391
0.0030055
0.0030071
0.00300871
0.00301033
0.00301195
0.00301359
0.00301523
0.00301688
0.00301853
0.00302018
0.00302183
0.00302347
0.00302511
0.00302675
0.00302844
0.00303035
0.00303248
0.528333
0.176532
0.0696266
0.0354594
0.0234358
0.0188108
0.0169161
0.0161137
0.015772
0.0156296
0.0155735
0.0155541
0.0155496
0.0155506
0.0155533
0.0155562
0.0155588
0.0155611
0.015563
0.0155645
0.0155659
0.015567
0.015568
0.0155688
0.0155696
0.0155702
0.0155708
0.0155713
0.0155718
0.0155722
0.0155725
0.0155729
0.0155732
0.0155735
0.0155737
0.015574
0.0155742
0.0155744
0.0155746
0.0155748
0.015575
0.0155752
0.0155754
0.0155755
0.0155757
0.0155758
0.015576
0.0155761
0.0155762
0.0155763
0.0155765
0.0155766
0.0155767
0.0155768
0.0155769
0.0155771
0.0155772
0.0155773
0.0155774
0.0155775
0.0155776
0.0155777
0.0155778
0.0155779
0.015578
0.0155781
0.0155782
0.0155783
0.0155784
0.0155784
0.0155785
0.0155786
0.0155786
0.0155787
0.0155787
0.0155788
0.0155788
0.0155788
0.0155789
0.0155789
0.0155789
0.015579
0.015579
0.0155791
0.0155791
0.0155792
0.0155792
0.0155793
0.0155793
0.0155794
0.0155795
0.0155795
0.0155796
0.0155796
0.0155797
0.0155798
0.0155798
0.0155799
0.01558
0.0155801
0.0155801
0.0155802
0.0155803
0.0155803
0.0155804
0.0155805
0.0155806
0.0155806
0.0155807
0.0155808
0.0155809
0.0155809
0.015581
0.0155811
0.0155811
0.0155812
0.0155813
0.0155813
0.0155814
0.0155814
0.0155815
0.0155816
0.0155816
0.0155817
0.0155818
0.0155818
0.0155819
0.015582
0.015582
0.0155821
0.0155822
0.0155823
0.0155823
0.0155824
0.0155825
0.0155826
0.0155826
0.0155827
0.0155828
0.0155829
0.0155829
0.015583
0.0155831
0.0155832
0.0155832
0.0155833
0.0155834
0.0155835
0.0155836
0.0155836
0.0155837
0.0155838
0.0155839
0.0155839
0.015584
0.0155841
0.0155842
0.0155843
0.0155843
0.0155844
0.0155845
0.0155846
0.0155847
0.0155847
0.0155848
0.0155849
0.015585
0.0155851
0.0155851
0.0155852
0.0155853
0.0155854
0.0155855
0.0155855
0.0155856
0.0155857
0.0155858
0.0155859
0.015586
0.0155861
0.0155861
0.0155862
0.0155863
0.0155864
0.0155865
0.0155866
0.0155866
0.0155867
0.0155868
0.0155869
0.015587
0.0155871
0.0155871
0.0155872
0.0155873
0.0155874
0.0155875
0.0155876
0.0155877
0.0155878
0.0155879
0.0155879
0.015588
0.0155881
0.0155882
0.0155883
0.0155884
0.0155885
0.0155886
0.0155887
0.0155888
0.0155888
0.0155889
0.015589
0.0155891
0.0155892
0.0155893
0.0155894
0.0155895
0.0155896
0.0155897
0.0155898
0.0155898
0.0155899
0.01559
0.0155901
0.0155902
0.0155903
0.0155904
0.0155905
0.0155906
0.0155907
0.0155908
0.0155909
0.015591
0.0155911
0.0155912
0.0155913
0.0155914
0.0155915
0.0155915
0.0155916
0.0155917
0.0155918
0.0155919
0.015592
0.0155921
0.0155922
0.0155923
0.0155924
0.0155925
0.0155926
0.0155927
0.0155928
0.0155929
0.015593
0.0155931
0.0155932
0.0155933
0.0155934
0.0155935
0.0155936
0.0155937
0.0155938
0.0155939
0.015594
0.0155941
0.0155942
0.0155943
0.0155944
0.0155945
0.0155946
0.0155947
0.0155949
0.015595
0.0155951
0.0155952
0.0155953
0.0155954
0.0155955
0.0155956
0.0155957
0.0155958
0.0155959
0.015596
0.0155961
0.0155962
0.0155963
0.0155964
0.0155965
0.0155966
0.0155967
0.0155969
0.015597
0.0155971
0.0155972
0.0155973
0.0155974
0.0155975
0.0155976
0.0155977
0.0155978
0.0155979
0.015598
0.0155982
0.0155983
0.0155984
0.0155985
0.0155986
0.0155987
0.0155988
0.0155989
0.015599
0.0155991
0.0155993
0.0155994
0.0155995
0.0155996
0.0155997
0.0155998
0.0155999
0.0156
0.0156002
0.0156003
0.0156004
0.0156005
0.0156006
0.0156007
0.0156008
0.015601
0.0156011
0.0156012
0.0156013
0.0156014
0.0156015
0.0156017
0.0156018
0.0156019
0.015602
0.0156021
0.0156022
0.0156024
0.0156025
0.0156026
0.0156027
0.0156028
0.0156029
0.0156031
0.0156032
0.0156033
0.0156034
0.0156035
0.0156037
0.0156038
0.0156039
0.015604
0.0156041
0.0156043
0.0156044
0.0156045
0.0156046
0.0156047
0.0156049
0.015605
0.0156051
0.0156052
0.0156054
0.0156055
0.0156056
0.0156057
0.0156058
0.015606
0.0156061
0.0156062
0.0156063
0.0156065
0.0156066
0.0156067
0.0156068
0.015607
0.0156071
0.0156072
0.0156074
0.0156075
0.0156076
0.0156077
0.0156079
0.015608
0.0156081
0.0156082
0.0156084
0.0156085
0.0156086
0.0156088
0.0156089
0.015609
0.0156091
0.0156093
0.0156094
0.0156095
0.0156097
0.0156098
0.0156099
0.0156101
0.0156102
0.0156103
0.0156104
0.0156106
0.0156107
0.0156108
0.015611
0.0156111
0.0156112
0.0156114
0.0156115
0.0156116
0.0156118
0.0156119
0.015612
0.0156122
0.0156123
0.0156125
0.0156126
0.0156127
0.0156129
0.015613
0.0156131
0.0156133
0.0156134
0.0156135
0.0156137
0.0156138
0.015614
0.0156141
0.0156142
0.0156144
0.0156145
0.0156146
0.0156148
0.0156149
0.0156151
0.0156152
0.0156153
0.0156155
0.0156156
0.0156158
0.0156159
0.015616
0.0156162
0.0156163
0.0156165
0.0156166
0.0156168
0.0156169
0.015617
0.0156172
0.0156173
0.0156175
0.0156176
0.0156178
0.0156179
0.0156181
0.0156182
0.0156183
0.0156185
0.0156186
0.0156188
0.0156189
0.0156191
0.0156192
0.0156194
0.0156195
0.0156197
0.0156198
0.01562
0.0156201
0.0156203
0.0156204
0.0156206
0.0156207
0.0156209
0.015621
0.0156212
0.0156213
0.0156215
0.0156216
0.0156218
0.0156219
0.0156221
0.0156222
0.0156224
0.0156225
0.0156227
0.0156228
0.015623
0.0156231
0.0156233
0.0156235
0.0156236
0.0156238
0.0156239
0.0156241
0.0156242
0.0156244
0.0156245
0.0156247
0.0156249
0.015625
0.0156252
0.0156253
0.0156255
0.0156257
0.0156258
0.015626
0.0156261
0.0156263
0.0156265
0.0156266
0.0156268
0.0156269
0.0156271
0.0156273
0.0156274
0.0156276
0.0156277
0.0156279
0.0156281
0.0156282
0.0156284
0.0156286
0.0156287
0.0156289
0.0156291
0.0156292
0.0156294
0.0156296
0.0156297
0.0156299
0.0156301
0.0156302
0.0156304
0.0156306
0.0156307
0.0156309
0.0156311
0.0156312
0.0156314
0.0156316
0.0156317
0.0156319
0.0156321
0.0156322
0.0156324
0.0156326
0.0156328
0.0156329
0.0156331
0.0156333
0.0156335
0.0156336
0.0156338
0.015634
0.0156342
0.0156343
0.0156345
0.0156347
0.0156349
0.015635
0.0156352
0.0156354
0.0156356
0.0156357
0.0156359
0.0156361
0.0156363
0.0156364
0.0156366
0.0156368
0.015637
0.0156372
0.0156373
0.0156375
0.0156377
0.0156379
0.0156381
0.0156383
0.0156384
0.0156386
0.0156388
0.015639
0.0156392
0.0156394
0.0156395
0.0156397
0.0156399
0.0156401
0.0156403
0.0156405
0.0156407
0.0156408
0.015641
0.0156412
0.0156414
0.0156416
0.0156418
0.015642
0.0156422
0.0156424
0.0156426
0.0156427
0.0156429
0.0156431
0.0156433
0.0156435
0.0156437
0.0156439
0.0156441
0.0156443
0.0156445
0.0156447
0.0156449
0.0156451
0.0156453
0.0156455
0.0156457
0.0156458
0.015646
0.0156462
0.0156464
0.0156466
0.0156468
0.015647
0.0156472
0.0156474
0.0156476
0.0156478
0.015648
0.0156482
0.0156484
0.0156486
0.0156489
0.0156491
0.0156493
0.0156495
0.0156497
0.0156499
0.0156501
0.0156503
0.0156505
0.0156507
0.0156509
0.0156511
0.0156513
0.0156515
0.0156517
0.0156519
0.0156522
0.0156524
0.0156526
0.0156528
0.015653
0.0156532
0.0156534
0.0156536
0.0156538
0.0156541
0.0156543
0.0156545
0.0156547
0.0156549
0.0156551
0.0156553
0.0156556
0.0156558
0.015656
0.0156562
0.0156564
0.0156566
0.0156569
0.0156571
0.0156573
0.0156575
0.0156577
0.015658
0.0156582
0.0156584
0.0156586
0.0156589
0.0156591
0.0156593
0.0156595
0.0156597
0.01566
0.0156602
0.0156604
0.0156606
0.0156609
0.0156611
0.0156613
0.0156616
0.0156618
0.015662
0.0156622
0.0156625
0.0156627
0.0156629
0.0156632
0.0156634
0.0156636
0.0156639
0.0156641
0.0156643
0.0156646
0.0156648
0.015665
0.0156653
0.0156655
0.0156657
0.015666
0.0156662
0.0156664
0.0156667
0.0156669
0.0156672
0.0156674
0.0156676
0.0156679
0.0156681