/*--------------------------------*- C++ -*----------------------------------*\
| =========                 |                                                 |
| \\      /  F ield         | OpenFOAM: The Open Source CFD Toolbox           |
|  \\    /   O peration     | Version:  2512                                  |
|   \\  /    A nd           | Website:  www.openfoam.com                      |
|    \\/     M anipulation  |                                                 |
\*---------------------------------------------------------------------------*/
FoamFile
{
    version     2.0;
    format      ascii;
    arch        "LSB;label=32;scalar=64";
    class       volScalarField;
    location    "0.003";
    object      nut;
}
// * * * * * * * * * * * * * * * * * * * * * * * * * * * * * * * * * * * * * //

dimensions      [0 2 -1 0 0 0 0];

internalField   nonuniform List<scalar> 
100000
(
1.37843e-07
2.69587e-08
1.10527e-08
6.03716e-09
3.93377e-09
2.89406e-09
2.32121e-09
1.98088e-09
1.7654e-09
1.62087e-09
1.51883e-09
1.44353e-09
1.38585e-09
1.3403e-09
1.30343e-09
1.27301e-09
1.24753e-09
1.22594e-09
1.20746e-09
1.19152e-09
1.17769e-09
1.16564e-09
1.15508e-09
1.1458e-09
1.13763e-09
1.13042e-09
1.12405e-09
1.11842e-09
1.11343e-09
1.10903e-09
1.10514e-09
1.10171e-09
1.09869e-09
1.09606e-09
1.09375e-09
1.09176e-09
1.09005e-09
1.08859e-09
1.08737e-09
1.08636e-09
1.08554e-09
1.08491e-09
1.08444e-09
1.08412e-09
1.08395e-09
1.0839e-09
1.08398e-09
1.08417e-09
1.08446e-09
1.08484e-09
1.08532e-09
1.08588e-09
1.08652e-09
1.08723e-09
1.08801e-09
1.08885e-09
1.08975e-09
1.09071e-09
1.09173e-09
1.09279e-09
1.0939e-09
1.09505e-09
1.09624e-09
1.09748e-09
1.09874e-09
1.10005e-09
1.10138e-09
1.10274e-09
1.10413e-09
1.10554e-09
1.10697e-09
1.10841e-09
1.10986e-09
1.11131e-09
1.11277e-09
1.11422e-09
1.11567e-09
1.11711e-09
1.11855e-09
1.11997e-09
1.1214e-09
1.12282e-09
1.12423e-09
1.12565e-09
1.12706e-09
1.12848e-09
1.12989e-09
1.13131e-09
1.13273e-09
1.13416e-09
1.13558e-09
1.13701e-09
1.13845e-09
1.13988e-09
1.14133e-09
1.14277e-09
1.14422e-09
1.14568e-09
1.14714e-09
1.1486e-09
1.15007e-09
1.15155e-09
1.15303e-09
1.15452e-09
1.15601e-09
1.15751e-09
1.15902e-09
1.16053e-09
1.16205e-09
1.16358e-09
1.16511e-09
1.16665e-09
1.16819e-09
1.16974e-09
1.17128e-09
1.17282e-09
1.17437e-09
1.17591e-09
1.17744e-09
1.17898e-09
1.18052e-09
1.18205e-09
1.18358e-09
1.18511e-09
1.18664e-09
1.18817e-09
1.18971e-09
1.19124e-09
1.19278e-09
1.19432e-09
1.19586e-09
1.1974e-09
1.19895e-09
1.2005e-09
1.20205e-09
1.20361e-09
1.20517e-09
1.20674e-09
1.20831e-09
1.20988e-09
1.21146e-09
1.21304e-09
1.21463e-09
1.21622e-09
1.21782e-09
1.21942e-09
1.22103e-09
1.22264e-09
1.22425e-09
1.22587e-09
1.22749e-09
1.22912e-09
1.23074e-09
1.23237e-09
1.234e-09
1.23564e-09
1.23727e-09
1.23891e-09
1.24055e-09
1.2422e-09
1.24385e-09
1.2455e-09
1.24715e-09
1.24881e-09
1.25047e-09
1.25214e-09
1.25381e-09
1.25548e-09
1.25716e-09
1.25884e-09
1.26052e-09
1.26221e-09
1.26391e-09
1.2656e-09
1.26731e-09
1.26901e-09
1.27072e-09
1.27244e-09
1.27416e-09
1.27588e-09
1.2776e-09
1.27933e-09
1.28107e-09
1.2828e-09
1.28454e-09
1.28629e-09
1.28803e-09
1.28978e-09
1.29153e-09
1.29329e-09
1.29505e-09
1.29682e-09
1.29859e-09
1.30036e-09
1.30214e-09
1.30392e-09
1.30571e-09
1.30751e-09
1.30931e-09
1.31111e-09
1.31292e-09
1.31473e-09
1.31655e-09
1.31838e-09
1.32021e-09
1.32204e-09
1.32388e-09
1.32572e-09
1.32757e-09
1.32942e-09
1.33128e-09
1.33314e-09
1.33501e-09
1.33687e-09
1.33875e-09
1.34063e-09
1.34251e-09
1.34439e-09
1.34628e-09
1.34818e-09
1.35008e-09
1.35198e-09
1.35389e-09
1.3558e-09
1.35772e-09
1.35964e-09
1.36157e-09
1.3635e-09
1.36544e-09
1.36738e-09
1.36933e-09
1.37128e-09
1.37324e-09
1.3752e-09
1.37717e-09
1.37914e-09
1.38112e-09
1.3831e-09
1.38509e-09
1.38708e-09
1.38908e-09
1.39109e-09
1.3931e-09
1.39511e-09
1.39713e-09
1.39916e-09
1.40119e-09
1.40323e-09
1.40527e-09
1.40732e-09
1.40937e-09
1.41143e-09
1.41349e-09
1.41556e-09
1.41764e-09
1.41972e-09
1.42181e-09
1.4239e-09
1.426e-09
1.4281e-09
1.43021e-09
1.43233e-09
1.43445e-09
1.43657e-09
1.4387e-09
1.44084e-09
1.44299e-09
1.44514e-09
1.44729e-09
1.44945e-09
1.45162e-09
1.45379e-09
1.45597e-09
1.45815e-09
1.46034e-09
1.46254e-09
1.46474e-09
1.46695e-09
1.46916e-09
1.47138e-09
1.47361e-09
1.47584e-09
1.47808e-09
1.48033e-09
1.48258e-09
1.48483e-09
1.4871e-09
1.48937e-09
1.49164e-09
1.49392e-09
1.49621e-09
1.49851e-09
1.50081e-09
1.50311e-09
1.50543e-09
1.50775e-09
1.51007e-09
1.51241e-09
1.51474e-09
1.51709e-09
1.51944e-09
1.5218e-09
1.52417e-09
1.52654e-09
1.52891e-09
1.5313e-09
1.53369e-09
1.53609e-09
1.53849e-09
1.5409e-09
1.54332e-09
1.54575e-09
1.54818e-09
1.55061e-09
1.55306e-09
1.55551e-09
1.55797e-09
1.56043e-09
1.56291e-09
1.56539e-09
1.56787e-09
1.57037e-09
1.57287e-09
1.57537e-09
1.57789e-09
1.58041e-09
1.58294e-09
1.58547e-09
1.58801e-09
1.59056e-09
1.59312e-09
1.59568e-09
1.59825e-09
1.60083e-09
1.60342e-09
1.60601e-09
1.60861e-09
1.61122e-09
1.61383e-09
1.61646e-09
1.61909e-09
1.62172e-09
1.62437e-09
1.62702e-09
1.62968e-09
1.63235e-09
1.63502e-09
1.6377e-09
1.64039e-09
1.64309e-09
1.64579e-09
1.64851e-09
1.65123e-09
1.65395e-09
1.65669e-09
1.65943e-09
1.66219e-09
1.66494e-09
1.66771e-09
1.67049e-09
1.67327e-09
1.67606e-09
1.67886e-09
1.68167e-09
1.68448e-09
1.6873e-09
1.69013e-09
1.69297e-09
1.69582e-09
1.69867e-09
1.70154e-09
1.70441e-09
1.70729e-09
1.71017e-09
1.71307e-09
1.71597e-09
1.71888e-09
1.7218e-09
1.72473e-09
1.72767e-09
1.73062e-09
1.73357e-09
1.73653e-09
1.7395e-09
1.74248e-09
1.74547e-09
1.74847e-09
1.75147e-09
1.75448e-09
1.75751e-09
1.76054e-09
1.76357e-09
1.76662e-09
1.76968e-09
1.77274e-09
1.77582e-09
1.7789e-09
1.78199e-09
1.78509e-09
1.7882e-09
1.79132e-09
1.79445e-09
1.79758e-09
1.80073e-09
1.80388e-09
1.80704e-09
1.81021e-09
1.81339e-09
1.81658e-09
1.81978e-09
1.82299e-09
1.8262e-09
1.82943e-09
1.83267e-09
1.83591e-09
1.83916e-09
1.84243e-09
1.8457e-09
1.84898e-09
1.85227e-09
1.85557e-09
1.85888e-09
1.8622e-09
1.86552e-09
1.86886e-09
1.87221e-09
1.87557e-09
1.87893e-09
1.88231e-09
1.88569e-09
1.88909e-09
1.89249e-09
1.8959e-09
1.89933e-09
1.90276e-09
1.9062e-09
1.90965e-09
1.91312e-09
1.91659e-09
1.92007e-09
1.92356e-09
1.92706e-09
1.93057e-09
1.93409e-09
1.93763e-09
1.94117e-09
1.94472e-09
1.94828e-09
1.95185e-09
1.95543e-09
1.95902e-09
1.96262e-09
1.96623e-09
1.96985e-09
1.97349e-09
1.97713e-09
1.98078e-09
1.98444e-09
1.98811e-09
1.99179e-09
1.99549e-09
1.99919e-09
2.0029e-09
2.00663e-09
2.01036e-09
2.01411e-09
2.01786e-09
2.02163e-09
2.0254e-09
2.02919e-09
2.03298e-09
2.03679e-09
2.04061e-09
2.04444e-09
2.04828e-09
2.05213e-09
2.05599e-09
2.05986e-09
2.06374e-09
2.06763e-09
2.07154e-09
2.07545e-09
2.07938e-09
2.08331e-09
2.08726e-09
2.09122e-09
2.09518e-09
2.09916e-09
2.10315e-09
2.10715e-09
2.11117e-09
2.11519e-09
2.11922e-09
2.12327e-09
2.12732e-09
2.13139e-09
2.13547e-09
2.13956e-09
2.14366e-09
2.14777e-09
2.1519e-09
2.15603e-09
2.16018e-09
2.16433e-09
2.1685e-09
2.17268e-09
2.17687e-09
2.18107e-09
2.18529e-09
2.18951e-09
2.19375e-09
2.198e-09
2.20226e-09
2.20653e-09
2.21081e-09
2.2151e-09
2.21941e-09
2.22373e-09
2.22806e-09
2.2324e-09
2.23675e-09
2.24111e-09
2.24549e-09
2.24987e-09
2.25427e-09
2.25868e-09
2.26311e-09
2.26754e-09
2.27199e-09
2.27644e-09
2.28091e-09
2.2854e-09
2.28989e-09
2.2944e-09
2.29891e-09
2.30344e-09
2.30798e-09
2.31254e-09
2.3171e-09
2.32168e-09
2.32627e-09
2.33087e-09
2.33549e-09
2.34011e-09
2.34475e-09
2.3494e-09
2.35406e-09
2.35874e-09
2.36342e-09
2.36812e-09
2.37284e-09
2.37756e-09
2.3823e-09
2.38704e-09
2.3918e-09
2.39658e-09
2.40136e-09
2.40616e-09
2.41097e-09
2.4158e-09
2.42063e-09
2.42548e-09
2.43034e-09
2.43521e-09
2.4401e-09
2.445e-09
2.44991e-09
2.45483e-09
2.45977e-09
2.46472e-09
2.46968e-09
2.47465e-09
2.47964e-09
2.48464e-09
2.48965e-09
2.49468e-09
2.49971e-09
2.50476e-09
2.50983e-09
2.5149e-09
2.51999e-09
2.5251e-09
2.53021e-09
2.53534e-09
2.54048e-09
2.54563e-09
2.5508e-09
2.55598e-09
2.56117e-09
2.56638e-09
2.5716e-09
2.57683e-09
2.58208e-09
2.58733e-09
2.59261e-09
2.59789e-09
2.60319e-09
2.6085e-09
2.61382e-09
2.61916e-09
2.62451e-09
2.62987e-09
2.63525e-09
2.64064e-09
2.64604e-09
2.65146e-09
2.65689e-09
2.66234e-09
2.66779e-09
2.67326e-09
2.67875e-09
2.68424e-09
2.68975e-09
2.69528e-09
2.70081e-09
2.70637e-09
2.71193e-09
2.71751e-09
2.7231e-09
2.7287e-09
2.73432e-09
2.73995e-09
2.7456e-09
2.75126e-09
2.75693e-09
2.76262e-09
2.76832e-09
2.77403e-09
2.77976e-09
2.7855e-09
2.79125e-09
2.79702e-09
2.80281e-09
2.8086e-09
2.81441e-09
2.82023e-09
2.82607e-09
2.83192e-09
2.83779e-09
2.84367e-09
2.84956e-09
2.85546e-09
2.86138e-09
2.86732e-09
2.87327e-09
2.87923e-09
2.8852e-09
2.89119e-09
2.8972e-09
2.90321e-09
2.90925e-09
2.91529e-09
2.92135e-09
2.92743e-09
2.93351e-09
2.93961e-09
2.94573e-09
2.95186e-09
2.958e-09
2.96416e-09
2.97033e-09
2.97652e-09
2.98272e-09
2.98893e-09
2.99516e-09
3.0014e-09
3.00766e-09
3.01393e-09
3.02022e-09
3.02652e-09
3.03283e-09
3.03916e-09
3.0455e-09
3.05186e-09
3.05823e-09
3.06461e-09
3.07101e-09
3.07742e-09
3.08385e-09
3.09029e-09
3.09675e-09
3.10322e-09
3.1097e-09
3.1162e-09
3.12271e-09
3.12924e-09
3.13578e-09
3.14234e-09
3.14891e-09
3.1555e-09
3.1621e-09
3.16871e-09
3.17534e-09
3.18198e-09
3.18864e-09
3.19531e-09
3.202e-09
3.2087e-09
3.21541e-09
3.22214e-09
3.22888e-09
3.23564e-09
3.24242e-09
3.2492e-09
3.25601e-09
3.26282e-09
3.26965e-09
3.2765e-09
3.28336e-09
3.29023e-09
3.29712e-09
3.30402e-09
3.31094e-09
3.31787e-09
3.32482e-09
3.33178e-09
3.33876e-09
3.34575e-09
3.35276e-09
3.35978e-09
3.36681e-09
3.37386e-09
3.38092e-09
3.388e-09
3.3951e-09
3.4022e-09
3.40932e-09
3.41646e-09
3.42361e-09
3.43078e-09
3.43796e-09
3.44516e-09
3.45237e-09
3.45959e-09
3.46683e-09
3.47408e-09
3.48135e-09
3.48863e-09
3.49593e-09
3.50324e-09
3.51057e-09
3.51791e-09
3.52527e-09
3.53264e-09
3.54003e-09
3.54743e-09
3.55484e-09
3.56227e-09
3.56972e-09
3.57718e-09
3.58465e-09
3.59214e-09
3.59964e-09
3.60716e-09
3.61469e-09
3.62224e-09
3.6298e-09
3.63738e-09
3.64497e-09
3.65257e-09
3.6602e-09
3.66783e-09
3.67548e-09
3.68314e-09
3.69082e-09
3.69852e-09
3.70623e-09
3.71395e-09
3.72169e-09
3.72944e-09
3.73721e-09
3.74499e-09
3.75279e-09
3.7606e-09
3.76842e-09
3.77626e-09
3.78412e-09
3.79199e-09
3.79987e-09
3.80777e-09
3.81569e-09
3.82361e-09
3.83156e-09
3.83951e-09
3.84749e-09
3.85547e-09
3.86347e-09
3.87149e-09
3.87952e-09
3.88757e-09
3.89563e-09
3.9037e-09
3.91179e-09
3.91989e-09
3.92801e-09
3.93614e-09
3.94429e-09
3.95245e-09
3.96063e-09
3.96882e-09
3.97703e-09
3.98525e-09
3.99348e-09
4.00173e-09
4.00999e-09
4.01827e-09
4.02656e-09
4.03487e-09
4.04319e-09
4.05153e-09
4.05988e-09
4.06824e-09
4.07662e-09
4.08502e-09
4.09342e-09
4.10185e-09
4.11028e-09
4.11874e-09
4.1272e-09
4.13568e-09
4.14418e-09
4.15268e-09
4.16121e-09
4.16975e-09
4.1783e-09
4.18686e-09
4.19544e-09
4.20404e-09
4.21265e-09
4.22127e-09
4.22991e-09
4.23856e-09
4.24723e-09
4.25591e-09
4.2646e-09
4.27331e-09
4.28204e-09
4.29077e-09
4.29953e-09
4.30829e-09
4.31707e-09
4.32587e-09
4.33467e-09
4.3435e-09
4.35233e-09
4.36118e-09
4.37005e-09
4.37893e-09
4.38782e-09
4.39673e-09
4.40565e-09
4.41458e-09
4.42353e-09
4.4325e-09
4.44147e-09
4.45046e-09
4.45947e-09
4.46849e-09
4.47752e-09
4.48657e-09
4.49563e-09
4.5047e-09
4.51379e-09
4.52289e-09
4.53201e-09
4.54114e-09
4.55028e-09
4.55944e-09
4.56861e-09
4.57779e-09
4.58699e-09
4.59621e-09
4.60543e-09
4.61467e-09
4.62392e-09
4.63319e-09
4.64247e-09
4.65177e-09
4.66108e-09
4.6704e-09
4.67973e-09
4.68908e-09
4.69844e-09
4.70782e-09
4.71721e-09
4.72661e-09
4.73603e-09
4.74546e-09
4.7549e-09
4.76436e-09
4.77383e-09
4.78331e-09
4.79281e-09
4.80232e-09
4.81185e-09
4.82138e-09
4.83093e-09
4.8405e-09
4.85008e-09
4.85967e-09
4.86927e-09
4.87889e-09
4.88852e-09
4.89816e-09
4.90782e-09
4.91749e-09
4.92718e-09
4.93688e-09
4.94659e-09
4.95631e-09
4.96605e-09
4.9758e-09
4.98556e-09
4.99534e-09
5.00513e-09
5.01494e-09
5.02476e-09
5.03459e-09
5.04443e-09
5.05429e-09
5.06417e-09
5.07405e-09
5.08395e-09
5.09386e-09
5.10379e-09
5.11373e-09
5.12369e-09
5.13366e-09
5.14364e-09
5.15363e-09
5.16365e-09
5.17367e-09
5.18371e-09
5.19376e-09
5.20383e-09
5.21392e-09
5.22401e-09
5.23413e-09
5.24425e-09
5.2544e-09
5.26456e-09
5.27473e-09
5.28492e-09
5.29513e-09
5.30535e-09
5.31559e-09
5.32585e-09
5.33613e-09
5.34642e-09
5.35673e-09
5.36706e-09
5.37741e-09
5.38777e-09
5.39816e-09
5.40857e-09
5.419e-09
5.42945e-09
5.43992e-09
5.45042e-09
5.46094e-09
5.47149e-09
5.48206e-09
5.49265e-09
5.50328e-09
5.51393e-09
5.52462e-09
5.53534e-09
5.54608e-09
5.55687e-09
5.56769e-09
5.57854e-09
5.58944e-09
5.60038e-09
5.61136e-09
5.62239e-09
5.63347e-09
5.6446e-09
5.65579e-09
5.66704e-09
5.67834e-09
5.68971e-09
5.70115e-09
5.71267e-09
5.72426e-09
5.73593e-09
5.74769e-09
5.75955e-09
5.77149e-09
5.78354e-09
5.79569e-09
5.80794e-09
5.8203e-09
5.83278e-09
5.84538e-09
5.85813e-09
5.87109e-09
5.88428e-09
5.89798e-09
5.91413e-09
5.93468e-09
2.54078e-06
4.15033e-07
1.13287e-07
4.78446e-08
2.90431e-08
2.23732e-08
1.96606e-08
1.84603e-08
1.78969e-08
1.76179e-08
1.74704e-08
1.73856e-08
1.73319e-08
1.72943e-08
1.72659e-08
1.7243e-08
1.72241e-08
1.72079e-08
1.7194e-08
1.71818e-08
1.71712e-08
1.71618e-08
1.71534e-08
1.7146e-08
1.71395e-08
1.71336e-08
1.71283e-08
1.71236e-08
1.71193e-08
1.71155e-08
1.71121e-08
1.7109e-08
1.71062e-08
1.71037e-08
1.71015e-08
1.70995e-08
1.70977e-08
1.70962e-08
1.70948e-08
1.70935e-08
1.70925e-08
1.70915e-08
1.70907e-08
1.709e-08
1.70894e-08
1.7089e-08
1.70886e-08
1.70883e-08
1.7088e-08
1.70879e-08
1.70878e-08
1.70878e-08
1.70879e-08
1.7088e-08
1.70882e-08
1.70884e-08
1.70886e-08
1.70889e-08
1.70893e-08
1.70897e-08
1.70901e-08
1.70906e-08
1.70911e-08
1.70916e-08
1.70921e-08
1.70927e-08
1.70933e-08
1.70939e-08
1.70946e-08
1.70952e-08
1.70958e-08
1.70965e-08
1.70972e-08
1.70978e-08
1.70985e-08
1.70991e-08
1.70997e-08
1.71004e-08
1.7101e-08
1.71016e-08
1.71022e-08
1.71028e-08
1.71034e-08
1.7104e-08
1.71047e-08
1.71053e-08
1.71059e-08
1.71065e-08
1.71072e-08
1.71078e-08
1.71084e-08
1.71091e-08
1.71097e-08
1.71104e-08
1.7111e-08
1.71117e-08
1.71124e-08
1.7113e-08
1.71137e-08
1.71144e-08
1.71151e-08
1.71158e-08
1.71165e-08
1.71172e-08
1.71179e-08
1.71186e-08
1.71193e-08
1.71201e-08
1.71208e-08
1.71216e-08
1.71223e-08
1.7123e-08
1.71238e-08
1.71245e-08
1.71253e-08
1.7126e-08
1.71268e-08
1.71275e-08
1.71283e-08
1.7129e-08
1.71297e-08
1.71305e-08
1.71312e-08
1.7132e-08
1.71327e-08
1.71335e-08
1.71342e-08
1.7135e-08
1.71357e-08
1.71365e-08
1.71372e-08
1.7138e-08
1.71387e-08
1.71395e-08
1.71403e-08
1.71411e-08
1.71419e-08
1.71426e-08
1.71434e-08
1.71442e-08
1.7145e-08
1.71458e-08
1.71466e-08
1.71475e-08
1.71483e-08
1.71491e-08
1.71499e-08
1.71508e-08
1.71516e-08
1.71524e-08
1.71533e-08
1.71541e-08
1.7155e-08
1.71558e-08
1.71567e-08
1.71575e-08
1.71584e-08
1.71592e-08
1.71601e-08
1.7161e-08
1.71618e-08
1.71627e-08
1.71636e-08
1.71645e-08
1.71653e-08
1.71662e-08
1.71671e-08
1.7168e-08
1.71689e-08
1.71698e-08
1.71707e-08
1.71716e-08
1.71726e-08
1.71735e-08
1.71744e-08
1.71753e-08
1.71763e-08
1.71772e-08
1.71782e-08
1.71791e-08
1.718e-08
1.7181e-08
1.7182e-08
1.71829e-08
1.71839e-08
1.71848e-08
1.71858e-08
1.71868e-08
1.71878e-08
1.71888e-08
1.71897e-08
1.71907e-08
1.71917e-08
1.71927e-08
1.71937e-08
1.71947e-08
1.71958e-08
1.71968e-08
1.71978e-08
1.71988e-08
1.71999e-08
1.72009e-08
1.7202e-08
1.7203e-08
1.72041e-08
1.72051e-08
1.72062e-08
1.72073e-08
1.72083e-08
1.72094e-08
1.72105e-08
1.72116e-08
1.72127e-08
1.72138e-08
1.72149e-08
1.7216e-08
1.72171e-08
1.72182e-08
1.72193e-08
1.72204e-08
1.72216e-08
1.72227e-08
1.72238e-08
1.7225e-08
1.72261e-08
1.72273e-08
1.72284e-08
1.72296e-08
1.72307e-08
1.72319e-08
1.72331e-08
1.72343e-08
1.72355e-08
1.72366e-08
1.72378e-08
1.7239e-08
1.72403e-08
1.72415e-08
1.72427e-08
1.72439e-08
1.72451e-08
1.72464e-08
1.72476e-08
1.72488e-08
1.72501e-08
1.72514e-08
1.72526e-08
1.72539e-08
1.72551e-08
1.72564e-08
1.72577e-08
1.7259e-08
1.72603e-08
1.72616e-08
1.72629e-08
1.72642e-08
1.72655e-08
1.72668e-08
1.72682e-08
1.72695e-08
1.72708e-08
1.72722e-08
1.72735e-08
1.72749e-08
1.72762e-08
1.72776e-08
1.7279e-08
1.72804e-08
1.72817e-08
1.72831e-08
1.72845e-08
1.72859e-08
1.72873e-08
1.72887e-08
1.72902e-08
1.72916e-08
1.7293e-08
1.72944e-08
1.72959e-08
1.72973e-08
1.72988e-08
1.73002e-08
1.73017e-08
1.73032e-08
1.73047e-08
1.73061e-08
1.73076e-08
1.73091e-08
1.73106e-08
1.73121e-08
1.73137e-08
1.73152e-08
1.73167e-08
1.73182e-08
1.73198e-08
1.73213e-08
1.73229e-08
1.73244e-08
1.7326e-08
1.73276e-08
1.73292e-08
1.73307e-08
1.73323e-08
1.73339e-08
1.73355e-08
1.73371e-08
1.73388e-08
1.73404e-08
1.7342e-08
1.73437e-08
1.73453e-08
1.7347e-08
1.73486e-08
1.73503e-08
1.73519e-08
1.73536e-08
1.73553e-08
1.7357e-08
1.73587e-08
1.73604e-08
1.73621e-08
1.73638e-08
1.73656e-08
1.73673e-08
1.7369e-08
1.73708e-08
1.73725e-08
1.73743e-08
1.7376e-08
1.73778e-08
1.73796e-08
1.73814e-08
1.73832e-08
1.7385e-08
1.73868e-08
1.73886e-08
1.73904e-08
1.73923e-08
1.73941e-08
1.7396e-08
1.73978e-08
1.73997e-08
1.74015e-08
1.74034e-08
1.74053e-08
1.74072e-08
1.74091e-08
1.7411e-08
1.74129e-08
1.74148e-08
1.74167e-08
1.74187e-08
1.74206e-08
1.74226e-08
1.74245e-08
1.74265e-08
1.74285e-08
1.74304e-08
1.74324e-08
1.74344e-08
1.74364e-08
1.74384e-08
1.74405e-08
1.74425e-08
1.74445e-08
1.74466e-08
1.74486e-08
1.74507e-08
1.74527e-08
1.74548e-08
1.74569e-08
1.7459e-08
1.74611e-08
1.74632e-08
1.74653e-08
1.74674e-08
1.74696e-08
1.74717e-08
1.74739e-08
1.7476e-08
1.74782e-08
1.74804e-08
1.74825e-08
1.74847e-08
1.74869e-08
1.74891e-08
1.74913e-08
1.74936e-08
1.74958e-08
1.7498e-08
1.75003e-08
1.75025e-08
1.75048e-08
1.75071e-08
1.75094e-08
1.75117e-08
1.7514e-08
1.75163e-08
1.75186e-08
1.75209e-08
1.75232e-08
1.75256e-08
1.75279e-08
1.75303e-08
1.75327e-08
1.75351e-08
1.75374e-08
1.75398e-08
1.75422e-08
1.75447e-08
1.75471e-08
1.75495e-08
1.7552e-08
1.75544e-08
1.75569e-08
1.75593e-08
1.75618e-08
1.75643e-08
1.75668e-08
1.75693e-08
1.75718e-08
1.75743e-08
1.75769e-08
1.75794e-08
1.7582e-08
1.75845e-08
1.75871e-08
1.75897e-08
1.75923e-08
1.75949e-08
1.75975e-08
1.76001e-08
1.76027e-08
1.76054e-08
1.7608e-08
1.76107e-08
1.76134e-08
1.7616e-08
1.76187e-08
1.76214e-08
1.76241e-08
1.76268e-08
1.76296e-08
1.76323e-08
1.7635e-08
1.76378e-08
1.76406e-08
1.76433e-08
1.76461e-08
1.76489e-08
1.76517e-08
1.76545e-08
1.76574e-08
1.76602e-08
1.76631e-08
1.76659e-08
1.76688e-08
1.76717e-08
1.76745e-08
1.76774e-08
1.76803e-08
1.76833e-08
1.76862e-08
1.76891e-08
1.76921e-08
1.7695e-08
1.7698e-08
1.7701e-08
1.7704e-08
1.7707e-08
1.771e-08
1.7713e-08
1.77161e-08
1.77191e-08
1.77222e-08
1.77252e-08
1.77283e-08
1.77314e-08
1.77345e-08
1.77376e-08
1.77407e-08
1.77438e-08
1.7747e-08
1.77501e-08
1.77533e-08
1.77565e-08
1.77597e-08
1.77629e-08
1.77661e-08
1.77693e-08
1.77725e-08
1.77757e-08
1.7779e-08
1.77823e-08
1.77855e-08
1.77888e-08
1.77921e-08
1.77954e-08
1.77987e-08
1.78021e-08
1.78054e-08
1.78088e-08
1.78121e-08
1.78155e-08
1.78189e-08
1.78223e-08
1.78257e-08
1.78291e-08
1.78326e-08
1.7836e-08
1.78395e-08
1.7843e-08
1.78464e-08
1.78499e-08
1.78534e-08
1.78569e-08
1.78605e-08
1.7864e-08
1.78676e-08
1.78711e-08
1.78747e-08
1.78783e-08
1.78819e-08
1.78855e-08
1.78891e-08
1.78928e-08
1.78964e-08
1.79001e-08
1.79038e-08
1.79074e-08
1.79111e-08
1.79148e-08
1.79186e-08
1.79223e-08
1.7926e-08
1.79298e-08
1.79336e-08
1.79374e-08
1.79412e-08
1.7945e-08
1.79488e-08
1.79526e-08
1.79565e-08
1.79603e-08
1.79642e-08
1.79681e-08
1.7972e-08
1.79759e-08
1.79798e-08
1.79837e-08
1.79877e-08
1.79916e-08
1.79956e-08
1.79996e-08
1.80036e-08
1.80076e-08
1.80116e-08
1.80157e-08
1.80197e-08
1.80238e-08
1.80279e-08
1.80319e-08
1.8036e-08
1.80402e-08
1.80443e-08
1.80484e-08
1.80526e-08
1.80568e-08
1.80609e-08
1.80651e-08
1.80693e-08
1.80736e-08
1.80778e-08
1.8082e-08
1.80863e-08
1.80906e-08
1.80949e-08
1.80992e-08
1.81035e-08
1.81078e-08
1.81121e-08
1.81165e-08
1.81209e-08
1.81252e-08
1.81296e-08
1.8134e-08
1.81385e-08
1.81429e-08
1.81474e-08
1.81518e-08
1.81563e-08
1.81608e-08
1.81653e-08
1.81698e-08
1.81743e-08
1.81789e-08
1.81835e-08
1.8188e-08
1.81926e-08
1.81972e-08
1.82018e-08
1.82065e-08
1.82111e-08
1.82158e-08
1.82204e-08
1.82251e-08
1.82298e-08
1.82345e-08
1.82393e-08
1.8244e-08
1.82488e-08
1.82536e-08
1.82583e-08
1.82631e-08
1.8268e-08
1.82728e-08
1.82776e-08
1.82825e-08
1.82874e-08
1.82922e-08
1.82971e-08
1.83021e-08
1.8307e-08
1.83119e-08
1.83169e-08
1.83219e-08
1.83269e-08
1.83319e-08
1.83369e-08
1.83419e-08
1.8347e-08
1.8352e-08
1.83571e-08
1.83622e-08
1.83673e-08
1.83724e-08
1.83776e-08
1.83827e-08
1.83879e-08
1.83931e-08
1.83983e-08
1.84035e-08
1.84087e-08
1.84139e-08
1.84192e-08
1.84245e-08
1.84297e-08
1.8435e-08
1.84404e-08
1.84457e-08
1.8451e-08
1.84564e-08
1.84618e-08
1.84672e-08
1.84726e-08
1.8478e-08
1.84834e-08
1.84889e-08
1.84944e-08
1.84998e-08
1.85053e-08
1.85109e-08
1.85164e-08
1.85219e-08
1.85275e-08
1.85331e-08
1.85387e-08
1.85443e-08
1.85499e-08
1.85555e-08
1.85612e-08
1.85668e-08
1.85725e-08
1.85782e-08
1.85839e-08
1.85897e-08
1.85954e-08
1.86012e-08
1.8607e-08
1.86127e-08
1.86186e-08
1.86244e-08
1.86302e-08
1.86361e-08
1.8642e-08
1.86478e-08
1.86537e-08
1.86597e-08
1.86656e-08
1.86715e-08
1.86775e-08
1.86835e-08
1.86895e-08
1.86955e-08
1.87015e-08
1.87076e-08
1.87136e-08
1.87197e-08
1.87258e-08
1.87319e-08
1.87381e-08
1.87442e-08
1.87504e-08
1.87565e-08
1.87627e-08
1.87689e-08
1.87751e-08
1.87814e-08
1.87876e-08
1.87939e-08
1.88002e-08
1.88065e-08
1.88128e-08
1.88192e-08
1.88255e-08
1.88319e-08
1.88383e-08
1.88447e-08
1.88511e-08
1.88575e-08
1.8864e-08
1.88704e-08
1.88769e-08
1.88834e-08
1.88899e-08
1.88964e-08
1.8903e-08
1.89095e-08
1.89161e-08
1.89227e-08
1.89293e-08
1.8936e-08
1.89426e-08
1.89493e-08
1.89559e-08
1.89626e-08
1.89693e-08
1.89761e-08
1.89828e-08
1.89896e-08
1.89964e-08
1.90031e-08
1.901e-08
1.90168e-08
1.90236e-08
1.90305e-08
1.90374e-08
1.90442e-08
1.90512e-08
1.90581e-08
1.9065e-08
1.9072e-08
1.9079e-08
1.90859e-08
1.90929e-08
1.91e-08
1.9107e-08
1.91141e-08
1.91211e-08
1.91282e-08
1.91353e-08
1.91425e-08
1.91496e-08
1.91568e-08
1.91639e-08
1.91711e-08
1.91783e-08
1.91855e-08
1.91928e-08
1.92e-08
1.92073e-08
1.92146e-08
1.92219e-08
1.92292e-08
1.92366e-08
1.92439e-08
1.92513e-08
1.92587e-08
1.92661e-08
1.92735e-08
1.9281e-08
1.92884e-08
1.92959e-08
1.93034e-08
1.93109e-08
1.93184e-08
1.93259e-08
1.93335e-08
1.93411e-08
1.93487e-08
1.93563e-08
1.93639e-08
1.93715e-08
1.93792e-08
1.93868e-08
1.93945e-08
1.94022e-08
1.941e-08
1.94177e-08
1.94255e-08
1.94332e-08
1.9441e-08
1.94488e-08
1.94566e-08
1.94645e-08
1.94723e-08
1.94802e-08
1.94881e-08
1.9496e-08
1.95039e-08
1.95119e-08
1.95198e-08
1.95278e-08
1.95358e-08
1.95438e-08
1.95518e-08
1.95598e-08
1.95679e-08
1.9576e-08
1.95841e-08
1.95922e-08
1.96003e-08
1.96084e-08
1.96166e-08
1.96247e-08
1.96329e-08
1.96411e-08
1.96493e-08
1.96576e-08
1.96658e-08
1.96741e-08
1.96824e-08
1.96907e-08
1.9699e-08
1.97073e-08
1.97157e-08
1.97241e-08
1.97324e-08
1.97408e-08
1.97493e-08
1.97577e-08
1.97661e-08
1.97746e-08
1.97831e-08
1.97916e-08
1.98001e-08
1.98086e-08
1.98172e-08
1.98257e-08
1.98343e-08
1.98429e-08
1.98515e-08
1.98602e-08
1.98688e-08
1.98775e-08
1.98861e-08
1.98948e-08
1.99035e-08
1.99123e-08
1.9921e-08
1.99298e-08
1.99385e-08
1.99473e-08
1.99561e-08
1.9965e-08
1.99738e-08
1.99826e-08
1.99915e-08
2.00004e-08
2.00093e-08
2.00182e-08
2.00272e-08
2.00361e-08
2.00451e-08
2.0054e-08
2.0063e-08
2.00721e-08
2.00811e-08
2.00901e-08
2.00992e-08
2.01083e-08
2.01174e-08
2.01265e-08
2.01356e-08
2.01447e-08
2.01539e-08
2.01631e-08
2.01722e-08
2.01814e-08
2.01907e-08
2.01999e-08
2.02091e-08
2.02184e-08
2.02277e-08
2.0237e-08
2.02463e-08
2.02556e-08
2.0265e-08
2.02743e-08
2.02837e-08
2.02931e-08
2.03025e-08
2.03119e-08
2.03213e-08
2.03308e-08
2.03403e-08
2.03497e-08
2.03592e-08
2.03687e-08
2.03783e-08
2.03878e-08
2.03974e-08
2.04069e-08
2.04165e-08
2.04261e-08
2.04357e-08
2.04454e-08
2.0455e-08
2.04647e-08
2.04744e-08
2.04841e-08
2.04938e-08
2.05035e-08
2.05133e-08
2.0523e-08
2.05328e-08
2.05426e-08
2.05524e-08
2.05622e-08
2.0572e-08
2.05819e-08
2.05917e-08
2.06016e-08
2.06115e-08
2.06214e-08
2.06314e-08
2.06413e-08
2.06513e-08
2.06613e-08
2.06712e-08
2.06813e-08
2.06913e-08
2.07013e-08
2.07114e-08
2.07215e-08
2.07316e-08
2.07417e-08
2.07518e-08
2.0762e-08
2.07721e-08
2.07823e-08
2.07925e-08
2.08027e-08
2.0813e-08
2.08232e-08
2.08335e-08
2.08438e-08
2.08541e-08
2.08645e-08
2.08748e-08
2.08852e-08
2.08956e-08
2.09061e-08
2.09165e-08
2.0927e-08
2.09375e-08
2.09481e-08
2.09586e-08
2.09692e-08
2.09798e-08
2.09905e-08
2.10012e-08
2.10119e-08
2.10226e-08
2.10334e-08
2.10442e-08
2.10551e-08
2.1066e-08
2.1077e-08
2.1088e-08
2.1099e-08
2.11101e-08
2.11213e-08
2.11325e-08
2.11437e-08
2.1155e-08
2.11664e-08
2.11778e-08
2.11893e-08
2.12009e-08
2.12125e-08
2.12241e-08
2.12357e-08
2.12473e-08
2.12588e-08
2.12703e-08
2.12819e-08
2.12937e-08
2.13072e-08
2.13221e-08
1.80615e-05
3.96419e-06
1.46019e-06
7.33806e-07
4.83684e-07
3.88046e-07
3.48963e-07
3.32441e-07
3.25419e-07
3.22503e-07
3.21363e-07
3.20974e-07
3.20889e-07
3.20916e-07
3.20977e-07
3.21041e-07
3.21098e-07
3.21147e-07
3.21188e-07
3.21223e-07
3.21252e-07
3.21277e-07
3.21298e-07
3.21317e-07
3.21333e-07
3.21347e-07
3.21359e-07
3.2137e-07
3.2138e-07
3.21389e-07
3.21397e-07
3.21404e-07
3.21411e-07
3.21417e-07
3.21423e-07
3.21428e-07
3.21433e-07
3.21438e-07
3.21442e-07
3.21446e-07
3.2145e-07
3.21454e-07
3.21458e-07
3.21461e-07
3.21464e-07
3.21467e-07
3.2147e-07
3.21473e-07
3.21476e-07
3.21479e-07
3.21482e-07
3.21484e-07
3.21487e-07
3.21489e-07
3.21492e-07
3.21494e-07
3.21496e-07
3.21499e-07
3.21501e-07
3.21503e-07
3.21505e-07
3.21507e-07
3.2151e-07
3.21512e-07
3.21514e-07
3.21516e-07
3.21518e-07
3.21519e-07
3.21521e-07
3.21523e-07
3.21524e-07
3.21525e-07
3.21527e-07
3.21528e-07
3.21529e-07
3.21529e-07
3.2153e-07
3.21531e-07
3.21532e-07
3.21532e-07
3.21533e-07
3.21534e-07
3.21535e-07
3.21536e-07
3.21537e-07
3.21538e-07
3.21539e-07
3.2154e-07
3.21541e-07
3.21543e-07
3.21544e-07
3.21545e-07
3.21546e-07
3.21548e-07
3.21549e-07
3.2155e-07
3.21552e-07
3.21553e-07
3.21555e-07
3.21556e-07
3.21557e-07
3.21559e-07
3.2156e-07
3.21562e-07
3.21563e-07
3.21565e-07
3.21567e-07
3.21568e-07
3.2157e-07
3.21571e-07
3.21573e-07
3.21574e-07
3.21576e-07
3.21577e-07
3.21578e-07
3.2158e-07
3.21581e-07
3.21582e-07
3.21584e-07
3.21585e-07
3.21586e-07
3.21587e-07
3.21589e-07
3.2159e-07
3.21591e-07
3.21593e-07
3.21594e-07
3.21596e-07
3.21597e-07
3.21599e-07
3.216e-07
3.21602e-07
3.21603e-07
3.21605e-07
3.21606e-07
3.21608e-07
3.21609e-07
3.21611e-07
3.21612e-07
3.21614e-07
3.21616e-07
3.21617e-07
3.21619e-07
3.2162e-07
3.21622e-07
3.21624e-07
3.21625e-07
3.21627e-07
3.21628e-07
3.2163e-07
3.21632e-07
3.21633e-07
3.21635e-07
3.21636e-07
3.21638e-07
3.2164e-07
3.21641e-07
3.21643e-07
3.21644e-07
3.21646e-07
3.21648e-07
3.21649e-07
3.21651e-07
3.21653e-07
3.21654e-07
3.21656e-07
3.21658e-07
3.21659e-07
3.21661e-07
3.21663e-07
3.21664e-07
3.21666e-07
3.21668e-07
3.21669e-07
3.21671e-07
3.21673e-07
3.21675e-07
3.21676e-07
3.21678e-07
3.2168e-07
3.21682e-07
3.21683e-07
3.21685e-07
3.21687e-07
3.21688e-07
3.2169e-07
3.21692e-07
3.21694e-07
3.21695e-07
3.21697e-07
3.21699e-07
3.21701e-07
3.21702e-07
3.21704e-07
3.21706e-07
3.21708e-07
3.2171e-07
3.21712e-07
3.21713e-07
3.21715e-07
3.21717e-07
3.21719e-07
3.21721e-07
3.21723e-07
3.21724e-07
3.21726e-07
3.21728e-07
3.2173e-07
3.21732e-07
3.21734e-07
3.21736e-07
3.21737e-07
3.21739e-07
3.21741e-07
3.21743e-07
3.21745e-07
3.21747e-07
3.21749e-07
3.21751e-07
3.21752e-07
3.21754e-07
3.21756e-07
3.21758e-07
3.2176e-07
3.21762e-07
3.21764e-07
3.21766e-07
3.21768e-07
3.2177e-07
3.21772e-07
3.21774e-07
3.21775e-07
3.21777e-07
3.21779e-07
3.21781e-07
3.21783e-07
3.21785e-07
3.21787e-07
3.21789e-07
3.21791e-07
3.21793e-07
3.21795e-07
3.21797e-07
3.21799e-07
3.21801e-07
3.21803e-07
3.21805e-07
3.21807e-07
3.21809e-07
3.21811e-07
3.21813e-07
3.21815e-07
3.21818e-07
3.2182e-07
3.21822e-07
3.21824e-07
3.21826e-07
3.21828e-07
3.2183e-07
3.21832e-07
3.21834e-07
3.21836e-07
3.21838e-07
3.2184e-07
3.21842e-07
3.21844e-07
3.21847e-07
3.21849e-07
3.21851e-07
3.21853e-07
3.21855e-07
3.21857e-07
3.21859e-07
3.21861e-07
3.21864e-07
3.21866e-07
3.21868e-07
3.2187e-07
3.21872e-07
3.21874e-07
3.21876e-07
3.21879e-07
3.21881e-07
3.21883e-07
3.21885e-07
3.21887e-07
3.21889e-07
3.21892e-07
3.21894e-07
3.21896e-07
3.21898e-07
3.219e-07
3.21903e-07
3.21905e-07
3.21907e-07
3.21909e-07
3.21912e-07
3.21914e-07
3.21916e-07
3.21918e-07
3.21921e-07
3.21923e-07
3.21925e-07
3.21927e-07
3.2193e-07
3.21932e-07
3.21934e-07
3.21936e-07
3.21939e-07
3.21941e-07
3.21943e-07
3.21945e-07
3.21948e-07
3.2195e-07
3.21952e-07
3.21955e-07
3.21957e-07
3.21959e-07
3.21962e-07
3.21964e-07
3.21966e-07
3.21969e-07
3.21971e-07
3.21973e-07
3.21976e-07
3.21978e-07
3.2198e-07
3.21983e-07
3.21985e-07
3.21987e-07
3.2199e-07
3.21992e-07
3.21995e-07
3.21997e-07
3.21999e-07
3.22002e-07
3.22004e-07
3.22007e-07
3.22009e-07
3.22011e-07
3.22014e-07
3.22016e-07
3.22019e-07
3.22021e-07
3.22023e-07
3.22026e-07
3.22028e-07
3.22031e-07
3.22033e-07
3.22036e-07
3.22038e-07
3.22041e-07
3.22043e-07
3.22046e-07
3.22048e-07
3.22051e-07
3.22053e-07
3.22055e-07
3.22058e-07
3.2206e-07
3.22063e-07
3.22066e-07
3.22068e-07
3.22071e-07
3.22073e-07
3.22076e-07
3.22078e-07
3.22081e-07
3.22083e-07
3.22086e-07
3.22088e-07
3.22091e-07
3.22093e-07
3.22096e-07
3.22099e-07
3.22101e-07
3.22104e-07
3.22106e-07
3.22109e-07
3.22111e-07
3.22114e-07
3.22117e-07
3.22119e-07
3.22122e-07
3.22124e-07
3.22127e-07
3.2213e-07
3.22132e-07
3.22135e-07
3.22138e-07
3.2214e-07
3.22143e-07
3.22146e-07
3.22148e-07
3.22151e-07
3.22153e-07
3.22156e-07
3.22159e-07
3.22162e-07
3.22164e-07
3.22167e-07
3.2217e-07
3.22172e-07
3.22175e-07
3.22178e-07
3.2218e-07
3.22183e-07
3.22186e-07
3.22189e-07
3.22191e-07
3.22194e-07
3.22197e-07
3.222e-07
3.22202e-07
3.22205e-07
3.22208e-07
3.22211e-07
3.22213e-07
3.22216e-07
3.22219e-07
3.22222e-07
3.22224e-07
3.22227e-07
3.2223e-07
3.22233e-07
3.22236e-07
3.22238e-07
3.22241e-07
3.22244e-07
3.22247e-07
3.2225e-07
3.22253e-07
3.22255e-07
3.22258e-07
3.22261e-07
3.22264e-07
3.22267e-07
3.2227e-07
3.22273e-07
3.22275e-07
3.22278e-07
3.22281e-07
3.22284e-07
3.22287e-07
3.2229e-07
3.22293e-07
3.22296e-07