/*--------------------------------*- C++ -*----------------------------------*\
| =========                 |                                                 |
| \\      /  F ield         | OpenFOAM: The Open Source CFD Toolbox           |
|  \\    /   O peration     | Version:  2512                                  |
|   \\  /    A nd           | Website:  www.openfoam.com                      |
|    \\/     M anipulation  |                                                 |
\*---------------------------------------------------------------------------*/
FoamFile
{
    version     2.0;
    format      ascii;
    arch        "LSB;label=32;scalar=64";
    class       volScalarField;
    location    "0.003";
    object      p;
}
// * * * * * * * * * * * * * * * * * * * * * * * * * * * * * * * * * * * * * //

dimensions      [1 -1 -2 0 0 0 0];

internalField   nonuniform List<scalar> 
100000
(
0
-62.5757
-90.7542
-103.878
-111.509
-116.4
-119.785
-122.364
-124.517
-126.44
-128.239
-129.975
-131.682
-133.381
-135.087
-136.808
-138.552
-140.325
-142.131
-143.975
-145.859
-147.787
-149.76
-151.781
-153.852
-155.974
-158.148
-160.377
-162.66
-164.999
-167.395
-169.848
-172.36
-174.93
-177.56
-180.25
-183
-185.812
-188.684
-191.619
-194.615
-197.673
-200.794
-203.978
-207.225
-210.535
-213.909
-217.346
-220.847
-224.411
-228.04
-231.733
-235.49
-239.311
-243.196
-247.146
-251.161
-255.24
-259.384
-263.592
-267.865
-272.203
-276.606
-281.073
-285.605
-290.202
-294.864
-299.591
-304.382
-309.239
-314.16
-319.147
-324.198
-329.314
-334.495
-339.74
-345.051
-350.426
-355.865
-361.369
-366.937
-372.57
-378.267
-384.029
-389.854
-395.744
-401.698
-407.716
-413.799
-419.945
-426.155
-432.43
-438.768
-445.17
-451.636
-458.166
-464.759
-471.416
-478.137
-484.921
-491.769
-498.68
-505.655
-512.693
-519.794
-526.958
-534.186
-541.477
-548.831
-556.247
-563.727
-571.27
-578.875
-586.544
-594.275
-602.068
-609.924
-617.843
-625.824
-633.867
-641.973
-650.14
-658.37
-666.662
-675.016
-683.431
-691.908
-700.447
-709.048
-717.71
-726.434
-735.219
-744.065
-752.973
-761.941
-770.971
-780.062
-789.213
-798.426
-807.699
-817.033
-826.428
-835.883
-845.398
-854.974
-864.61
-874.306
-884.063
-893.879
-903.755
-913.692
-923.687
-933.743
-943.858
-954.033
-964.266
-974.56
-984.912
-995.323
-1005.79
-1016.32
-1026.91
-1037.56
-1048.26
-1059.03
-1069.85
-1080.73
-1091.67
-1102.67
-1113.72
-1124.84
-1136.01
-1147.23
-1158.52
-1169.86
-1181.27
-1192.72
-1204.24
-1215.81
-1227.44
-1239.13
-1250.87
-1262.67
-1274.53
-1286.44
-1298.41
-1310.44
-1322.52
-1334.66
-1346.86
-1359.11
-1371.41
-1383.77
-1396.19
-1408.66
-1421.19
-1433.77
-1446.41
-1459.1
-1471.85
-1484.65
-1497.51
-1510.42
-1523.39
-1536.41
-1549.48
-1562.61
-1575.79
-1589.03
-1602.32
-1615.66
-1629.06
-1642.51
-1656.01
-1669.57
-1683.18
-1696.84
-1710.55
-1724.32
-1738.14
-1752.01
-1765.94
-1779.91
-1793.94
-1808.02
-1822.15
-1836.34
-1850.57
-1864.86
-1879.2
-1893.59
-1908.02
-1922.52
-1937.06
-1951.65
-1966.29
-1980.98
-1995.73
-2010.52
-2025.36
-2040.25
-2055.19
-2070.19
-2085.23
-2100.32
-2115.46
-2130.64
-2145.88
-2161.17
-2176.5
-2191.88
-2207.32
-2222.79
-2238.32
-2253.9
-2269.52
-2285.19
-2300.91
-2316.67
-2332.49
-2348.35
-2364.25
-2380.2
-2396.2
-2412.25
-2428.34
-2444.48
-2460.67
-2476.9
-2493.17
-2509.5
-2525.86
-2542.28
-2558.74
-2575.24
-2591.79
-2608.38
-2625.02
-2641.7
-2658.43
-2675.2
-2692.01
-2708.87
-2725.77
-2742.72
-2759.71
-2776.74
-2793.82
-2810.93
-2828.1
-2845.3
-2862.55
-2879.84
-2897.17
-2914.54
-2931.96
-2949.41
-2966.91
-2984.45
-3002.03
-3019.65
-3037.32
-3055.02
-3072.77
-3090.55
-3108.38
-3126.25
-3144.15
-3162.1
-3180.08
-3198.11
-3216.17
-3234.28
-3252.42
-3270.6
-3288.83
-3307.09
-3325.38
-3343.72
-3362.1
-3380.51
-3398.96
-3417.45
-3435.97
-3454.54
-3473.14
-3491.77
-3510.45
-3529.16
-3547.91
-3566.69
-3585.51
-3604.37
-3623.26
-3642.19
-3661.15
-3680.15
-3699.18
-3718.25
-3737.36
-3756.5
-3775.67
-3794.88
-3814.12
-3833.4
-3852.71
-3872.05
-3891.43
-3910.84
-3930.28
-3949.76
-3969.27
-3988.82
-4008.39
-4028
-4047.64
-4067.31
-4087.02
-4106.75
-4126.52
-4146.32
-4166.15
-4186.01
-4205.9
-4225.83
-4245.78
-4265.76
-4285.78
-4305.82
-4325.9
-4346
-4366.13
-4386.3
-4406.49
-4426.71
-4446.96
-4467.24
-4487.55
-4507.88
-4528.24
-4548.64
-4569.05
-4589.5
-4609.98
-4630.48
-4651.01
-4671.56
-4692.14
-4712.75
-4733.39
-4754.05
-4774.74
-4795.45
-4816.19
-4836.96
-4857.75
-4878.56
-4899.4
-4920.27
-4941.16
-4962.07
-4983.01
-5003.97
-5024.96
-5045.97
-5067.01
-5088.06
-5109.14
-5130.25
-5151.38
-5172.52
-5193.7
-5214.89
-5236.11
-5257.35
-5278.61
-5299.89
-5321.19
-5342.52
-5363.86
-5385.23
-5406.62
-5428.03
-5449.46
-5470.91
-5492.38
-5513.86
-5535.37
-5556.9
-5578.45
-5600.02
-5621.6
-5643.21
-5664.83
-5686.47
-5708.13
-5729.81
-5751.5
-5773.22
-5794.95
-5816.7
-5838.46
-5860.25
-5882.05
-5903.86
-5925.69
-5947.54
-5969.41
-5991.29
-6013.19
-6035.1
-6057.03
-6078.97
-6100.93
-6122.9
-6144.89
-6166.89
-6188.91
-6210.94
-6232.98
-6255.04
-6277.11
-6299.2
-6321.3
-6343.41
-6365.53
-6387.67
-6409.82
-6431.98
-6454.16
-6476.34
-6498.54
-6520.75
-6542.97
-6565.2
-6587.45
-6609.7
-6631.97
-6654.24
-6676.53
-6698.82
-6721.13
-6743.44
-6765.77
-6788.11
-6810.45
-6832.8
-6855.17
-6877.54
-6899.92
-6922.3
-6944.7
-6967.11
-6989.52
-7011.94
-7034.36
-7056.8
-7079.24
-7101.69
-7124.15
-7146.61
-7169.08
-7191.55
-7214.03
-7236.52
-7259.01
-7281.51
-7304.01
-7326.52
-7349.03
-7371.55
-7394.08
-7416.6
-7439.13
-7461.67
-7484.21
-7506.75
-7529.3
-7551.85
-7574.41
-7596.96
-7619.52
-7642.08
-7664.65
-7687.22
-7709.79
-7732.36
-7754.93
-7777.5
-7800.08
-7822.66
-7845.24
-7867.82
-7890.4
-7912.98
-7935.56
-7958.14
-7980.72
-8003.3
-8025.88
-8048.46
-8071.04
-8093.62
-8116.2
-8138.78
-8161.35
-8183.93
-8206.5
-8229.07
-8251.64
-8274.21
-8296.77
-8319.33
-8341.89
-8364.45
-8387
-8409.55
-8432.09
-8454.64
-8477.18
-8499.71
-8522.24
-8544.77
-8567.29
-8589.81
-8612.32
-8634.83
-8657.33
-8679.83
-8702.32
-8724.8
-8747.28
-8769.76
-8792.23
-8814.69
-8837.14
-8859.59
-8882.03
-8904.47
-8926.89
-8949.32
-8971.73
-8994.13
-9016.53
-9038.92
-9061.3
-9083.67
-9106.04
-9128.39
-9150.74
-9173.08
-9195.41
-9217.73
-9240.04
-9262.34
-9284.63
-9306.91
-9329.18
-9351.44
-9373.69
-9395.92
-9418.15
-9440.37
-9462.58
-9484.77
-9506.95
-9529.12
-9551.28
-9573.43
-9595.57
-9617.69
-9639.8
-9661.9
-9683.99
-9706.06
-9728.12
-9750.16
-9772.2
-9794.22
-9816.22
-9838.22
-9860.19
-9882.16
-9904.11
-9926.04
-9947.96
-9969.87
-9991.76
-10013.6
-10035.5
-10057.3
-10079.2
-10101
-10122.8
-10144.6
-10166.3
-10188.1
-10209.8
-10231.5
-10253.2
-10274.9
-10296.6
-10318.2
-10339.8
-10361.5
-10383
-10404.6
-10426.2
-10447.7
-10469.2
-10490.8
-10512.2
-10533.7
-10555.1
-10576.6
-10598
-10619.4
-10640.7
-10662.1
-10683.4
-10704.7
-10726
-10747.3
-10768.5
-10789.8
-10811
-10832.2
-10853.3
-10874.5
-10895.6
-10916.7
-10937.8
-10958.9
-10979.9
-11000.9
-11021.9
-11042.9
-11063.8
-11084.7
-11105.6
-11126.5
-11147.4
-11168.2
-11189
-11209.8
-11230.6
-11251.3
-11272
-11292.7
-11313.4
-11334
-11354.7
-11375.3
-11395.8
-11416.4
-11436.9
-11457.4
-11477.9
-11498.3
-11518.7
-11539.1
-11559.5
-11579.8
-11600.1
-11620.4
-11640.7
-11660.9
-11681.2
-11701.3
-11721.5
-11741.6
-11761.7
-11781.8
-11801.9
-11821.9
-11841.9
-11861.8
-11881.8
-11901.7
-11921.6
-11941.4
-11961.3
-11981.1
-12000.8
-12020.6
-12040.3
-12060
-12079.6
-12099.2
-12118.8
-12138.4
-12157.9
-12177.4
-12196.9
-12216.4
-12235.8
-12255.2
-12274.5
-12293.9
-12313.1
-12332.4
-12351.6
-12370.8
-12390
-12409.2
-12428.3
-12447.4
-12466.4
-12485.4
-12504.4
-12523.4
-12542.3
-12561.2
-12580
-12598.8
-12617.6
-12636.4
-12655.1
-12673.8
-12692.5
-12711.1
-12729.7
-12748.3
-12766.8
-12785.3
-12803.7
-12822.2
-12840.6
-12858.9
-12877.3
-12895.5
-12913.8
-12932
-12950.2
-12968.4
-12986.5
-13004.6
-13022.6
-13040.6
-13058.6
-13076.6
-13094.5
-13112.4
-13130.2
-13148
-13165.8
-13183.5
-13201.2
-13218.9
-13236.5
-13254.1
-13271.7
-13289.2
-13306.7
-13324.1
-13341.5
-13358.9
-13376.2
-13393.5
-13410.8
-13428
-13445.2
-13462.3
-13479.5
-13496.5
-13513.6
-13530.6
-13547.5
-13564.5
-13581.4
-13598.2
-13615
-13631.8
-13648.5
-13665.2
-13681.9
-13698.5
-13715.1
-13731.6
-13748.1
-13764.6
-13781
-13797.4
-13813.8
-13830.1
-13846.4
-13862.6
-13878.8
-13894.9
-13911.1
-13927.1
-13943.2
-13959.2
-13975.1
-13991
-14006.9
-14022.7
-14038.5
-14054.3
-14070
-14085.7
-14101.3
-14116.9
-14132.5
-14148
-14163.5
-14178.9
-14194.3
-14209.6
-14224.9
-14240.2
-14255.4
-14270.6
-14285.8
-14300.9
-14315.9
-14331
-14345.9
-14360.9
-14375.8
-14390.6
-14405.4
-14420.2
-14434.9
-14449.6
-14464.3
-14478.9
-14493.4
-14507.9
-14522.4
-14536.8
-14551.2
-14565.6
-14579.9
-14594.2
-14608.4
-14622.6
-14636.7
-14650.8
-14664.8
-14678.8
-14692.8
-14706.7
-14720.6
-14734.4
-14748.2
-14762
-14775.7
-14789.3
-14803
-14816.5
-14830.1
-14843.6
-14857
-14870.4
-14883.8
-14897.1
-14910.3
-14923.6
-14936.7
-14949.9
-14963
-14976
-14989
-15002
-15014.9
-15027.8
-15040.6
-15053.4
-15066.1
-15078.8
-15091.5
-15104.1
-15116.7
-15129.2
-15141.7
-15154.1
-15166.5
-15178.8
-15191.1
-15203.4
-15215.6
-15227.7
-15239.8
-15251.9
-15263.9
-15275.9
-15287.9
-15299.8
-15311.6
-15323.4
-15335.2
-15346.9
-15358.6
-15370.2
-15381.8
-15393.3
-15404.8
-15416.2
-15427.6
-15439
-15450.3
-15461.6
-15472.8
-15483.9
-15495.1
-15506.2
-15517.2
-15528.2
-15539.1
-15550
-15560.9
-15571.7
-15582.5
-15593.2
-15603.9
-15614.5
-15625.1
-15635.7
-15646.2
-15656.6
-15667
-15677.4
-15687.7
-15698
-15708.2
-15718.4
-15728.6
-15738.7
-15748.7
-15758.7
-15768.7
-15778.6
-15788.5
-15798.3
-15808.1
-15817.9
-15827.6
-15837.3
-15846.9
-15856.5
-15866
-15875.5
-15885
-15894.4
-15903.8
-15913.2
-15922.5
-15931.7
-15941
-15950.1
-15959.3
-15968.4
-15977.5
-15986.6
-15995.6
-16004.6
-16013.5
-16022.5
-16031.4
-59.3125
-79.7315
-94.7279
-104.361
-110.886
-115.532
-119.005
-121.76
-124.081
-126.141
-128.047
-129.862
-131.628
-133.371
-135.109
-136.856
-138.621
-140.41
-142.229
-144.084
-145.977
-147.912
-149.892
-151.919
-153.994
-156.12
-158.298
-160.53
-162.816
-165.158
-167.556
-170.011
-172.525
-175.097
-177.729
-180.42
-183.172
-185.984
-188.858
-191.793
-194.79
-197.85
-200.971
-204.156
-207.404
-210.714
-214.088
-217.526
-221.027
-224.592
-228.221
-231.914
-235.672
-239.493
-243.379
-247.329
-251.344
-255.424
-259.568
-263.776
-268.049
-272.387
-276.79
-281.258
-285.79
-290.387
-295.049
-299.776
-304.568
-309.425
-314.346
-319.333
-324.384
-329.5
-334.681
-339.926
-345.236
-350.611
-356.051
-361.555
-367.123
-372.756
-378.453
-384.214
-390.04
-395.93
-401.884
-407.902
-413.984
-420.131
-426.341
-432.616
-438.954
-445.356
-451.822
-458.352
-464.945
-471.602
-478.323
-485.107
-491.955
-498.866
-505.841
-512.879
-519.98
-527.145
-534.372
-541.663
-549.017
-556.434
-563.914
-571.456
-579.062
-586.73
-594.461
-602.255
-610.111
-618.029
-626.01
-634.054
-642.159
-650.327
-658.557
-666.849
-675.202
-683.618
-692.095
-700.634
-709.235
-717.897
-726.621
-735.406
-744.252
-753.159
-762.128
-771.158
-780.249
-789.401
-798.613
-807.886
-817.22
-826.615
-836.07
-845.586
-855.161
-864.798
-874.494
-884.25
-894.067
-903.943
-913.879
-923.875
-933.931
-944.046
-954.22
-964.454
-974.747
-985.1
-995.511
-1005.98
-1016.51
-1027.1
-1037.75
-1048.45
-1059.22
-1070.04
-1080.92
-1091.86
-1102.86
-1113.91
-1125.02
-1136.19
-1147.42
-1158.71
-1170.05
-1181.45
-1192.91
-1204.43
-1216
-1227.63
-1239.32
-1251.06
-1262.86
-1274.72
-1286.63
-1298.6
-1310.63
-1322.71
-1334.85
-1347.04
-1359.29
-1371.6
-1383.96
-1396.38
-1408.85
-1421.38
-1433.96
-1446.6
-1459.29
-1472.04
-1484.84
-1497.7
-1510.61
-1523.58
-1536.6
-1549.67
-1562.8
-1575.98
-1589.22
-1602.51
-1615.85
-1629.25
-1642.7
-1656.2
-1669.76
-1683.37
-1697.03
-1710.74
-1724.51
-1738.33
-1752.2
-1766.13
-1780.1
-1794.13
-1808.21
-1822.34
-1836.53
-1850.76
-1865.05
-1879.39
-1893.78
-1908.22
-1922.71
-1937.25
-1951.84
-1966.48
-1981.17
-1995.92
-2010.71
-2025.55
-2040.44
-2055.39
-2070.38
-2085.42
-2100.51
-2115.65
-2130.84
-2146.07
-2161.36
-2176.69
-2192.08
-2207.51
-2222.99
-2238.51
-2254.09
-2269.71
-2285.38
-2301.1
-2316.87
-2332.68
-2348.54
-2364.44
-2380.4
-2396.4
-2412.44
-2428.54
-2444.68
-2460.86
-2477.09
-2493.37
-2509.69
-2526.06
-2542.47
-2558.93
-2575.43
-2591.98
-2608.57
-2625.21
-2641.89
-2658.62
-2675.39
-2692.21
-2709.06
-2725.97
-2742.91
-2759.9
-2776.93
-2794.01
-2811.13
-2828.29
-2845.49
-2862.74
-2880.03
-2897.36
-2914.73
-2932.15
-2949.61
-2967.1
-2984.65
-3002.23
-3019.85
-3037.51
-3055.22
-3072.96
-3090.75
-3108.57
-3126.44
-3144.35
-3162.29
-3180.28
-3198.3
-3216.37
-3234.47
-3252.62
-3270.8
-3289.02
-3307.28
-3325.58
-3343.92
-3362.29
-3380.7
-3399.15
-3417.64
-3436.17
-3454.73
-3473.33
-3491.97
-3510.64
-3529.36
-3548.1
-3566.89
-3585.71
-3604.56
-3623.46
-3642.38
-3661.35
-3680.35
-3699.38
-3718.45
-3737.55
-3756.69
-3775.87
-3795.08
-3814.32
-3833.59
-3852.9
-3872.25
-3891.63
-3911.04
-3930.48
-3949.96
-3969.47
-3989.01
-4008.59
-4028.2
-4047.84
-4067.51
-4087.21
-4106.95
-4126.72
-4146.52
-4166.35
-4186.21
-4206.1
-4226.02
-4245.98
-4265.96
-4285.98
-4306.02
-4326.1
-4346.2
-4366.33
-4386.5
-4406.69
-4426.91
-4447.16
-4467.44
-4487.74
-4508.08
-4528.44
-4548.83
-4569.25
-4589.7
-4610.17
-4630.68
-4651.21
-4671.76
-4692.34
-4712.95
-4733.59
-4754.25
-4774.94
-4795.65
-4816.39
-4837.16
-4857.95
-4878.76
-4899.6
-4920.47
-4941.36
-4962.27
-4983.21
-5004.17
-5025.16
-5046.17
-5067.21
-5088.26
-5109.34
-5130.45
-5151.58
-5172.73
-5193.9
-5215.09
-5236.31
-5257.55
-5278.81
-5300.09
-5321.39
-5342.72
-5364.07
-5385.43
-5406.82
-5428.23
-5449.66
-5471.11
-5492.58
-5514.07
-5535.57
-5557.1
-5578.65
-5600.22
-5621.8
-5643.41
-5665.03
-5686.67
-5708.33
-5730.01
-5751.71
-5773.42
-5795.15
-5816.9
-5838.67
-5860.45
-5882.25
-5904.06
-5925.9
-5947.75
-5969.61
-5991.49
-6013.39
-6035.3
-6057.23
-6079.17
-6101.13
-6123.1
-6145.09
-6167.09
-6189.11
-6211.14
-6233.19
-6255.24
-6277.32
-6299.4
-6321.5
-6343.61
-6365.74
-6387.87
-6410.02
-6432.19
-6454.36
-6476.55
-6498.74
-6520.95
-6543.17
-6565.41
-6587.65
-6609.9
-6632.17
-6654.45
-6676.73
-6699.03
-6721.33
-6743.65
-6765.98
-6788.31
-6810.65
-6833.01
-6855.37
-6877.74
-6900.12
-6922.51
-6944.91
-6967.31
-6989.72
-7012.14
-7034.57
-7057
-7079.45
-7101.9
-7124.35
-7146.81
-7169.28
-7191.76
-7214.24
-7236.72
-7259.22
-7281.72
-7304.22
-7326.73
-7349.24
-7371.76
-7394.28
-7416.81
-7439.34
-7461.88
-7484.42
-7506.96
-7529.51
-7552.06
-7574.61
-7597.17
-7619.73
-7642.29
-7664.86
-7687.42
-7709.99
-7732.56
-7755.14
-7777.71
-7800.29
-7822.87
-7845.44
-7868.02
-7890.6
-7913.19
-7935.77
-7958.35
-7980.93
-8003.51
-8026.09
-8048.67
-8071.25
-8093.83
-8116.41
-8138.99
-8161.56
-8184.14
-8206.71
-8229.28
-8251.85
-8274.42
-8296.98
-8319.54
-8342.1
-8364.66
-8387.21
-8409.76
-8432.3
-8454.85
-8477.38
-8499.92
-8522.45
-8544.98
-8567.5
-8590.02
-8612.53
-8635.04
-8657.54
-8680.04
-8702.53
-8725.01
-8747.49
-8769.97
-8792.44
-8814.9
-8837.35
-8859.8
-8882.24
-8904.68
-8927.11
-8949.53
-8971.94
-8994.34
-9016.74
-9039.13
-9061.51
-9083.88
-9106.25
-9128.6
-9150.95
-9173.29
-9195.62
-9217.94
-9240.25
-9262.55
-9284.84
-9307.12
-9329.39
-9351.65
-9373.9
-9396.14
-9418.36
-9440.58
-9462.79
-9484.98
-9507.17
-9529.34
-9551.5
-9573.64
-9595.78
-9617.9
-9640.01
-9662.11
-9684.2
-9706.27
-9728.33
-9750.38
-9772.41
-9794.43
-9816.44
-9838.43
-9860.41
-9882.37
-9904.32
-9926.25
-9948.17
-9970.08
-9991.97
-10013.8
-10035.7
-10057.6
-10079.4
-10101.2
-10123
-10144.8
-10166.5
-10188.3
-10210
-10231.7
-10253.4
-10275.1
-10296.8
-10318.4
-10340.1
-10361.7
-10383.3
-10404.8
-10426.4
-10447.9
-10469.5
-10491
-10512.5
-10533.9
-10555.4
-10576.8
-10598.2
-10619.6
-10641
-10662.3
-10683.6
-10705
-10726.2
-10747.5
-10768.8
-10790
-10811.2
-10832.4
-10853.6
-10874.7
-10895.8
-10916.9
-10938
-10959.1
-10980.1
-11001.1
-11022.1
-11043.1
-11064
-11085
-11105.9
-11126.7
-11147.6
-11168.4
-11189.2
-11210
-11230.8
-11251.5
-11272.3
-11292.9
-11313.6
-11334.3
-11354.9
-11375.5
-11396
-11416.6
-11437.1
-11457.6
-11478.1
-11498.5
-11518.9
-11539.3
-11559.7
-11580
-11600.4
-11620.7
-11640.9
-11661.2
-11681.4
-11701.6
-11721.7
-11741.8
-11761.9
-11782
-11802.1
-11822.1
-11842.1
-11862.1
-11882
-11901.9
-11921.8
-11941.6
-11961.5
-11981.3
-12001
-12020.8
-12040.5
-12060.2
-12079.8
-12099.5
-12119.1
-12138.6
-12158.2
-12177.7
-12197.1
-12216.6
-12236
-12255.4
-12274.7
-12294.1
-12313.4
-12332.6
-12351.9
-12371.1
-12390.2
-12409.4
-12428.5
-12447.6
-12466.6
-12485.6
-12504.6
-12523.6
-12542.5
-12561.4
-12580.2
-12599.1
-12617.9
-12636.6
-12655.3
-12674
-12692.7
-12711.3
-12729.9
-12748.5
-12767
-12785.5
-12804
-12822.4
-12840.8
-12859.1
-12877.5
-12895.8
-12914
-12932.2
-12950.4
-12968.6
-12986.7
-13004.8
-13022.9
-13040.9
-13058.9
-13076.8
-13094.7
-13112.6
-13130.4
-13148.2
-13166
-13183.7
-13201.4
-13219.1
-13236.7
-13254.3
-13271.9
-13289.4
-13306.9
-13324.3
-13341.7
-13359.1
-13376.4
-13393.7
-13411
-13428.2
-13445.4
-13462.6
-13479.7
-13496.8
-13513.8
-13530.8
-13547.8
-13564.7
-13581.6
-13598.4
-13615.2
-13632
-13648.8
-13665.5
-13682.1
-13698.7
-13715.3
-13731.9
-13748.4
-13764.8
-13781.3
-13797.7
-13814
-13830.3
-13846.6
-13862.8
-13879
-13895.2
-13911.3
-13927.4
-13943.4
-13959.4
-13975.3
-13991.3
-14007.1
-14023
-14038.8
-14054.5
-14070.2
-14085.9
-14101.6
-14117.1
-14132.7
-14148.2
-14163.7
-14179.1
-14194.5
-14209.9
-14225.2
-14240.4
-14255.7
-14270.8
-14286
-14301.1
-14316.2
-14331.2
-14346.2
-14361.1
-14376
-14390.8
-14405.7
-14420.4
-14435.2
-14449.8
-14464.5
-14479.1
-14493.6
-14508.2
-14522.6
-14537.1
-14551.5
-14565.8
-14580.1
-14594.4
-14608.6
-14622.8
-14636.9
-14651
-14665.1
-14679.1
-14693
-14707
-14720.8
-14734.7
-14748.5
-14762.2
-14775.9
-14789.6
-14803.2
-14816.8
-14830.3
-14843.8
-14857.2
-14870.6
-14884
-14897.3
-14910.6
-14923.8
-14937
-14950.1
-14963.2
-14976.3
-14989.3
-15002.2
-15015.1
-15028
-15040.8
-15053.6
-15066.4
-15079.1
-15091.7
-15104.3
-15116.9
-15129.4
-15141.9
-15154.3
-15166.7
-15179
-15191.3
-15203.6
-15215.8
-15228
-15240.1
-15252.1
-15264.2
-15276.2
-15288.1
-15300
-15311.8
-15323.6
-15335.4
-15347.1
-15358.8
-15370.4
-15382
-15393.5
-15405
-15416.5
-15427.9
-15439.2
-15450.5
-15461.8
-15473
-15484.2
-15495.3
-15506.4
-15517.4
-15528.4
-15539.4
-15550.3
-15561.1
-15571.9
-15582.7
-15593.4
-15604.1
-15614.7
-15625.3
-15635.9
-15646.4
-15656.8
-15667.2
-15677.6
-15687.9
-15698.2
-15708.4
-15718.6
-15728.8
-15738.9
-15748.9
-15759
-15768.9
-15778.8
-15788.7
-15798.6
-15808.4
-15818.1
-15827.8
-15837.5
-15847.1
-15856.7
-15866.3
-15875.8
-15885.2
-15894.6
-15904
-15913.4
-15922.7
-15931.9
-15941.2
-15950.4
-15959.5
-15968.6
-15977.7
-15986.8
-15995.8
-16004.8
-16013.8
-16022.7
-16031.6
-82.948
-90.6185
-98.5836
-105.47
-110.96
-115.258
-118.674
-121.482
-123.885
-126.025
-127.997
-129.864
-131.671
-133.446
-135.208
-136.974
-138.754
-140.555
-142.384
-144.247
-146.147
-148.088
-150.073
-152.103
-154.183
-156.312
-158.493
-160.727
-163.015
-165.359
-167.759
-170.216
-172.731
-175.305
-177.937
-180.63
-183.383
-186.196
-189.071
-192.007
-195.005
-198.065
-201.187
-204.372
-207.62
-210.932
-214.306
-217.744
-221.246
-224.812
-228.441
-232.134
-235.892
-239.714
-243.6
-247.551
-251.566
-255.645
-259.79
-263.998
-268.272
-272.61
-277.013
-281.481
-286.013
-290.611
-295.273
-300
-304.792
-309.648
-314.57
-319.556
-324.608
-329.724
-334.904
-340.15
-345.46
-350.835
-356.274
-361.778
-367.346
-372.979
-378.676
-384.437
-390.263
-396.153
-402.107
-408.125
-414.207
-420.354
-426.564
-432.838
-439.177
-445.579
-452.045
-458.575
-465.168
-471.825
-478.546
-485.33
-492.178
-499.089
-506.064
-513.102
-520.203
-527.368
-534.595
-541.886
-549.24
-556.657
-564.137
-571.68
-579.285
-586.953
-594.684
-602.478
-610.334
-618.253
-626.234
-634.277
-642.382
-650.55
-658.78
-667.072
-675.425
-683.841
-692.318
-700.857
-709.458
-718.12
-726.844
-735.629
-744.475
-753.383
-762.351
-771.381
-780.472
-789.624
-798.836
-808.109
-817.443
-826.838
-836.293
-845.809
-855.385
-865.021
-874.717
-884.473
-894.29
-904.166
-914.102
-924.098
-934.154
-944.269
-954.444
-964.678
-974.971
-985.323
-995.735
-1006.21
-1016.73
-1027.32
-1037.97
-1048.68
-1059.44
-1070.26
-1081.14
-1092.08
-1103.08
-1114.13
-1125.25
-1136.42
-1147.65
-1158.93
-1170.28
-1181.68
-1193.14
-1204.65
-1216.23
-1227.86
-1239.54
-1251.29
-1263.09
-1274.94
-1286.86
-1298.83
-1310.85
-1322.94
-1335.07
-1347.27
-1359.52
-1371.82
-1384.19
-1396.6
-1409.07
-1421.6
-1434.19
-1446.82
-1459.52
-1472.26
-1485.07
-1497.92
-1510.84
-1523.8
-1536.82
-1549.9
-1563.02
-1576.21
-1589.44
-1602.73
-1616.08
-1629.47
-1642.92
-1656.43
-1669.98
-1683.59
-1697.25
-1710.97
-1724.74
-1738.56
-1752.43
-1766.35
-1780.33
-1794.36
-1808.44
-1822.57
-1836.75
-1850.99
-1865.27
-1879.61
-1894
-1908.44
-1922.93
-1937.47
-1952.06
-1966.71
-1981.4
-1996.14
-2010.93
-2025.78
-2040.67
-2055.61
-2070.6
-2085.64
-2100.73
-2115.87
-2131.06
-2146.3
-2161.58
-2176.92
-2192.3
-2207.73
-2223.21
-2238.74
-2254.31
-2269.94
-2285.61
-2301.33
-2317.09
-2332.9
-2348.76
-2364.67
-2380.62
-2396.62
-2412.67
-2428.76
-2444.9
-2461.09
-2477.32
-2493.59
-2509.92
-2526.28
-2542.7
-2559.15
-2575.66
-2592.21
-2608.8
-2625.44
-2642.12
-2658.85
-2675.62
-2692.43
-2709.29
-2726.19
-2743.14
-2760.13
-2777.16
-2794.24
-2811.35
-2828.52
-2845.72
-2862.97
-2880.26
-2897.59
-2914.96
-2932.38
-2949.83
-2967.33
-2984.87
-3002.45
-3020.08
-3037.74
-3055.44
-3073.19
-3090.97
-3108.8
-3126.67
-3144.57
-3162.52
-3180.51
-3198.53
-3216.6
-3234.7
-3252.84
-3271.03
-3289.25
-3307.51
-3325.81
-3344.14
-3362.52
-3380.93
-3399.38
-3417.87
-3436.39
-3454.96
-3473.56
-3492.2
-3510.87
-3529.58
-3548.33
-3567.11
-3585.93
-3604.79
-3623.68
-3642.61
-3661.57
-3680.57
-3699.61
-3718.68
-3737.78
-3756.92
-3776.09
-3795.3
-3814.54
-3833.82
-3853.13
-3872.48
-3891.85
-3911.26
-3930.71
-3950.19
-3969.7
-3989.24
-4008.82
-4028.42
-4048.06
-4067.74
-4087.44
-4107.18
-4126.95
-4146.75
-4166.58
-4186.44
-4206.33
-4226.25
-4246.21
-4266.19
-4286.2
-4306.25
-4326.32
-4346.43
-4366.56
-4386.72
-4406.92
-4427.14
-4447.39
-4467.67
-4487.97
-4508.31
-4528.67
-4549.06
-4569.48
-4589.93
-4610.4
-4630.9
-4651.43
-4671.99
-4692.57
-4713.18
-4733.82
-4754.48
-4775.17
-4795.88
-4816.62
-4837.38
-4858.17
-4878.99
-4899.83
-4920.7
-4941.59
-4962.5
-4983.44
-5004.4
-5025.39
-5046.4
-5067.43
-5088.49
-5109.57
-5130.68
-5151.8
-5172.95
-5194.13
-5215.32
-5236.54
-5257.78
-5279.04
-5300.32
-5321.62
-5342.95
-5364.29
-5385.66
-5407.05
-5428.46
-5449.89
-5471.34
-5492.81
-5514.3
-5535.8
-5557.33
-5578.88
-5600.45
-5622.03
-5643.64
-5665.26
-5686.9
-5708.56
-5730.24
-5751.94
-5773.65
-5795.38
-5817.13
-5838.9
-5860.68
-5882.48
-5904.29
-5926.13
-5947.98
-5969.84
-5991.72
-6013.62
-6035.53
-6057.46
-6079.4
-6101.36
-6123.33
-6145.32
-6167.32
-6189.34
-6211.37
-6233.42
-6255.47
-6277.55
-6299.63
-6321.73
-6343.84
-6365.97
-6388.1
-6410.25
-6432.42
-6454.59
-6476.78
-6498.97
-6521.18
-6543.41
-6565.64
-6587.88
-6610.14
-6632.4
-6654.68
-6676.96
-6699.26
-6721.56
-6743.88
-6766.21
-6788.54
-6810.89
-6833.24
-6855.6
-6877.97
-6900.35
-6922.74
-6945.14
-6967.54
-6989.95
-7012.37
-7034.8
-7057.24
-7079.68
-7102.13
-7124.58
-7147.05
-7169.51
-7191.99
-7214.47
-7236.96
-7259.45
-7281.95
-7304.45
-7326.96
-7349.47
-7371.99
-7394.51
-7417.04
-7439.57
-7462.11
-7484.65
-7507.19
-7529.74
-7552.29
-7574.84
-7597.4
-7619.96
-7642.52
-7665.09
-7687.66
-7710.23
-7732.8
-7755.37
-7777.94
-7800.52
-7823.1
-7845.68
-7868.26
-7890.84
-7913.42
-7936
-7958.58
-7981.16
-8003.74
-8026.33
-8048.91
-8071.49
-8094.07
-8116.64
-8139.22
-8161.8
-8184.37
-8206.94
-8229.51
-8252.08
-8274.65
-8297.21
-8319.77
-8342.33
-8364.89
-8387.44
-8409.99
-8432.54
-8455.08
-8477.62
-8500.15
-8522.68
-8545.21
-8567.73
-8590.25
-8612.76
-8635.27
-8657.77
-8680.27
-8702.76
-8725.25
-8747.73
-8770.2
-8792.67
-8815.13
-8837.59
-8860.04
-8882.48
-8904.91
-8927.34
-8949.76
-8972.17
-8994.58
-9016.98
-9039.37
-9061.75
-9084.12
-9106.48
-9128.84
-9151.19
-9173.52
-9195.85
-9218.17
-9240.48
-9262.78
-9285.07
-9307.35
-9329.62
-9351.88
-9374.13
-9396.37
-9418.6
-9440.82
-9463.02
-9485.22
-9507.4
-9529.57
-9551.73
-9573.88
-9596.02
-9618.14
-9640.25
-9662.35
-9684.43
-9706.51
-9728.57
-9750.61
-9772.65
-9794.67
-9816.67
-9838.66
-9860.64
-9882.61
-9904.56
-9926.49
-9948.41
-9970.32
-9992.21
-10014.1
-10035.9
-10057.8
-10079.6
-10101.4
-10123.2
-10145
-10166.8
-10188.5
-10210.3
-10232
-10253.7
-10275.4
-10297
-10318.7
-10340.3
-10361.9
-10383.5
-10405.1
-10426.6
-10448.2
-10469.7
-10491.2
-10512.7
-10534.2
-10555.6
-10577
-10598.4
-10619.8
-10641.2
-10662.5
-10683.9
-10705.2
-10726.5
-10747.7
-10769
-10790.2
-10811.4
-10832.6
-10853.8
-10874.9
-10896.1
-10917.2
-10938.2
-10959.3
-10980.3
-11001.4
-11022.3
-11043.3
-11064.3
-11085.2
-11106.1
-11127
-11147.8
-11168.7
-11189.5
-11210.3
-11231
-11251.8
-11272.5
-11293.2
-11313.9
-11334.5
-11355.1
-11375.7
-11396.3
-11416.8
-11437.3
-11457.8
-11478.3
-11498.8
-11519.2
-11539.6
-11559.9
-11580.3
-11600.6
-11620.9
-11641.2
-11661.4
-11681.6
-11701.8
-11722
-11742.1
-11762.2
-11782.3
-11802.3
-11822.3
-11842.3
-11862.3
-11882.2
-11902.1
-11922
-11941.9
-11961.7
-11981.5
-12001.3
-12021
-12040.7
-12060.4
-12080.1
-12099.7
-12119.3
-12138.9
-12158.4
-12177.9
-12197.4
-12216.8
-12236.2
-12255.6
-12275
-12294.3
-12313.6
-12332.9
-12352.1
-12371.3
-12390.5
-12409.6
-12428.7
-12447.8
-12466.9
-12485.9
-12504.9
-12523.8
-12542.7
-12561.6
-12580.5
-12599.3
-12618.1
-12636.8
-12655.6
-12674.3
-12692.9
-12711.6
-12730.2
-12748.7
-12767.2
-12785.7
-12804.2
-12822.6
-12841
-12859.4
-12877.7
-12896
-12914.3
-12932.5
-12950.7
-12968.8
-12987
-13005
-13023.1
-13041.1
-13059.1
-13077
-13095
-13112.8
-13130.7
-13148.5
-13166.2
-13184
-13201.7
-13219.3
-13237
-13254.6
-13272.1
-13289.6
-13307.1
-13324.6
-13342
-13359.3
-13376.7
-13394
-13411.2
-13428.5
-13445.7
-13462.8
-13479.9
-13497
-13514
-13531
-13548
-13564.9
-13581.8
-13598.7
-13615.5
-13632.3
-13649
-13665.7
-13682.4
-13699
-13715.6
-13732.1
-13748.6
-13765.1
-13781.5
-13797.9
-13814.2
-13830.6
-13846.8
-13863.1
-13879.3
-13895.4
-13911.5
-13927.6
-13943.6
-13959.6
-13975.6
-13991.5
-14007.4
-14023.2
-14039
-14054.8
-14070.5
-14086.2
-14101.8
-14117.4
-14132.9
-14148.5
-14163.9
-14179.4
-14194.7
-14210.1
-14225.4
-14240.7
-14255.9
-14271.1
-14286.2
-14301.3
-14316.4
-14331.4
-14346.4
-14361.3
-14376.2
-14391.1
-14405.9
-14420.7
-14435.4
-14450.1
-14464.7
-14479.3
-14493.9
-14508.4
-14522.9
-14537.3
-14551.7
-14566.1
-14580.4
-14594.6
-14608.8
-14623
-14637.2
-14651.3
-14665.3
-14679.3
-14693.3
-14707.2
-14721.1
-14734.9
-14748.7
-14762.4
-14776.1
-14789.8
-14803.4
-14817
-14830.5
-14844
-14857.5
-14870.9
-14884.2
-14897.5
-14910.8
-14924
-14937.2
-14950.4
-14963.4
-14976.5
-14989.5
-15002.5
-15015.4
-15028.3
-15041.1
-15053.9
-15066.6
-15079.3
-15092
-15104.6
-15117.1
-15129.6
-15142.1
-15154.6
-15166.9
-15179.3
-15191.6
-15203.8
-15216
-15228.2
-15240.3
-15252.4
-15264.4
-15276.4
-15288.3
-15300.2
-15312.1
-15323.9
-15335.6
-15347.4
-15359
-15370.6
-15382.2
-15393.8
-15405.3
-15416.7
-15428.1
-15439.4
-15450.8
-15462
-15473.2
-15484.4
-15495.5
-15506.6
-15517.7
-15528.7
-15539.6
-15550.5
-15561.4
-15572.2
-15583
-15593.7
-15604.4
-15615
-15625.6
-15636.1
-15646.6
-15657.1
-15667.5
-15677.9
-15688.2
-15698.5
-15708.7
-15718.9
-15729
-15739.1
-15749.2
-15759.2
-15769.2
-15779.1
-15789
-15798.8
-15808.6
-15818.4
-15828.1
-15837.7
-15847.4
-15856.9
-15866.5
-15876
-15885.5
-15894.9
-15904.3
-15913.6
-15922.9
-15932.2
-15941.4
-15950.6
-15959.7
-15968.9
-15978
-15987
-15996
-16005
-16014
-16022.9
-16031.8
-95.0828
-98.5344
-103.02
-107.787
-112.117
-115.817
-118.947
-121.632
-123.992
-126.124
-128.104
-129.985
-131.804
-133.59
-135.363
-137.137
-138.923
-140.729
-142.563
-144.429
-146.333
-148.276
-150.263
-152.296
-154.377
-156.508
-158.69
-160.925
-163.215
-165.559
-167.96
-170.418
-172.934
-175.508
-178.141
-180.834
-183.587
-186.401
-189.276
-192.212
-195.211
-198.271
-201.394
-204.579
-207.828
-211.139
-214.514
-217.952
-221.454
-225.02
-228.649
-232.343
-236.101
-239.923
-243.809
-247.76
-251.775
-255.854
-259.999
-264.208
-268.481
-272.82
-277.223
-281.69
-286.223
-290.82
-295.482
-300.21
-305.001
-309.858
-314.78
-319.766
-324.817
-329.933
-335.114
-340.359
-345.669
-351.044
-356.483
-361.987
-367.555
-373.187
-378.884
-384.646
-390.471
-396.361
-402.315
-408.333
-414.415
-420.562
-426.772
-433.046
-439.385
-445.787
-452.253
-458.783
-465.376
-472.033
-478.754
-485.538
-492.386
-499.297
-506.272
-513.31
-520.411
-527.576
-534.803
-542.094
-549.448
-556.865
-564.345
-571.887
-579.493
-587.161
-594.892
-602.686
-610.542
-618.46
-626.441
-634.485
-642.59
-650.758
-658.988
-667.279
-675.633
-684.048
-692.526
-701.065
-709.665
-718.327
-727.051
-735.836
-744.682
-753.59
-762.559
-771.589
-780.679
-789.831
-799.044
-808.317
-817.651
-827.046
-836.501
-846.016
-855.592
-865.228
-874.925
-884.681
-894.497
-904.374
-914.31
-924.306
-934.361
-944.477
-954.651
-964.885
-975.178
-985.531
-995.942
-1006.41
-1016.94
-1027.53
-1038.18
-1048.88
-1059.65
-1070.47
-1081.35
-1092.29
-1103.29
-1114.34
-1125.45
-1136.63
-1147.85
-1159.14
-1170.48
-1181.89
-1193.34
-1204.86
-1216.43
-1228.06
-1239.75
-1251.49
-1263.29
-1275.15
-1287.06
-1299.03
-1311.06
-1323.14
-1335.28
-1347.48
-1359.73
-1372.03
-1384.39
-1396.81
-1409.28
-1421.81
-1434.39
-1447.03
-1459.72
-1472.47
-1485.27
-1498.13
-1511.04
-1524.01
-1537.03
-1550.1
-1563.23
-1576.41
-1589.65
-1602.94
-1616.28
-1629.68
-1643.13
-1656.63
-1670.19
-1683.8
-1697.46
-1711.18
-1724.94
-1738.76
-1752.63
-1766.56
-1780.54
-1794.56
-1808.64
-1822.78
-1836.96
-1851.2
-1865.48
-1879.82
-1894.21
-1908.65
-1923.14
-1937.68
-1952.27
-1966.91
-1981.61
-1996.35
-2011.14
-2025.98
-2040.88
-2055.82
-2070.81
-2085.85
-2100.94
-2116.08
-2131.27
-2146.51
-2161.79
-2177.13
-2192.51
-2207.94
-2223.42
-2238.95
-2254.52
-2270.14
-2285.81
-2301.53
-2317.3
-2333.11
-2348.97
-2364.88
-2380.83
-2396.83
-2412.88
-2428.97
-2445.11
-2461.29
-2477.52
-2493.8
-2510.12
-2526.49
-2542.9
-2559.36
-2575.87
-2592.41
-2609.01
-2625.64
-2642.33
-2659.05
-2675.82
-2692.64
-2709.5
-2726.4
-2743.35
-2760.33
-2777.37
-2794.44
-2811.56