/*--------------------------------*- C++ -*----------------------------------*\
| =========                 |                                                 |
| \\      /  F ield         | OpenFOAM: The Open Source CFD Toolbox           |
|  \\    /   O peration     | Version:  2512                                  |
|   \\  /    A nd           | Website:  www.openfoam.com                      |
|    \\/     M anipulation  |                                                 |
\*---------------------------------------------------------------------------*/
FoamFile
{
    version     2.0;
    format      ascii;
    arch        "LSB;label=32;scalar=64";
    class       volScalarField;
    location    "0.003";
    object      p_rgh;
}
// * * * * * * * * * * * * * * * * * * * * * * * * * * * * * * * * * * * * * //

dimensions      [1 -1 -2 0 0 0 0];

internalField   nonuniform List<scalar> 
100000
(
191829
191767
191738
191725
191718
191713
191709
191707
191705
191703
191701
191699
191697
191696
191694
191692
191691
191689
191687
191685
191683
191681
191679
191677
191675
191673
191671
191669
191666
191664
191662
191659
191657
191654
191652
191649
191646
191643
191640
191637
191634
191631
191628
191625
191622
191619
191615
191612
191608
191605
191601
191597
191594
191590
191586
191582
191578
191574
191570
191565
191561
191557
191552
191548
191543
191539
191534
191529
191525
191520
191515
191510
191505
191500
191495
191489
191484
191479
191473
191468
191462
191457
191451
191445
191439
191433
191427
191421
191415
191409
191403
191397
191390
191384
191377
191371
191364
191358
191351
191344
191337
191330
191323
191316
191309
191302
191295
191288
191280
191273
191265
191258
191250
191243
191235
191227
191219
191211
191203
191195
191187
191179
191171
191162
191154
191146
191137
191129
191120
191111
191103
191094
191085
191076
191067
191058
191049
191040
191031
191021
191012
191003
190993
190984
190974
190964
190955
190945
190935
190925
190915
190905
190895
190885
190875
190865
190855
190844
190834
190823
190813
190802
190792
190781
190770
190759
190748
190737
190726
190715
190704
190693
190682
190671
190659
190648
190636
190625
190613
190602
190590
190578
190566
190555
190543
190531
190519
190507
190494
190482
190470
190458
190445
190433
190420
190408
190395
190383
190370
190357
190344
190332
190319
190306
190293
190280
190266
190253
190240
190227
190213
190200
190187
190173
190160
190146
190132
190119
190105
190091
190077
190063
190049
190035
190021
190007
189993
189979
189964
189950
189935
189921
189907
189892
189877
189863
189848
189833
189819
189804
189789
189774
189759
189744
189729
189714
189698
189683
189668
189653
189637
189622
189606
189591
189575
189560
189544
189528
189512
189497
189481
189465
189449
189433
189417
189401
189385
189368
189352
189336
189320
189303
189287
189270
189254
189237
189221
189204
189187
189171
189154
189137
189120
189103
189086
189069
189052
189035
189018
189001
188984
188967
188949
188932
188915
188897
188880
188862
188845
188827
188809
188792
188774
188756
188739
188721
188703
188685
188667
188649
188631
188613
188595
188577
188558
188540
188522
188504
188485
188467
188449
188430
188412
188393
188375
188356
188337
188319
188300
188281
188262
188244
188225
188206
188187
188168
188149
188130
188111
188092
188073
188053
188034
188015
187996
187976
187957
187938
187918
187899
187879
187860
187840
187821
187801
187781
187762
187742
187722
187703
187683
187663
187643
187623
187603
187583
187563
187543
187523
187503
187483
187463
187443
187423
187402
187382
187362
187342
187321
187301
187280
187260
187240
187219
187199
187178
187158
187137
187116
187096
187075
187054
187034
187013
186992
186971
186951
186930
186909
186888
186867
186846
186825
186804
186783
186762
186741
186720
186699
186678
186657
186635
186614
186593
186572
186550
186529
186508
186487
186465
186444
186422
186401
186380
186358
186337
186315
186294
186272
186251
186229
186207
186186
186164
186143
186121
186099
186078
186056
186034
186012
185991
185969
185947
185925
185903
185882
185860
185838
185816
185794
185772
185750
185728
185706
185684
185662
185640
185618
185596
185574
185552
185530
185508
185486
185464
185441
185419
185397
185375
185353
185331
185308
185286
185264
185242
185219
185197
185175
185153
185130
185108
185086
185063
185041
185019
184996
184974
184952
184929
184907
184884
184862
184840
184817
184795
184772
184750
184727
184705
184682
184660
184638
184615
184593
184570
184548
184525
184503
184480
184458
184435
184412
184390
184367
184345
184322
184300
184277
184255
184232
184210
184187
184164
184142
184119
184097
184074
184052
184029
184006
183984
183961
183939
183916
183894
183871
183848
183826
183803
183781
183758
183735
183713
183690
183668
183645
183623
183600
183577
183555
183532
183510
183487
183465
183442
183420
183397
183374
183352
183329
183307
183284
183262
183239
183217
183194
183172
183149
183127
183104
183082
183059
183037
183014
182992
182969
182947
182925
182902
182880
182857
182835
182813
182790
182768
182745
182723
182701
182678
182656
182634
182611
182589
182567
182544
182522
182500
182478
182455
182433
182411
182389
182367
182344
182322
182300
182278
182256
182234
182211
182189
182167
182145
182123
182101
182079
182057
182035
182013
181991
181969
181947
181925
181903
181881
181859
181837
181815
181794
181772
181750
181728
181706
181685
181663
181641
181619
181598
181576
181554
181533
181511
181489
181468
181446
181424
181403
181381
181360
181338
181317
181295
181274
181253
181231
181210
181188
181167
181146
181124
181103
181082
181061
181039
181018
180997
180976
180955
180933
180912
180891
180870
180849
180828
180807
180786
180765
180744
180723
180703
180682
180661
180640
180619
180598
180578
180557
180536
180516
180495
180474
180454
180433
180413
180392
180372
180351
180331
180310
180290
180270
180249
180229
180209
180188
180168
180148
180128
180108
180087
180067
180047
180027
180007
179987
179967
179947
179927
179908
179888
179868
179848
179828
179809
179789
179769
179749
179730
179710
179691
179671
179652
179632
179613
179593
179574
179555
179535
179516
179497
179477
179458
179439
179420
179401
179382
179363
179344
179325
179306
179287
179268
179249
179230
179211
179193
179174
179155
179137
179118
179099
179081
179062
179044
179025
179007
178989
178970
178952
178934
178915
178897
178879
178861
178843
178824
178806
178788
178770
178753
178735
178717
178699
178681
178663
178646
178628
178610
178593
178575
178557
178540
178522
178505
178488
178470
178453
178436
178418
178401
178384
178367
178350
178333
178316
178298
178282
178265
178248
178231
178214
178197
178181
178164
178147
178131
178114
178097
178081
178064
178048
178032
178015
177999
177983
177966
177950
177934
177918
177902
177886
177870
177854
177838
177822
177806
177791
177775
177759
177743
177728
177712
177697
177681
177666
177650
177635
177619
177604
177589
177574
177558
177543
177528
177513
177498
177483
177468
177453
177438
177424
177409
177394
177379
177365
177350
177336
177321
177307
177292
177278
177263
177249
177235
177221
177207
177192
177178
177164
177150
177136
177122
177108
177095
177081
177067
177053
177040
177026
177013
176999
176986
176972
176959
176945
176932
176919
176906
176892
176879
176866
176853
176840
176827
176814
176801
176788
176776
176763
176750
176738
176725
176712
176700
176687
176675
176663
176650
176638
176626
176614
176601
176589
176577
176565
176553
176541
176529
176517
176506
176494
176482
176471
176459
176447
176436
176424
176413
176401
176390
176379
176368
176356
176345
176334
176323
176312
176301
176290
176279
176268
176257
176247
176236
176225
176215
176204
176193
176183
176172
176162
176152
176141
176131
176121
176111
176101
176090
176080
176070
176060
176050
176041
176031
176021
176011
176001
175992
175982
175973
175963
175954
175944
175935
175925
175916
175907
175897
175888
175879
175870
175861
175852
175843
175833
175825
175816
175807
175798
191770
191750
191735
191725
191718
191714
191710
191708
191705
191703
191701
191699
191698
191696
191694
191692
191691
191689
191687
191685
191683
191681
191679
191677
191675
191673
191671
191669
191666
191664
191662
191659
191657
191654
191652
191649
191646
191643
191640
191637
191634
191631
191628
191625
191622
191619
191615
191612
191608
191605
191601
191597
191594
191590
191586
191582
191578
191574
191570
191565
191561
191557
191552
191548
191543
191539
191534
191529
191525
191520
191515
191510
191505
191500
191495
191489
191484
191479
191473
191468
191462
191457
191451
191445
191439
191433
191427
191421
191415
191409
191403
191397
191390
191384
191377
191371
191364
191358
191351
191344
191337
191330
191323
191316
191309
191302
191295
191288
191280
191273
191265
191258
191250
191243
191235
191227
191219
191211
191203
191195
191187
191179
191171
191162
191154
191146
191137
191129
191120
191111
191103
191094
191085
191076
191067
191058
191049
191040
191031
191021
191012
191003
190993
190984
190974
190964
190955
190945
190935
190925
190915
190905
190895
190885
190875
190865
190855
190844
190834
190823
190813
190802
190792
190781
190770
190759
190748
190737
190726
190715
190704
190693
190682
190671
190659
190648
190636
190625
190613
190602
190590
190578
190566
190555
190543
190531
190519
190507
190494
190482
190470
190458
190445
190433
190420
190408
190395
190383
190370
190357
190344
190332
190319
190306
190293
190280
190266
190253
190240
190227
190213
190200
190187
190173
190160
190146
190132
190119
190105
190091
190077
190063
190049
190035
190021
190007
189993
189979
189964
189950
189935
189921
189907
189892
189877
189863
189848
189833
189819
189804
189789
189774
189759
189744
189729
189714
189698
189683
189668
189653
189637
189622
189606
189591
189575
189560
189544
189528
189512
189497
189481
189465
189449
189433
189417
189401
189385
189368
189352
189336
189320
189303
189287
189270
189254
189237
189221
189204
189187
189171
189154
189137
189120
189103
189086
189069
189052
189035
189018
189001
188984
188967
188949
188932
188915
188897
188880
188862
188845
188827
188809
188792
188774
188756
188739
188721
188703
188685
188667
188649
188631
188613
188595
188577
188558
188540
188522
188504
188485
188467
188449
188430
188412
188393
188375
188356
188337
188319
188300
188281
188262
188244
188225
188206
188187
188168
188149
188130
188111
188092
188073
188053
188034
188015
187996
187976
187957
187938
187918
187899
187879
187860
187840
187821
187801
187781
187762
187742
187722
187703
187683
187663
187643
187623
187603
187583
187563
187543
187523
187503
187483
187463
187443
187423
187402
187382
187362
187342
187321
187301
187280
187260
187240
187219
187199
187178
187158
187137
187116
187096
187075
187054
187034
187013
186992
186971
186951
186930
186909
186888
186867
186846
186825
186804
186783
186762
186741
186720
186699
186678
186657
186635
186614
186593
186572
186550
186529
186508
186487
186465
186444
186422
186401
186380
186358
186337
186315
186294
186272
186251
186229
186207
186186
186164
186143
186121
186099
186078
186056
186034
186012
185991
185969
185947
185925
185903
185882
185860
185838
185816
185794
185772
185750
185728
185706
185684
185662
185640
185618
185596
185574
185552
185530
185508
185486
185464
185441
185419
185397
185375
185353
185331
185308
185286
185264
185242
185219
185197
185175
185153
185130
185108
185086
185063
185041
185019
184996
184974
184952
184929
184907
184884
184862
184840
184817
184795
184772
184750
184727
184705
184682
184660
184638
184615
184593
184570
184548
184525
184503
184480
184458
184435
184412
184390
184367
184345
184322
184300
184277
184255
184232
184210
184187
184164
184142
184119
184097
184074
184052
184029
184006
183984
183961
183939
183916
183894
183871
183848
183826
183803
183781
183758
183735
183713
183690
183668
183645
183623
183600
183577
183555
183532
183510
183487
183465
183442
183420
183397
183374
183352
183329
183307
183284
183262
183239
183217
183194
183172
183149
183127
183104
183082
183059
183037
183014
182992
182969
182947
182925
182902
182880
182857
182835
182813
182790
182768
182745
182723
182701
182678
182656
182634
182611
182589
182567
182544
182522
182500
182478
182455
182433
182411
182389
182366
182344
182322
182300
182278
182256
182233
182211
182189
182167
182145
182123
182101
182079
182057
182035
182013
181991
181969
181947
181925
181903
181881
181859
181837
181815
181794
181772
181750
181728
181706
181684
181663
181641
181619
181598
181576
181554
181532
181511
181489
181468
181446
181424
181403
181381
181360
181338
181317
181295
181274
181252
181231
181210
181188
181167
181146
181124
181103
181082
181061
181039
181018
180997
180976
180955
180933
180912
180891
180870
180849
180828
180807
180786
180765
180744
180723
180703
180682
180661
180640
180619
180598
180578
180557
180536
180516
180495
180474
180454
180433
180413
180392
180372
180351
180331
180310
180290
180270
180249
180229
180209
180188
180168
180148
180128
180108
180087
180067
180047
180027
180007
179987
179967
179947
179927
179907
179888
179868
179848
179828
179808
179789
179769
179749
179730
179710
179691
179671
179652
179632
179613
179593
179574
179555
179535
179516
179497
179477
179458
179439
179420
179401
179382
179363
179344
179325
179306
179287
179268
179249
179230
179211
179193
179174
179155
179137
179118
179099
179081
179062
179044
179025
179007
178988
178970
178952
178934
178915
178897
178879
178861
178843
178824
178806
178788
178770
178752
178735
178717
178699
178681
178663
178646
178628
178610
178593
178575
178557
178540
178522
178505
178488
178470
178453
178436
178418
178401
178384
178367
178350
178333
178315
178298
178282
178265
178248
178231
178214
178197
178181
178164
178147
178131
178114
178097
178081
178064
178048
178032
178015
177999
177983
177966
177950
177934
177918
177902
177886
177870
177854
177838
177822
177806
177790
177775
177759
177743
177728
177712
177697
177681
177666
177650
177635
177619
177604
177589
177574
177558
177543
177528
177513
177498
177483
177468
177453
177438
177424
177409
177394
177379
177365
177350
177336
177321
177307
177292
177278
177263
177249
177235
177221
177206
177192
177178
177164
177150
177136
177122
177108
177095
177081
177067
177053
177040
177026
177013
176999
176985
176972
176959
176945
176932
176919
176905
176892
176879
176866
176853
176840
176827
176814
176801
176788
176776
176763
176750
176738
176725
176712
176700
176687
176675
176663
176650
176638
176626
176613
176601
176589
176577
176565
176553
176541
176529
176517
176506
176494
176482
176470
176459
176447
176436
176424
176413
176401
176390
176379
176367
176356
176345
176334
176323
176312
176301
176290
176279
176268
176257
176247
176236
176225
176215
176204
176193
176183
176172
176162
176152
176141
176131
176121
176111
176100
176090
176080
176070
176060
176050
176041
176031
176021
176011
176001
175992
175982
175973
175963
175954
175944
175935
175925
175916
175907
175897
175888
175879
175870
175861
175852
175842
175833
175824
175816
175807
175798
191747
191739
191731
191724
191718
191714
191711
191708
191706
191703
191701
191700
191698
191696
191694
191692
191691
191689
191687
191685
191683
191681
191679
191677
191675
191673
191671
191669
191666
191664
191662
191659
191657
191654
191652
191649
191646
191643
191640
191637
191634
191631
191628
191625
191622
191619
191615
191612
191608
191605
191601
191597
191594
191590
191586
191582
191578
191574
191570
191565
191561
191557
191552
191548
191543
191539
191534
191529
191525
191520
191515
191510
191505
191500
191495
191489
191484
191479
191473
191468
191462
191456
191451
191445
191439
191433
191427
191421
191415
191409
191403
191397
191390
191384
191377
191371
191364
191358
191351
191344
191337
191330
191323
191316
191309
191302
191295
191288
191280
191273
191265
191258
191250
191243
191235
191227
191219
191211
191203
191195
191187
191179
191171
191162
191154
191146
191137
191129
191120
191111
191103
191094
191085
191076
191067
191058
191049
191040
191031
191021
191012
191003
190993
190984
190974
190964
190955
190945
190935
190925
190915
190905
190895
190885
190875
190865
190854
190844
190834
190823
190813
190802
190791
190781
190770
190759
190748
190737
190726
190715
190704
190693
190682
190671
190659
190648
190636
190625
190613
190602
190590
190578
190566
190555
190543
190531
190519
190507
190494
190482
190470
190458
190445
190433
190420
190408
190395
190383
190370
190357
190344
190332
190319
190306
190293
190280
190266
190253
190240
190227
190213
190200
190187
190173
190159
190146
190132
190118
190105
190091
190077
190063
190049
190035
190021
190007
189993
189978
189964
189950
189935
189921
189907
189892
189877
189863
189848
189833
189819
189804
189789
189774
189759
189744
189729
189714
189698
189683
189668
189653
189637
189622
189606
189591
189575
189560
189544
189528
189512
189497
189481
189465
189449
189433
189417
189401
189385
189368
189352
189336
189320
189303
189287
189270
189254
189237
189221
189204
189187
189171
189154
189137
189120
189103
189086
189069
189052
189035
189018
189001
188984
188966
188949
188932
188914
188897
188880
188862
188845
188827
188809
188792
188774
188756
188738
188721
188703
188685
188667
188649
188631
188613
188595
188577
188558
188540
188522
188504
188485
188467
188449
188430
188412
188393
188375
188356
188337
188319
188300
188281
188262
188244
188225
188206
188187
188168
188149
188130
188111
188092
188073
188053
188034
188015
187996
187976
187957
187938
187918
187899
187879
187860
187840
187821
187801
187781
187762
187742
187722
187703
187683
187663
187643
187623
187603
187583
187563
187543
187523
187503
187483
187463
187443
187423
187402
187382
187362
187341
187321
187301
187280
187260
187240
187219
187199
187178
187157
187137
187116
187096
187075
187054
187034
187013
186992
186971
186950
186930
186909
186888
186867
186846
186825
186804
186783
186762
186741
186720
186699
186678
186657
186635
186614
186593
186572
186550
186529
186508
186487
186465
186444
186422
186401
186380
186358
186337
186315
186294
186272
186251
186229
186207
186186
186164
186143
186121
186099
186078
186056
186034
186012
185991
185969
185947
185925
185903
185881
185860
185838
185816
185794
185772
185750
185728
185706
185684
185662
185640
185618
185596
185574
185552
185530
185508
185486
185463
185441
185419
185397
185375
185353
185330
185308
185286
185264
185242
185219
185197
185175
185152
185130
185108
185086
185063
185041
185019
184996
184974
184951
184929
184907
184884
184862
184840
184817
184795
184772
184750
184727
184705
184682
184660
184637
184615
184593
184570
184548
184525
184502
184480
184457
184435
184412
184390
184367
184345
184322
184300
184277
184255
184232
184209
184187
184164
184142
184119
184097
184074
184052
184029
184006
183984
183961
183939
183916
183893
183871
183848
183826
183803
183781
183758
183735
183713
183690
183668
183645
183623
183600
183577
183555
183532
183510
183487
183465
183442
183419
183397
183374
183352
183329
183307
183284
183262
183239
183217
183194
183172
183149
183127
183104
183082
183059
183037
183014
182992
182969
182947
182925
182902
182880
182857
182835
182812
182790
182768
182745
182723
182701
182678
182656
182634
182611
182589
182567
182544
182522
182500
182478
182455
182433
182411
182389
182366
182344
182322
182300
182278
182256
182233
182211
182189
182167
182145
182123
182101
182079
182057
182035
182013
181991
181969
181947
181925
181903
181881
181859
181837
181815
181794
181772
181750
181728
181706
181684
181663
181641
181619
181597
181576
181554
181532
181511
181489
181468
181446
181424
181403
181381
181360
181338
181317
181295
181274
181252
181231
181210
181188
181167
181146
181124
181103
181082
181060
181039
181018
180997
180976
180955
180933
180912
180891
180870
180849
180828
180807
180786
180765
180744
180723
180702
180682
180661
180640
180619
180598
180578
180557
180536
180516
180495
180474
180454
180433
180413
180392
180372
180351
180331
180310
180290
180270
180249
180229
180209
180188
180168
180148
180128
180108
180087
180067
180047
180027
180007
179987
179967
179947
179927
179907
179888
179868
179848
179828
179808
179789
179769
179749
179730
179710
179691
179671
179652
179632
179613
179593
179574
179554
179535
179516
179497
179477
179458
179439
179420
179401
179382
179363
179344
179325
179306
179287
179268
179249
179230
179211
179193
179174
179155
179137
179118
179099
179081
179062
179044
179025
179007
178988
178970
178952
178933
178915
178897
178879
178861
178843
178824
178806
178788
178770
178752
178735
178717
178699
178681
178663
178645
178628
178610
178592
178575
178557
178540
178522
178505
178487
178470
178453
178435
178418
178401
178384
178367
178350
178332
178315
178298
178281
178265
178248
178231
178214
178197
178180
178164
178147
178130
178114
178097
178081
178064
178048
178032
178015
177999
177983
177966
177950
177934
177918
177902
177886
177870
177854
177838
177822
177806
177790
177775
177759
177743
177728
177712
177697
177681
177666
177650
177635
177619
177604
177589
177574
177558
177543
177528
177513
177498
177483
177468
177453
177438
177424
177409
177394
177379
177365
177350
177336
177321
177307
177292
177278
177263
177249
177235
177221
177206
177192
177178
177164
177150
177136
177122
177108
177095
177081
177067
177053
177040
177026
177012
176999
176985
176972
176959
176945
176932
176919
176905
176892
176879
176866
176853
176840
176827
176814
176801
176788
176776
176763
176750
176738
176725
176712
176700
176687
176675
176663
176650
176638
176626
176613
176601
176589
176577
176565
176553
176541
176529
176517
176506
176494
176482
176470
176459
176447
176436
176424
176413
176401
176390
176379
176367
176356
176345
176334
176323
176312
176301
176290
176279
176268
176257
176247
176236
176225
176214
176204
176193
176183
176172
176162
176152
176141
176131
176121
176111
176100
176090
176080
176070
176060
176050
176040
176031
176021
176011
176001
175992
175982
175973
175963
175953
175944
175935
175925
175916
175907
175897
175888
175879
175870
175861
175852
175842
175833
175824
175815
175807
175798
191735
191731
191727
191722
191718
191714
191711
191708
191706
191704
191702
191700
191698
191696
191694
191693
191691
191689
191687
191685
191683
191681
191679
191677
191675
191673
191671
191669
191666
191664
191662
191659
191657
191654
191652
191649
191646
191643
191640
191637
191634
191631
191628
191625
191622
191619
191615
191612
191608
191605
191601
191597
191594
191590
191586
191582
191578
191574
191570
191565
191561
191557
191552
191548
191543
191539
191534
191529
191525
191520
191515
191510
191505
191500
191495
191489
191484
191479
191473
191468
191462
191456
191451
191445
191439
191433
191427
191421
191415
191409
191403
191397
191390
191384
191377
191371
191364
191358
191351
191344
191337
191330
191323
191316
191309
191302
191295
191288
191280
191273
191265
191258
191250
191242
191235
191227
191219
191211
191203
191195
191187
191179
191171
191162
191154
191146
191137
191129
191120
191111
191103
191094
191085
191076
191067
191058
191049
191040
191031
191021
191012
191003
190993
190984
190974
190964
190955
190945
190935
190925
190915
190905
190895
190885
190875
190865
190854
190844
190834
190823
190813
190802
190791
190781
190770
190759
190748
190737
190726
190715
190704
190693
190682
190671
190659
190648
190636
190625
190613
190602
190590
190578
190566
190554
190543
190531
190519
190507
190494
190482
190470
190458
190445
190433
190420
190408
190395
190383
190370
190357
190344
190332
190319
190306
190293
190280
190266
190253
190240
190227
190213
190200
190187
190173
190159
190146
190132
190118
190105
190091
190077
190063
190049
190035
190021
190007
189993
189978
189964
189950
189935
189921
189907
189892
189877
189863
189848
189833
189819
189804
189789
189774
189759
189744
189729
189714
189698
189683
189668
189653
189637
189622
189606
189591
189575
189560
189544
189528
189512
189497
189481
189465
189449
189433
189417
189401
189385
189368
189352
189336
189320
189303
189287
189270
189254
189237
189221
189204
189187
189171
189154
189137
189120
189103
189086
189069
189052
189035
189018
189001
188984
188966
188949
188932
188914
188897
188880
188862
188845
188827
188809
188792
188774
188756
188738
188721
188703
188685
188667
188649
188631
188613
188595
188577
188558
188540
188522
188504
188485
188467
188449
188430
188412
188393
188374
188356
188337
188319
188300
188281
188262
188244
188225
188206
188187
188168
188149
188130
188111
188092
188073
188053
188034
188015
187996
187976
187957
187938
187918
187899
187879
187860
187840
187821
187801
187781
187762
187742
187722
187702
187683
187663
187643
187623
187603
187583
187563
187543
187523
187503
187483
187463
187443
187423
187402
187382
187362
187341
187321
187301
187280
187260
187240
187219
187199
187178
187157
187137
187116
187096
187075
187054
187034
187013
186992
186971
186950
186930
186909
186888
186867
186846
186825
186804
186783
186762
186741
186720
186699
186678
186656
186635
186614
186593
186572
186550
186529
186508
186486
186465
186444
186422
186401
186380
186358
186337
186315
186294
186272
186251
186229
186207
186186
186164
186143
186121
186099
186078
186056
186034
186012
185991
185969
185947
185925
185903
185881
185860
185838
185816
185794
185772
185750
185728
185706
185684
185662
185640
185618
185596
185574
185552
185530
185508
185486
185463
185441
185419
185397
185375
185353
185330
185308
185286
185264
185242
185219
185197
185175
185152
185130
185108
185086
185063
185041
185019
184996
184974
184951
184929
184907
184884
184862
184839
184817
184795
184772
184750
184727
184705
184682
184660
184637
184615
184592
184570
184547
184525
184502
184480
184457
184435
184412
184390
184367
184345
184322
184300
184277
184255
184232
184209
184187
184164
184142
184119
184097
184074
184051
184029
184006
183984
183961
183939
183916
183893
183871
183848
183826
183803
183781
183758
183735
183713
183690
183668
183645
183622
183600
183577
183555
183532
183510
183487
183465
183442
183419
183397
183374
183352
183329
183307
183284
183262
183239
183217
183194
183172
183149
183127
183104
183082
183059
183037
183014
182992
182969
182947
182925
182902
182880
182857
182835
182812
182790
182768
182745
182723
182701
182678
182656
182634
182611
182589
182567
182544
182522
182500
182478
182455
182433
182411
182389
182366
182344
182322
182300
182278
182256
182233
182211
182189
182167
182145
182123
182101
182079
182057
182035
182013
181991
181969
181947
181925
181903
181881
181859
181837
181815
181793
181772
181750
181728
181706
181684
181663
181641
181619
181597
181576
181554
181532
181511
181489
181468
181446
181424
181403
181381
181360
181338
181317
181295
181274
181252
181231
181210
181188
181167
181146
181124
181103
181082
181060
181039
181018
180997
180976
180955
180933
180912
180891
180870
180849
180828
180807
180786
180765
180744
180723
180702
180682
180661
180640
180619
180598
180578
180557
180536
180516
180495
180474
180454
180433
180413
180392
180372
180351
180331
180310
180290
180269
180249
180229
180209
180188
180168
180148
180128
180107
180087
180067
180047
180027
180007
179987
179967
179947
179927
179907
179888
179868
179848
179828
179808
179789
179769
179749
179730
179710
179691
179671
179652
179632
179613
179593
179574
179554
179535
179516
179497
179477
179458
179439
179420
179401
179382
179363
179344
179325
179306
179287
179268
179249
179230
179211
179193
179174
179155
179137
179118
179099
179081
179062
179044
179025
179007
178988
178970
178952
178933
178915
178897
178879
178861
178842
178824
178806
178788
178770
178752
178734
178717
178699
178681
178663
178645
178628
178610
178592
178575
178557
178540
178522
178505
178487
178470
178453
178435
178418
178401
178384
178367
178350
178332
178315
178298
178281
178265
178248
178231
178214
178197
178180
178164
178147
178130
178114
178097
178081
178064
178048
178032
178015
177999
177983
177966
177950
177934
177918
177902
177886
177870
177854
177838
177822
177806
177790
177775
177759
177743
177728
177712
177696
177681
177666
177650
177635
177619
177604
177589
177574
177558
177543
177528
177513
177498
177483
177468
177453
177438
177424
177409
177394
177379
177365
177350
177336
177321
177307
177292
177278
177263
177249
177235
177221
177206
177192
177178
177164
177150
177136
177122
177108
177095
177081
177067
177053
177040
177026
177012
176999
176985
176972
176959
176945
176932
176919
176905
176892
176879
176866
176853
176840
176827
176814
176801
176788
176776
176763
176750
176737
176725
176712
176700
176687
176675
176662
176650
176638
176626
176613
176601
176589
176577
176565
176553
176541
176529
176517
176506
176494
176482
176470
176459
176447
176436
176424
176413
176401
176390
176379
176367
176356
176345
176334
176323
176312
176301
176290
176279
176268
176257
176246
176236
176225
176214
176204
176193
176183
176172
176162
176152
176141
176131
176121
176111
176100
176090
176080
176070
176060
176050
176040
176031
176021
176011
176001
175992
175982
175972
175963
175953
175944
175935
175925
175916
175907
175897
175888
175879
175870
175861
175852
175842
175833
175824
175816
175807
175798
191727
191725
191723
191719
191716
191713
191710
191708
191706
191703
191701
191700
191698
191696
191694
191692
191691
191689
191687
191685
191683
191681
191679
191677
191675
191673
191671
191669
191666
191664
191662
191659
191657
191654
191651
191649
191646
191643
191640
191637
191634
191631
191628
191625
191622
191618
191615
191612
191608
191605
191601
191597
191594
191590
191586
191582
191578
191574
191570
191565
191561
191557
191552
191548
191543
191539
191534
191529
191525
191520
191515
191510
191505
191500
191495
191489
191484
191479
191473
191468
191462
191456
191451
191445
191439
191433
191427
191421
191415
191409
191403
191397
191390
191384
191377
191371
191364
191358
191351
191344
191337
191330
191323
191316
191309
191302
191295
191288
191280
191273
191265
191258
191250
191242
191235
191227
191219
191211
191203
191195
191187
191179
191171
191162
191154
191146
191137
191129
191120
191111
191103
191094
191085
191076
191067
191058
191049
191040
191031
191021
191012
191003
190993
190984
190974
190964
190955
190945
190935
190925
190915
190905
190895
190885
190875
190865