/*--------------------------------*- C++ -*----------------------------------*\
| =========                 |                                                 |
| \\      /  F ield         | OpenFOAM: The Open Source CFD Toolbox           |
|  \\    /   O peration     | Version:  2512                                  |
|   \\  /    A nd           | Website:  www.openfoam.com                      |
|    \\/     M anipulation  |                                                 |
\*---------------------------------------------------------------------------*/
FoamFile
{
    version     2.0;
    format      ascii;
    arch        "LSB;label=32;scalar=64";
    class       volScalarField;
    location    "0.003";
    object      pB;
}
// * * * * * * * * * * * * * * * * * * * * * * * * * * * * * * * * * * * * * //

dimensions      [1 1 -3 0 0 -1 0];

internalField   nonuniform List<scalar> 
100000
(
-101.112
-250.292
-381.908
-484.205
-555.583
-600.192
-623.764
-631.889
-629.323
-619.77
-605.938
-589.707
-572.333
-554.621
-537.069
-519.969
-503.483
-487.69
-472.619
-458.267
-444.613
-431.629
-419.278
-407.526
-396.335
-385.67
-375.498
-365.786
-356.506
-347.63
-339.134
-330.992
-323.186
-315.694
-308.499
-301.585
-294.936
-288.54
-282.383
-276.454
-270.743
-265.241
-259.937
-254.823
-249.892
-245.137
-240.55
-236.124
-231.855
-227.737
-223.764
-219.931
-216.236
-212.673
-209.24
-205.932
-202.747
-199.683
-196.736
-193.904
-191.187
-188.581
-186.086
-183.701
-181.423
-179.253
-177.189
-175.23
-173.375
-171.622
-169.969
-168.413
-166.95
-165.576
-164.284
-163.069
-161.924
-160.843
-159.819
-158.845
-157.917
-157.03
-156.179
-155.36
-154.571
-153.81
-153.074
-152.361
-151.67
-151
-150.349
-149.716
-149.101
-148.504
-147.922
-147.356
-146.805
-146.269
-145.748
-145.242
-144.75
-144.273
-143.81
-143.362
-142.93
-142.514
-142.114
-141.731
-141.365
-141.017
-140.688
-140.376
-140.084
-139.809
-139.551
-139.309
-139.082
-138.869
-138.667
-138.475
-138.291
-138.115
-137.945
-137.78
-137.618
-137.461
-137.306
-137.154
-137.005
-136.857
-136.711
-136.566
-136.423
-136.282
-136.142
-136.004
-135.867
-135.732
-135.6
-135.47
-135.342
-135.217
-135.096
-134.977
-134.863
-134.753
-134.647
-134.545
-134.447
-134.353
-134.264
-134.178
-134.095
-134.016
-133.939
-133.864
-133.792
-133.721
-133.652
-133.584
-133.518
-133.453
-133.389
-133.325
-133.263
-133.201
-133.141
-133.081
-133.021
-132.963
-132.905
-132.849
-132.794
-132.739
-132.686
-132.635
-132.585
-132.536
-132.49
-132.444
-132.401
-132.359
-132.318
-132.278
-132.239
-132.201
-132.163
-132.125
-132.087
-132.049
-132.011
-131.972
-131.933
-131.894
-131.855
-131.815
-131.776
-131.736
-131.697
-131.659
-131.621
-131.584
-131.548
-131.513
-131.479
-131.447
-131.415
-131.385
-131.356
-131.328
-131.301
-131.275
-131.251
-131.227
-131.204
-131.182
-131.16
-131.139
-131.118
-131.097
-131.076
-131.056
-131.035
-131.014
-130.993
-130.972
-130.951
-130.93
-130.908
-130.887
-130.865
-130.844
-130.822
-130.8
-130.779
-130.758
-130.736
-130.715
-130.695
-130.674
-130.653
-130.633
-130.613
-130.593
-130.573
-130.553
-130.534
-130.514
-130.495
-130.476
-130.456
-130.438
-130.419
-130.4
-130.382
-130.364
-130.346
-130.328
-130.311
-130.294
-130.277
-130.261
-130.244
-130.228
-130.212
-130.197
-130.181
-130.166
-130.151
-130.137
-130.122
-130.108
-130.094
-130.08
-130.066
-130.052
-130.039
-130.025
-130.012
-129.999
-129.986
-129.973
-129.961
-129.948
-129.936
-129.924
-129.912
-129.9
-129.888
-129.877
-129.865
-129.854
-129.843
-129.832
-129.821
-129.811
-129.8
-129.79
-129.779
-129.769
-129.759
-129.749
-129.739
-129.729
-129.719
-129.709
-129.7
-129.69
-129.68
-129.671
-129.661
-129.652
-129.642
-129.633
-129.624
-129.615
-129.605
-129.596
-129.587
-129.578
-129.569
-129.56
-129.551
-129.542
-129.533
-129.524
-129.515
-129.506
-129.497
-129.488
-129.479
-129.47
-129.462
-129.453
-129.444
-129.435
-129.426
-129.418
-129.409
-129.4
-129.391
-129.382
-129.373
-129.365
-129.356
-129.347
-129.338
-129.329
-129.321
-129.312
-129.303
-129.294
-129.285
-129.276
-129.267
-129.258
-129.25
-129.241
-129.232
-129.223
-129.214
-129.205
-129.196
-129.187
-129.178
-129.169
-129.16
-129.151
-129.142
-129.133
-129.124
-129.115
-129.106
-129.096
-129.087
-129.078
-129.069
-129.06
-129.051
-129.041
-129.032
-129.023
-129.014
-129.004
-128.995
-128.986
-128.976
-128.967
-128.958
-128.948
-128.939
-128.929
-128.92
-128.911
-128.901
-128.892
-128.882
-128.872
-128.863
-128.853
-128.844
-128.834
-128.825
-128.815
-128.805
-128.796
-128.786
-128.776
-128.766
-128.757
-128.747
-128.737
-128.727
-128.717
-128.708
-128.698
-128.688
-128.678
-128.668
-128.658
-128.648
-128.638
-128.628
-128.618
-128.608
-128.598
-128.588
-128.578
-128.568
-128.558
-128.548
-128.538
-128.527
-128.517
-128.507
-128.497
-128.487
-128.476
-128.466
-128.456
-128.446
-128.435
-128.425
-128.415
-128.404
-128.394
-128.384
-128.373
-128.363
-128.352
-128.342
-128.332
-128.321
-128.311
-128.3
-128.29
-128.279
-128.268
-128.258
-128.247
-128.237
-128.226
-128.216
-128.205
-128.194
-128.184
-128.173
-128.162
-128.152
-128.141
-128.13
-128.12
-128.109
-128.098
-128.087
-128.077
-128.066
-128.055
-128.044
-128.033
-128.022
-128.012
-128.001
-127.99
-127.979
-127.968
-127.957
-127.946
-127.935
-127.924
-127.913
-127.902
-127.892
-127.881
-127.87
-127.859
-127.848
-127.837
-127.825
-127.814
-127.803
-127.792
-127.781
-127.77
-127.759
-127.748
-127.737
-127.726
-127.715
-127.704
-127.692
-127.681
-127.67
-127.659
-127.648
-127.637
-127.625
-127.614
-127.603
-127.592
-127.581
-127.569
-127.558
-127.547
-127.536
-127.524
-127.513
-127.502
-127.491
-127.479
-127.468
-127.457
-127.445
-127.434
-127.423
-127.411
-127.4
-127.389
-127.377
-127.366
-127.355
-127.343
-127.332
-127.321
-127.309
-127.298
-127.287
-127.275
-127.264
-127.252
-127.241
-127.23
-127.218
-127.207
-127.195
-127.184
-127.173
-127.161
-127.15
-127.138
-127.127
-127.115
-127.104
-127.093
-127.081
-127.07
-127.058
-127.047
-127.035
-127.024
-127.012
-127.001
-126.99
-126.978
-126.967
-126.955
-126.944
-126.932
-126.921
-126.909
-126.898
-126.886
-126.875
-126.863
-126.852
-126.84
-126.829
-126.817
-126.806
-126.794
-126.783
-126.771
-126.76
-126.748
-126.737
-126.726
-126.714
-126.703
-126.691
-126.68
-126.668
-126.657
-126.645
-126.634
-126.622
-126.611
-126.599
-126.588
-126.576
-126.565
-126.553
-126.542
-126.53
-126.519
-126.507
-126.496
-126.484
-126.473
-126.462
-126.45
-126.439
-126.427
-126.416
-126.404
-126.393
-126.381
-126.37
-126.358
-126.347
-126.335
-126.324
-126.313
-126.301
-126.29
-126.278
-126.267
-126.255
-126.244
-126.233
-126.221
-126.21
-126.198
-126.187
-126.175
-126.164
-126.153
-126.141
-126.13
-126.119
-126.107
-126.096
-126.084
-126.073
-126.062
-126.05
-126.039
-126.028
-126.016
-126.005
-125.993
-125.982
-125.971
-125.959
-125.948
-125.937
-125.925
-125.914
-125.903
-125.891
-125.88
-125.869
-125.857
-125.846
-125.835
-125.823
-125.812
-125.801
-125.79
-125.778
-125.767
-125.756
-125.744
-125.733
-125.722
-125.71
-125.699
-125.688
-125.677
-125.665
-125.654
-125.643
-125.632
-125.62
-125.609
-125.598
-125.586
-125.575
-125.564
-125.553
-125.541
-125.53
-125.519
-125.508
-125.496
-125.485
-125.474
-125.463
-125.451
-125.44
-125.429
-125.418
-125.406
-125.395
-125.384
-125.372
-125.361
-125.35
-125.339
-125.327
-125.316
-125.305
-125.293
-125.282
-125.271
-125.259
-125.248
-125.237
-125.225
-125.214
-125.203
-125.191
-125.18
-125.168
-125.157
-125.146
-125.134
-125.123
-125.111
-125.1
-125.088
-125.077
-125.065
-125.054
-125.042
-125.031
-125.019
-125.007
-124.996
-124.984
-124.972
-124.961
-124.949
-124.937
-124.925
-124.914
-124.902
-124.89
-124.878
-124.866
-124.854
-124.842
-124.83
-124.818
-124.806
-124.793
-124.781
-124.769
-124.756
-124.744
-124.732
-124.719
-124.707
-124.694
-124.681
-124.668
-124.656
-124.643
-124.63
-124.617
-124.604
-124.59
-124.577
-124.564
-124.55
-124.537
-124.523
-124.509
-124.495
-124.482
-124.467
-124.453
-124.439
-124.425
-124.41
-124.395
-124.38
-124.365
-124.35
-124.335
-124.32
-124.304
-124.288
-124.272
-124.256
-124.24
-124.223
-124.207
-124.19
-124.173
-124.155
-124.138
-124.12
-124.102
-124.083
-124.065
-124.046
-124.027
-124.008
-123.988
-123.968
-123.947
-123.927
-123.906
-123.884
-123.863
-123.841
-123.818
-123.795
-123.772
-123.748
-123.724
-123.699
-123.674
-123.648
-123.622
-123.596
-123.569
-123.541
-123.512
-123.484
-123.454
-123.424
-123.393
-123.362
-123.329
-123.297
-123.263
-123.228
-123.193
-123.157
-123.12
-123.083
-123.044
-123.004
-122.964
-122.922
-122.88
-122.836
-122.791
-122.746
-122.699
-122.65
-122.601
-122.55
-122.498
-122.445
-122.39
-122.334
-122.276
-122.216
-122.156
-122.093
-122.029
-121.963
-121.895
-121.825
-121.753
-121.68
-121.604
-121.526
-121.446
-121.364
-121.279
-121.192
-121.103
-121.01
-120.916
-120.818
-120.718
-120.614
-120.508
-120.399
-120.286
-120.17
-120.051
-119.928
-119.801
-119.671
-119.537
-119.399
-119.256
-119.11
-118.959
-118.803
-118.643
-118.478
-118.308
-118.133
-117.952
-117.766
-117.574
-117.377
-117.173
-116.963
-116.747
-116.524
-116.294
-116.057
-115.813
-115.561
-115.301
-115.034
-114.758
-114.473
-114.18
-113.877
-113.565
-113.243
-112.911
-112.569
-112.216
-111.852
-111.476
-111.089
-110.689
-110.277
-109.851
-109.412
-108.96
-108.492
-108.01
-107.513
-106.999
-106.47
-105.923
-105.359
-104.776
-104.175
-103.554
-102.913
-102.252
-101.568
-100.863
-100.134
-99.382
-98.6048
-97.802
-96.9726
-96.1156
-95.23
-94.3147
-93.3687
-92.3906
-91.3794
-90.3336
-89.2519
-88.1328
-86.9747
-85.7761
-84.5351
-83.2499
-81.9185
-80.5387
-79.1083
-77.6248
-76.0855
-74.4875
-72.8276
-71.1025
-69.3082
-67.4406
-65.495
-63.4663
-61.3484
-59.1347
-56.8175
-54.3879
-51.8356
-49.148
-46.3106
-43.3053
-40.1104
-36.6994
-33.0398
-29.0924
-24.811
-20.1415
-15.0259
-9.41254
-3.32446
-66.4788
-213.411
-341.088
-442.044
-515.021
-562.819
-590.235
-602.314
-603.5
-597.342
-586.49
-572.83
-557.65
-541.799
-525.824
-510.061
-494.712
-479.891
-465.652
-452.018
-438.986
-426.543
-414.666
-403.329
-392.506
-382.166
-372.284
-362.831
-353.783
-345.116
-336.808
-328.837
-321.186
-313.835
-306.769
-299.973
-293.432
-287.136
-281.071
-275.227
-269.594
-264.164
-258.927
-253.876
-249.003
-244.301
-239.764
-235.386
-231.161
-227.083
-223.149
-219.353
-215.691
-212.16
-208.756
-205.476
-202.318
-199.278
-196.354
-193.544
-190.846
-188.259
-185.782
-183.412
-181.149
-178.991
-176.939
-174.99
-173.143
-171.396
-169.748
-168.195
-166.734
-165.359
-164.066
-162.849
-161.701
-160.615
-159.587
-158.609
-157.677
-156.786
-155.931
-155.109
-154.317
-153.553
-152.814
-152.099
-151.407
-150.735
-150.083
-149.45
-148.835
-148.236
-147.655
-147.089
-146.538
-146.003
-145.483
-144.977
-144.486
-144.01
-143.549
-143.102
-142.671
-142.256
-141.857
-141.475
-141.11
-140.763
-140.434
-140.123
-139.83
-139.554
-139.296
-139.053
-138.824
-138.609
-138.405
-138.211
-138.026
-137.848
-137.676
-137.509
-137.347
-137.188
-137.032
-136.88
-136.729
-136.581
-136.434
-136.29
-136.147
-136.005
-135.866
-135.727
-135.591
-135.457
-135.325
-135.195
-135.068
-134.944
-134.823
-134.706
-134.592
-134.482
-134.377
-134.275
-134.177
-134.084
-133.994
-133.908
-133.826
-133.746
-133.669
-133.594
-133.522
-133.451
-133.382
-133.314
-133.248
-133.183
-133.119
-133.055
-132.993
-132.932
-132.871
-132.811
-132.752
-132.694
-132.637
-132.581
-132.526
-132.472
-132.419
-132.368
-132.318
-132.27
-132.223
-132.178
-132.134
-132.092
-132.051
-132.011
-131.972
-131.934
-131.896
-131.858
-131.82
-131.783
-131.744
-131.706
-131.667
-131.629
-131.589
-131.55
-131.511
-131.473
-131.434
-131.396
-131.359
-131.322
-131.287
-131.252
-131.218
-131.186
-131.155
-131.125
-131.096
-131.068
-131.041
-131.016
-130.991
-130.968
-130.945
-130.922
-130.901
-130.879
-130.858
-130.837
-130.817
-130.796
-130.775
-130.755
-130.734
-130.713
-130.692
-130.671
-130.649
-130.628
-130.607
-130.586
-130.564
-130.543
-130.522
-130.501
-130.48
-130.459
-130.438
-130.418
-130.397
-130.377
-130.357
-130.337
-130.318
-130.298
-130.279
-130.26
-130.24
-130.221
-130.203
-130.184
-130.165
-130.147
-130.129
-130.111
-130.093
-130.076
-130.059
-130.042
-130.025
-130.009
-129.993
-129.977
-129.961
-129.946
-129.931
-129.916
-129.901
-129.886
-129.872
-129.858
-129.844
-129.83
-129.816
-129.803
-129.79
-129.776
-129.763
-129.75
-129.737
-129.725
-129.712
-129.7
-129.688
-129.676
-129.664
-129.653
-129.641
-129.63
-129.619
-129.607
-129.597
-129.586
-129.575
-129.565
-129.554
-129.544
-129.534
-129.523
-129.513
-129.503
-129.494
-129.484
-129.474
-129.464
-129.455
-129.445
-129.436
-129.426
-129.417
-129.408
-129.399
-129.389
-129.38
-129.371
-129.362
-129.353
-129.344
-129.335
-129.326
-129.317
-129.308
-129.299
-129.291
-129.282
-129.273
-129.264
-129.255
-129.247
-129.238
-129.229
-129.221
-129.212
-129.203
-129.195
-129.186
-129.177
-129.169
-129.16
-129.151
-129.143
-129.134
-129.125
-129.117
-129.108
-129.099
-129.091
-129.082
-129.073
-129.065
-129.056
-129.047
-129.039
-129.03
-129.021
-129.012
-129.004
-128.995
-128.986
-128.977
-128.968
-128.96
-128.951
-128.942
-128.933
-128.924
-128.915
-128.907
-128.898
-128.889
-128.88
-128.871
-128.862
-128.853
-128.844
-128.835
-128.826
-128.817
-128.808
-128.799
-128.79
-128.781
-128.772
-128.762
-128.753
-128.744
-128.735
-128.726
-128.716
-128.707
-128.698
-128.689
-128.679
-128.67
-128.661
-128.651
-128.642
-128.633
-128.623
-128.614
-128.604
-128.595
-128.585
-128.576
-128.566
-128.557
-128.547
-128.538
-128.528
-128.519
-128.509
-128.499
-128.49
-128.48
-128.47
-128.461
-128.451
-128.441
-128.431
-128.422
-128.412
-128.402
-128.392
-128.382
-128.373
-128.363
-128.353
-128.343
-128.333
-128.323
-128.313
-128.303
-128.293
-128.283
-128.273
-128.263
-128.253
-128.243
-128.233
-128.223
-128.213
-128.202
-128.192
-128.182
-128.172
-128.162
-128.152
-128.141
-128.131
-128.121
-128.111
-128.1
-128.09
-128.08
-128.069
-128.059
-128.049
-128.038
-128.028
-128.018
-128.007
-127.997
-127.986
-127.976
-127.965
-127.955
-127.944
-127.934
-127.923
-127.913
-127.902
-127.892
-127.881
-127.871
-127.86
-127.849
-127.839
-127.828
-127.818
-127.807
-127.796
-127.786
-127.775
-127.764
-127.753
-127.743
-127.732
-127.721
-127.711
-127.7
-127.689
-127.678
-127.667
-127.657
-127.646
-127.635
-127.624
-127.613
-127.602
-127.592
-127.581
-127.57
-127.559
-127.548
-127.537
-127.526
-127.515
-127.504
-127.494
-127.483
-127.472
-127.461
-127.45
-127.439
-127.428
-127.417
-127.406
-127.395
-127.384
-127.373
-127.362
-127.351
-127.339
-127.328
-127.317
-127.306
-127.295
-127.284
-127.273
-127.262
-127.251
-127.24
-127.229
-127.217
-127.206
-127.195
-127.184
-127.173
-127.162
-127.151
-127.139
-127.128
-127.117
-127.106
-127.095
-127.083
-127.072
-127.061
-127.05
-127.039
-127.027
-127.016
-127.005
-126.994
-126.983
-126.971
-126.96
-126.949
-126.938
-126.926
-126.915
-126.904
-126.893
-126.881
-126.87
-126.859
-126.848
-126.836
-126.825
-126.814
-126.803
-126.791
-126.78
-126.769
-126.757
-126.746
-126.735
-126.724
-126.712
-126.701
-126.69
-126.678
-126.667
-126.656
-126.645
-126.633
-126.622
-126.611
-126.599
-126.588
-126.577
-126.565
-126.554
-126.543
-126.531
-126.52
-126.509
-126.498
-126.486
-126.475
-126.464
-126.452
-126.441
-126.43
-126.418
-126.407
-126.396
-126.385
-126.373
-126.362
-126.351
-126.339
-126.328
-126.317
-126.305
-126.294
-126.283
-126.272
-126.26
-126.249
-126.238
-126.226
-126.215
-126.204
-126.193
-126.181
-126.17
-126.159
-126.147
-126.136
-126.125
-126.114
-126.102
-126.091
-126.08
-126.069
-126.057
-126.046
-126.035
-126.024
-126.012
-126.001
-125.99
-125.979
-125.967
-125.956
-125.945
-125.934
-125.923
-125.911
-125.9
-125.889
-125.878
-125.866
-125.855
-125.844
-125.833
-125.822
-125.81
-125.799
-125.788
-125.777
-125.766
-125.755
-125.743
-125.732
-125.721
-125.71
-125.699
-125.688
-125.676
-125.665
-125.654
-125.643
-125.632
-125.621
-125.61
-125.598
-125.587
-125.576
-125.565
-125.554
-125.543
-125.532
-125.52
-125.509
-125.498
-125.487
-125.476
-125.465
-125.454
-125.443
-125.432
-125.42
-125.409
-125.398
-125.387
-125.376
-125.365
-125.354
-125.343
-125.332
-125.32
-125.309
-125.298
-125.287
-125.276
-125.265
-125.254
-125.243
-125.232
-125.22
-125.209
-125.198
-125.187
-125.176
-125.165
-125.154
-125.143
-125.131
-125.12
-125.109
-125.098
-125.087
-125.076
-125.064
-125.053
-125.042
-125.031
-125.019
-125.008
-124.997
-124.986
-124.974
-124.963
-124.952
-124.941
-124.929
-124.918
-124.907
-124.895
-124.884
-124.872
-124.861
-124.849
-124.838
-124.827
-124.815
-124.803
-124.792
-124.78
-124.769
-124.757
-124.745
-124.734
-124.722
-124.71
-124.698
-124.686
-124.674
-124.662
-124.65
-124.638
-124.626
-124.614
-124.602
-124.59
-124.578
-124.565
-124.553
-124.54
-124.528
-124.515
-124.503
-124.49
-124.477
-124.465
-124.452
-124.439
-124.426
-124.412
-124.399
-124.386
-124.372
-124.359
-124.345
-124.332
-124.318
-124.304
-124.29
-124.275
-124.261
-124.247
-124.232
-124.217
-124.203
-124.188
-124.172
-124.157
-124.142
-124.126
-124.11
-124.094
-124.078
-124.062
-124.045
-124.028
-124.011
-123.994
-123.977
-123.959
-123.941
-123.923
-123.904
-123.885
-123.866
-123.847
-123.828
-123.808
-123.787
-123.767
-123.746
-123.725
-123.703
-123.681
-123.659
-123.636
-123.613
-123.589
-123.565
-123.54
-123.515
-123.49
-123.464
-123.437
-123.41
-123.383
-123.355
-123.326
-123.296
-123.266
-123.236
-123.204
-123.172
-123.139
-123.106
-123.072
-123.037
-123.001
-122.964
-122.926
-122.888
-122.848
-122.808
-122.766
-122.724
-122.68
-122.636
-122.59
-122.543
-122.495
-122.446
-122.395
-122.343
-122.29
-122.235
-122.179
-122.122
-122.062
-122.002
-121.939
-121.875
-121.809
-121.741
-121.672
-121.6
-121.527
-121.451
-121.373
-121.294
-121.211
-121.127
-121.04
-120.951
-120.859
-120.764
-120.667
-120.566
-120.463
-120.357
-120.248
-120.136
-120.02
-119.901
-119.778
-119.652
-119.521
-119.387
-119.249
-119.107
-118.961
-118.81
-118.655
-118.495
-118.33
-118.16
-117.985
-117.805
-117.619
-117.427
-117.23
-117.027
-116.817
-116.601
-116.378
-116.149
-115.912
-115.668
-115.416
-115.157
-114.89
-114.614
-114.33
-114.036
-113.734
-113.422
-113.101
-112.769
-112.427
-112.075
-111.711
-111.336
-110.949
-110.549
-110.137
-109.712
-109.274
-108.821
-108.355
-107.873
-107.376
-106.863
-106.334
-105.787
-105.224
-104.642
-104.041
-103.421
-102.78
-102.119
-101.437
-100.732
-100.004
-99.2518
-98.4751
-97.6729
-96.844
-95.9876
-95.1026
-94.1879
-93.2425
-92.265
-91.2544
-90.2092
-89.1281
-88.0096
-86.8521
-85.654
-84.4136
-83.1289
-81.798
-80.4188
-78.9888
-77.5058
-75.9669
-74.3693
-72.7098
-70.9849
-69.1909
-67.3235
-65.3781
-63.3494
-61.2316
-59.0179
-56.7007
-54.2713
-51.7192
-49.0324
-46.1965
-43.194
-40.004
-36.6012
-32.955
-29.0286
-24.7779
-20.1509
-15.0866
-9.51274
-3.39771
-51.3426
-176.558
-292.094
-387.071
-458.957
-508.954
-540.399
-557.3
-563.446
-562.012
-555.46
-545.608
-533.743
-520.751
-507.229
-493.568
-480.023
-466.752
-453.851
-441.376
-429.352
-417.789
-406.685
-396.03
-385.808
-376.004
-366.598
-357.572
-348.907
-340.586
-332.589
-324.902
-317.507
-310.391
-303.539
-296.939
-290.579
-284.448
-278.536
-272.833
-267.331
-262.022
-256.897
-251.95
-247.174
-242.563
-238.11
-233.81
-229.658
-225.65
-221.78
-218.044
-214.44
-210.962
-207.608
-204.376
-201.261
-198.262
-195.377
-192.603
-189.94
-187.384
-184.935
-182.591
-180.352
-178.216
-176.183
-174.25
-172.417
-170.681
-169.041
-167.493
-166.034
-164.659
-163.364
-162.142
-160.989
-159.897
-158.862
-157.877
-156.938
-156.039
-155.178
-154.35
-153.553
-152.785
-152.042
-151.324
-150.628
-149.954
-149.3
-148.666
-148.049
-147.451
-146.869
-146.303
-145.753
-145.219
-144.699
-144.195
-143.705
-143.231
-142.771
-142.327
-141.898
-141.485
-141.088
-140.707
-140.344
-139.998
-139.669
-139.358
-139.064
-138.788
-138.527
-138.282
-138.051
-137.833
-137.626
-137.429
-137.24
-137.059
-136.885
-136.715
-136.551
-136.39
-136.233
-136.079
-135.927
-135.778
-135.631
-135.485
-135.342
-135.201
-135.061
-134.924
-134.788
-134.655
-134.523
-134.395
-134.269
-134.145
-134.025
-133.909
-133.796
-133.687
-133.582
-133.481
-133.384
-133.29
-133.201
-133.115
-133.032
-132.952
-132.875
-132.8
-132.727
-132.656
-132.587
-132.519
-132.452
-132.387
-132.323
-132.26
-132.198
-132.137
-132.076
-132.017
-131.958
-131.9
-131.843
-131.787
-131.733
-131.679
-131.627
-131.576
-131.527
-131.479
-131.432
-131.387
-131.344
-131.302
-131.261
-131.221
-131.181
-131.143
-131.105
-131.067
-131.029
-130.992
-130.954
-130.916
-130.877
-130.839
-130.8
-130.762
-130.723
-130.685
-130.647
-130.61
-130.573
-130.538
-130.502
-130.468
-130.435
-130.403
-130.372
-130.342
-130.314
-130.286
-130.26
-130.234
-130.21
-130.186
-130.163
-130.141
-130.119
-130.097
-130.076
-130.055
-130.035
-130.014
-129.993
-129.973
-129.952
-129.931
-129.91
-129.889
-129.868
-129.847
-129.826
-129.805
-129.784
-129.763
-129.742
-129.721
-129.7
-129.68
-129.659
-129.639
-129.619
-129.599
-129.58
-129.56
-129.541
-129.521
-129.502
-129.483
-129.464
-129.446
-129.427
-129.409
-129.39
-129.372
-129.355
-129.337
-129.319
-129.302
-129.285
-129.269
-129.252
-129.236
-129.22
-129.204
-129.189
-129.174
-129.159
-129.144
-129.129
-129.115
-129.101
-129.087
-129.073
-129.059
-129.046
-129.033
-129.019
-129.006
-128.993
-128.981
-128.968
-128.956
-128.943
-128.931
-128.919
-128.907
-128.896
-128.884
-128.873
-128.862
-128.851
-128.84
-128.829
-128.818
-128.808
-128.797
-128.787
-128.777
-128.767
-128.757
-128.747
-128.737
-128.727
-128.718
-128.708
-128.698
-128.689
-128.68
-128.67
-128.661
-128.652
-128.643
-128.634
-128.624
-128.615
-128.606
-128.598
-128.589
-128.58
-128.571
-128.562
-128.553
-128.545
-128.536
-128.527
-128.518
-128.51
-128.501
-128.493
-128.484
-128.475
-128.467
-128.458
-128.45
-128.441
-128.433
-128.424
-128.416
-128.407
-128.399
-128.39
-128.381
-128.373
-128.364
-128.356
-128.347
-128.339
-128.33
-128.322
-128.313
-128.305
-128.296
-128.288
-128.279
-128.27
-128.262
-128.253
-128.245
-128.236
-128.227
-128.219
-128.21
-128.201
-128.193
-128.184
-128.175
-128.167
-128.158
-128.149
-128.141
-128.132
-128.123
-128.114
-128.105
-128.097
-128.088
-128.079
-128.07
-128.061
-128.052
-128.043
-128.034
-128.026
-128.017
-128.008
-127.999
-127.99
-127.981
-127.971
-127.962
-127.953
-127.944
-127.935
-127.926
-127.917
-127.908
-127.898
-127.889
-127.88
-127.871
-127.862
-127.852
-127.843
-127.834
-127.824
-127.815
-127.806
-127.796
-127.787
-127.777
-127.768
-127.759
-127.749
-127.74
-127.73
-127.721
-127.711
-127.702
-127.692
-127.682
-127.673
-127.663
-127.654
-127.644
-127.634
-127.625
-127.615
-127.605
-127.595
-127.586
-127.576
-127.566
-127.556
-127.546
-127.537
-127.527
-127.517
-127.507
-127.497
-127.487
-127.477
-127.467
-127.457
-127.447
-127.437
-127.427
-127.417
-127.407
-127.397
-127.387
-127.377
-127.367
-127.357
-127.347
-127.337
-127.327
-127.316
-127.306
-127.296
-127.286
-127.276
-127.265
-127.255
-127.245
-127.235
-127.224
-127.214
-127.204
-127.194
-127.183
-127.173
-127.163
-127.152
-127.142
-127.131
-127.121
-127.111
-127.1
-127.09
-127.079
-127.069
-127.058
-127.048
-127.037
-127.027
-127.016
-127.006
-126.995
-126.985
-126.974
-126.964
-126.953
-126.942
-126.932
-126.921
-126.911
-126.9
-126.889
-126.879
-126.868
-126.857
-126.847
-126.836
-126.825
-126.815
-126.804
-126.793
-126.782
-126.772
-126.761
-126.75
-126.739
-126.729
-126.718
-126.707
-126.696
-126.685
-126.675
-126.664
-126.653
-126.642
-126.631
-126.62
-126.61
-126.599
-126.588
-126.577
-126.566
-126.555
-126.544
-126.533
-126.522
-126.511
-126.501
-126.49
-126.479
-126.468
-126.457
-126.446
-126.435
-126.424
-126.413
-126.402
-126.391
-126.38
-126.369
-126.358
-126.347
-126.336
-126.325
-126.314
-126.303
-126.292
-126.281
-126.27
-126.259
-126.248
-126.237
-126.226
-126.215
-126.204
-126.193
-126.182
-126.17
-126.159
-126.148
-126.137
-126.126
-126.115
-126.104
-126.093
-126.082
-126.071
-126.06
-126.049
-126.038
-126.026
-126.015
-126.004
-125.993
-125.982
-125.971
-125.96
-125.949
-125.938
-125.926
-125.915
-125.904
-125.893
-125.882
-125.871
-125.86
-125.849
-125.838
-125.826
-125.815
-125.804
-125.793
-125.782
-125.771
-125.76
-125.749
-125.737
-125.726
-125.715
-125.704
-125.693
-125.682
-125.671
-125.66
-125.648
-125.637
-125.626
-125.615
-125.604
-125.593
-125.582
-125.571
-125.56
-125.548
-125.537
-125.526
-125.515
-125.504
-125.493
-125.482
-125.471
-125.46
-125.449
-125.437
-125.426
-125.415
-125.404
-125.393
-125.382
-125.371
-125.36
-125.349
-125.338
-125.327
-125.316
-125.304
-125.293
-125.282
-125.271
-125.26
-125.249
-125.238
-125.227
-125.216
-125.205
-125.194
-125.183
-125.172
-125.161
-125.15
-125.139
-125.128
-125.117
-125.106
-125.095
-125.084
-125.073
-125.062
-125.051
-125.04
-125.029
-125.018
-125.007
-124.996
-124.985
-124.974
-124.963
-124.952
-124.941
-124.93
-124.919
-124.908
-124.897
-124.886
-124.875
-124.864
-124.853
-124.842
-124.831
-124.82
-124.809
-124.798
-124.787
-124.776
-124.765
-124.754
-124.743
-124.732
-124.721
-124.711
-124.7
-124.689
-124.678
-124.667
-124.656
-124.645
-124.634
-124.623
-124.612
-124.601
-124.59
-124.579
-124.568
-124.557
-124.546
-124.535
-124.524
-124.513
-124.503
-124.492
-124.481
-124.47
-124.459
-124.448
-124.437
-124.426
-124.415
-124.404
-124.393
-124.382
-124.371
-124.359
-124.348
-124.337
-124.326
-124.315
-124.304
-124.293
-124.282
-124.271
-124.26
-124.248
-124.237
-124.226
-124.215
-124.204
-124.192
-124.181
-124.17
-124.159
-124.147
-124.136
-124.124
-124.113
-124.102
-124.09
-124.079
-124.067
-124.056
-124.044
-124.032
-124.021
-124.009
-123.997
-123.986
-123.974
-123.962
-123.95
-123.938
-123.926
-123.914
-123.902
-123.89
-123.878
-123.866
-123.853
-123.841
-123.829
-123.816
-123.803
-123.791
-123.778
-123.765
-123.753
-123.74
-123.727
-123.714
-123.7
-123.687
-123.674
-123.66
-123.647
-123.633
-123.619
-123.605
-123.591
-123.577
-123.563
-123.548
-123.534
-123.519
-123.504
-123.489
-123.474
-123.458
-123.443
-123.427
-123.411
-123.395
-123.379
-123.363
-123.346
-123.329
-123.312
-123.295
-123.277
-123.259
-123.241
-123.223
-123.204
-123.185
-123.166
-123.147
-123.127
-123.107
-123.086
-123.066
-123.045
-123.023
-123.001
-122.979
-122.956
-122.933
-122.91
-122.886
-122.861
-122.836
-122.811
-122.785
-122.759
-122.732
-122.704
-122.676
-122.648
-122.619
-122.589
-122.558
-122.527
-122.495
-122.462
-122.429
-122.395
-122.36
-122.324
-122.287
-122.25
-122.212
-122.172
-122.132
-122.091
-122.049
-122.005
-121.961
-121.915
-121.869
-121.821
-121.771
-121.721
-121.669
-121.616
-121.562
-121.506
-121.448
-121.389
-121.329
-121.266
-121.202
-121.137
-121.069
-121
-120.929
-120.855
-120.78
-120.702
-120.623
-120.541
-120.457
-120.37
-120.281
-120.189
-120.095
-119.997
-119.898
-119.795
-119.689
-119.58
-119.468
-119.352
-119.233
-119.111
-118.985
-118.855
-118.721
-118.584
-118.442
-118.296
-118.145
-117.99
-117.831
-117.666
-117.497
-117.322
-117.142
-116.957
-116.766
-116.569
-116.366
-116.157
-115.941
-115.719
-115.49
-115.253
-115.01
-114.759
-114.5
-114.233
-113.958
-113.674
-113.382
-113.08
-112.769
-112.448
-112.117
-111.776
-111.423
-111.06
-110.686
-110.299
-109.901
-109.49
-109.065
-108.628
-108.176
-107.71
-107.229
-106.733
-106.221
-105.692
-105.147
-104.584
-104.003
-103.403
-102.784
-102.144
-101.484
-100.803
-100.099
-99.3719
-98.6211
-97.8455
-97.0443
-96.2166
-95.3613
-94.4774
-93.5639
-92.6196
-91.6433
-90.6338
-89.5898
-88.5099
-87.3925
-86.2362
-85.0393
-83.8001
-82.5166
-81.1869
-79.8088
-78.3799
-76.898
-75.3602
-73.7636
-72.1051
-70.3813
-68.5882
-66.7218
-64.7774
-62.7497
-60.633
-58.4205
-56.1049
-53.6773
-51.1279
-48.4449
-45.6144
-42.6201
-39.4426
-36.0585
-32.4401
-28.5542
-24.3613
-19.8131
-14.8484
-9.38487
-3.36548
-40.6712
-144.689
-246.078
-332.794
-401.202
-451.388
-485.468
-506.392
-517.167
-520.449
-518.394
-512.662
-504.48
-494.731
-484.04
-472.839
-461.428
-450.01
-438.722
-427.652
-416.859
-406.377
-396.225
-386.411
-376.937
-367.798
-358.988
-350.496
-342.311
-334.423
-326.819
-319.487
-312.417
-305.596
-299.015
-292.664
-286.532
-280.611
-274.893
-269.37
-264.034
-258.878
-253.896
-249.082
-244.43
-239.934
-235.588
-231.389
-227.332
-223.411
-219.624
-215.966
-212.434
-209.025
-205.735
-202.563
-199.505
-196.559
-193.724
-190.996
-188.376
-185.86
-183.448
-181.139
-178.93
-176.822
-174.812
-172.9
-171.084
-169.363
-167.733
-166.192
-164.736
-163.362
-162.064
-160.838
-159.679
-158.58
-157.536
-156.543
-155.595
-154.689
-153.819
-152.985
-152.181
-151.407
-150.659
-149.937
-149.238
-148.561
-147.905
-147.268
-146.651
-146.051
-145.469
-144.903
-144.354
-143.82
-143.302
-142.8
-142.312
-141.84
-141.382
-140.94
-140.514
-140.103
-139.708
-139.329
-138.968
-138.623
-138.294
-137.983
-137.689
-137.411
-137.148
-136.9
-136.666
-136.444
-136.234
-136.033
-135.841
-135.656
-135.478
-135.306
-135.138
-134.975
-134.816
-134.66
-134.507
-134.356
-134.209
-134.063
-133.919
-133.778
-133.639
-133.502
-133.367
-133.234
-133.104
-132.976
-132.851
-132.729
-132.61
-132.495
-132.383
-132.275
-132.17
-132.07
-131.973
-131.88
-131.79
-131.704
-131.621
-131.541
-131.463
-131.388
-131.315
-131.244
-131.174
-131.106
-131.04
-130.974
-130.91
-130.847
-130.785
-130.724
-130.664
-130.605
-130.546
-130.489
-130.433
-130.377
-130.323
-130.27
-130.218
-130.168
-130.119
-130.071
-130.025
-129.98
-129.936
-129.894
-129.853
-129.813
-129.774
-129.735
-129.697
-129.659
-129.621
-129.584
-129.546
-129.508
-129.47
-129.432
-129.394
-129.357
-129.319
-129.281
-129.244
-129.208
-129.172
-129.137
-129.102
-129.069
-129.036
-129.004
-128.974
-128.944
-128.916
-128.888
-128.862
-128.837
-128.812
-128.788
-128.765
-128.743
-128.721
-128.699
-128.678
-128.657
-128.636
-128.616
-128.595
-128.574
-128.554
-128.533
-128.512
-128.492
-128.471
-128.45
-128.429
-128.408
-128.387
-128.367
-128.346
-128.326
-128.305
-128.285
-128.265
-128.245
-128.225
-128.205
-128.186
-128.167
-128.147
-128.128
-128.11
-128.091
-128.072
-128.054
-128.035
-128.017
-127.999
-127.982
-127.964
-127.947
-127.93
-127.913
-127.896
-127.879
-127.863
-127.847
-127.832
-127.816
-127.801
-127.786
-127.771
-127.756
-127.742
-127.728
-127.714
-127.7