/*--------------------------------*- C++ -*----------------------------------*\
| =========                 |                                                 |
| \\      /  F ield         | OpenFOAM: The Open Source CFD Toolbox           |
|  \\    /   O peration     | Version:  2512                                  |
|   \\  /    A nd           | Website:  www.openfoam.com                      |
|    \\/     M anipulation  |                                                 |
\*---------------------------------------------------------------------------*/
FoamFile
{
    version     2.0;
    format      ascii;
    arch        "LSB;label=32;scalar=64";
    class       surfaceScalarField;
    location    "0.003";
    object      phi;
}
// * * * * * * * * * * * * * * * * * * * * * * * * * * * * * * * * * * * * * //

dimensions      [1 0 -1 0 0 0 0];

oriented        oriented;

internalField   nonuniform List<scalar> 
198900
(
0.00147772
0.000462506
0.00106807
0.000410658
0.000807586
0.000261219
0.00064427
0.000164066
0.000540821
0.000104212
0.000474255
6.73366e-05
0.000430366
4.46647e-05
0.000400527
3.06167e-05
0.000379552
2.17502e-05
0.000364302
1.60231e-05
0.000352846
1.22263e-05
0.000343978
9.63522e-06
0.000336932
7.81053e-06
0.00033121
6.48345e-06
0.000326481
5.4877e-06
0.000322518
4.71901e-06
0.000319163
4.11071e-06
0.000316297
3.61922e-06
0.000313834
3.21519e-06
0.000311706
2.87829e-06
0.000309862
2.59402e-06
0.000308259
2.35173e-06
0.000306864
2.14343e-06
0.000305648
1.96299e-06
0.000304589
1.80564e-06
0.000303668
1.6676e-06
0.000302868
1.54585e-06
0.000302175
1.43794e-06
0.000301579
1.34187e-06
0.000301067
1.25599e-06
0.000300633
1.17892e-06
0.000300268
1.1095e-06
0.000299965
1.04678e-06
0.000299719
9.89933e-07
0.000299525
9.38254e-07
0.000299377
8.91154e-07
0.000299273
8.48134e-07
0.000299207
8.08774e-07
0.000299178
7.72712e-07
0.000299182
7.39635e-07
0.000299216
7.09264e-07
0.000299278
6.81347e-07
0.000299366
6.55657e-07
0.000299478
6.31988e-07
0.000299611
6.10153e-07
0.000299765
5.89984e-07
0.000299937
5.71324e-07
0.000300127
5.54035e-07
0.000300333
5.37992e-07
0.000300554
5.23085e-07
0.000300788
5.09217e-07
0.000301036
4.96307e-07
0.000301296
4.84278e-07
0.000301567
4.73064e-07
0.000301849
4.62604e-07
0.000302141
4.52842e-07
0.000302442
4.43726e-07
0.000302752
4.3521e-07
0.00030307
4.27253e-07
0.000303395
4.19817e-07
0.000303728
4.12866e-07
0.000304067
4.06368e-07
0.000304412
4.00298e-07
0.000304764
3.9464e-07
0.00030512
3.8939e-07
0.000305482
3.84555e-07
0.000305848
3.8016e-07
0.000306219
3.76247e-07
0.000306593
3.7287e-07
0.00030697
3.70095e-07
0.000307349
3.67984e-07
0.00030773
3.66581e-07
0.000308112
3.65897e-07
0.000308494
3.65893e-07
0.000308875
3.66482e-07
0.000309256
3.67532e-07
0.000309636
3.68884e-07
0.000310014
3.70375e-07
0.000310391
3.71863e-07
0.000310767
3.73241e-07
0.000311142
3.74442e-07
0.000311517
3.75438e-07
0.000311891
3.76232e-07
0.000312264
3.76847e-07
0.000312637
3.77311e-07
0.00031301
3.77656e-07
0.000313383
3.77909e-07
0.000313756
3.7809e-07
0.00031413
3.78215e-07
0.000314503
3.78293e-07
0.000314877
3.78332e-07
0.000315251
3.78336e-07
0.000315625
3.78308e-07
0.000316
3.78248e-07
0.000316375
3.78157e-07
0.00031675
3.78036e-07
0.000317126
3.77884e-07
0.000317502
3.77702e-07
0.000317879
3.77489e-07
0.000318256
3.77245e-07
0.000318634
3.7697e-07
0.000319012
3.76663e-07
0.000319391
3.76325e-07
0.000319771
3.75956e-07
0.000320152
3.7556e-07
0.000320533
3.75144e-07
0.000320915
3.7472e-07
0.000321297
3.7431e-07
0.00032168
3.73943e-07
0.000322064
3.73654e-07
0.000322449
3.73485e-07
0.000322833
3.73475e-07
0.000323218
3.73657e-07
0.000323603
3.74045e-07
0.000323987
3.74634e-07
0.000324371
3.75396e-07
0.000324754
3.7629e-07
0.000325137
3.77264e-07
0.000325519
3.78263e-07
0.000325901
3.79244e-07
0.000326281
3.80172e-07
0.000326662
3.81027e-07
0.000327042
3.81802e-07
0.000327421
3.82496e-07
0.0003278
3.83114e-07
0.000328179
3.83665e-07
0.000328558
3.84157e-07
0.000328937
3.84597e-07
0.000329316
3.84992e-07
0.000329694
3.85344e-07
0.000330073
3.85658e-07
0.000330452
3.85935e-07
0.000330831
3.86178e-07
0.00033121
3.86387e-07
0.000331589
3.86563e-07
0.000331968
3.86708e-07
0.000332348
3.86824e-07
0.000332728
3.86911e-07
0.000333108
3.86974e-07
0.000333489
3.87016e-07
0.00033387
3.87043e-07
0.000334251
3.87062e-07
0.000334633
3.87083e-07
0.000335015
3.87117e-07
0.000335397
3.87175e-07
0.00033578
3.87269e-07
0.000336163
3.87408e-07
0.000336546
3.876e-07
0.000336929
3.87847e-07
0.000337312
3.88145e-07
0.000337695
3.88488e-07
0.000338079
3.88865e-07
0.000338462
3.89262e-07
0.000338845
3.89669e-07
0.000339228
3.90076e-07
0.000339612
3.90476e-07
0.000339995
3.90867e-07
0.000340378
3.91246e-07
0.000340762
3.91613e-07
0.000341145
3.9197e-07
0.000341528
3.92316e-07
0.000341912
3.92652e-07
0.000342296
3.92977e-07
0.000342679
3.93292e-07
0.000343063
3.93597e-07
0.000343447
3.93892e-07
0.000343831
3.94177e-07
0.000344215
3.94451e-07
0.0003446
3.94716e-07
0.000344984
3.94972e-07
0.000345369
3.9522e-07
0.000345754
3.95462e-07
0.000346139
3.95699e-07
0.000346524
3.95934e-07
0.00034691
3.96172e-07
0.000347295
3.96417e-07
0.000347681
3.96675e-07
0.000348067
3.96951e-07
0.000348453
3.97252e-07
0.00034884
3.97582e-07
0.000349226
3.97942e-07
0.000349612
3.98331e-07
0.000349999
3.98745e-07
0.000350385
3.99176e-07
0.000350772
3.99614e-07
0.000351158
4.00051e-07
0.000351545
4.00477e-07
0.000351931
4.00884e-07
0.000352318
4.01269e-07
0.000352705
4.01626e-07
0.000353092
4.01956e-07
0.000353479
4.02259e-07
0.000353866
4.02536e-07
0.000354253
4.02791e-07
0.000354641
4.03028e-07
0.000355029
4.03251e-07
0.000355417
4.03467e-07
0.000355805
4.03681e-07
0.000356194
4.03898e-07
0.000356583
4.04123e-07
0.000356972
4.04358e-07
0.000357362
4.04606e-07
0.000357751
4.04867e-07
0.000358141
4.05141e-07
0.000358531
4.05428e-07
0.000358922
4.05728e-07
0.000359312
4.06043e-07
0.000359703
4.06373e-07
0.000360093
4.0672e-07
0.000360484
4.07084e-07
0.000360875
4.07466e-07
0.000361266
4.07865e-07
0.000361657
4.08278e-07
0.000362049
4.08702e-07
0.00036244
4.09132e-07
0.000362831
4.09565e-07
0.000363223
4.09997e-07
0.000363615
4.10425e-07
0.000364006
4.10847e-07
0.000364398
4.11262e-07
0.00036479
4.11669e-07
0.000365182
4.12068e-07
0.000365574
4.1246e-07
0.000365966
4.12845e-07
0.000366359
4.13223e-07
0.000366751
4.13596e-07
0.000367144
4.13964e-07
0.000367537
4.14326e-07
0.00036793
4.14684e-07
0.000368323
4.15038e-07
0.000368716
4.15389e-07
0.00036911
4.15737e-07
0.000369504
4.16085e-07
0.000369898
4.16432e-07
0.000370292
4.16781e-07
0.000370686
4.17133e-07
0.000371081
4.17489e-07
0.000371475
4.1785e-07
0.00037187
4.18216e-07
0.000372265
4.18588e-07
0.00037266
4.18965e-07
0.000373056
4.19345e-07
0.000373451
4.19728e-07
0.000373847
4.20111e-07
0.000374243
4.20494e-07
0.000374639
4.20876e-07
0.000375035
4.21255e-07
0.000375432
4.21633e-07
0.000375828
4.22009e-07
0.000376225
4.22384e-07
0.000376622
4.22758e-07
0.000377019
4.23133e-07
0.000377417
4.23511e-07
0.000377814
4.2389e-07
0.000378212
4.24273e-07
0.00037861
4.24659e-07
0.000379008
4.25048e-07
0.000379407
4.2544e-07
0.000379805
4.25834e-07
0.000380204
4.26231e-07
0.000380603
4.2663e-07
0.000381002
4.27031e-07
0.000381401
4.27434e-07
0.0003818
4.2784e-07
0.0003822
4.28247e-07
0.0003826
4.28657e-07
0.000383
4.2907e-07
0.0003834
4.29485e-07
0.0003838
4.29902e-07
0.000384201
4.30321e-07
0.000384601
4.30741e-07
0.000385002
4.31162e-07
0.000385403
4.31582e-07
0.000385804
4.32003e-07
0.000386206
4.32422e-07
0.000386607
4.32841e-07
0.000387009
4.3326e-07
0.000387411
4.33678e-07
0.000387813
4.34096e-07
0.000388215
4.34515e-07
0.000388618
4.34936e-07
0.000389021
4.35358e-07
0.000389423
4.35783e-07
0.000389826
4.36209e-07
0.00039023
4.36638e-07
0.000390633
4.37068e-07
0.000391037
4.37501e-07
0.000391441
4.37935e-07
0.000391845
4.38371e-07
0.000392249
4.38808e-07
0.000392653
4.39247e-07
0.000393058
4.39686e-07
0.000393462
4.40127e-07
0.000393867
4.4057e-07
0.000394272
4.41013e-07
0.000394678
4.41458e-07
0.000395083
4.41903e-07
0.000395489
4.4235e-07
0.000395895
4.42797e-07
0.000396301
4.43245e-07
0.000396707
4.43695e-07
0.000397114
4.44145e-07
0.00039752
4.44596e-07
0.000397927
4.45048e-07
0.000398334
4.45501e-07
0.000398741
4.45954e-07
0.000399149
4.46408e-07
0.000399556
4.46863e-07
0.000399964
4.47319e-07
0.000400372
4.47776e-07
0.00040078
4.48233e-07
0.000401189
4.48691e-07
0.000401597
4.4915e-07
0.000402006
4.4961e-07
0.000402415
4.50071e-07
0.000402824
4.50532e-07
0.000403233
4.50995e-07
0.000403643
4.51458e-07
0.000404053
4.51922e-07
0.000404463
4.52387e-07
0.000404873
4.52852e-07
0.000405283
4.53319e-07
0.000405694
4.53786e-07
0.000406104
4.54254e-07
0.000406515
4.54722e-07
0.000406927
4.55191e-07
0.000407338
4.55661e-07
0.000407749
4.56132e-07
0.000408161
4.56604e-07
0.000408573
4.57076e-07
0.000408985
4.57549e-07
0.000409398
4.58022e-07
0.00040981
4.58497e-07
0.000410223
4.58972e-07
0.000410636
4.59448e-07
0.000411049
4.59924e-07
0.000411463
4.60401e-07
0.000411876
4.60879e-07
0.00041229
4.61358e-07
0.000412704
4.61837e-07
0.000413118
4.62317e-07
0.000413533
4.62798e-07
0.000413948
4.63279e-07
0.000414362
4.63761e-07
0.000414778
4.64244e-07
0.000415193
4.64728e-07
0.000415608
4.65212e-07
0.000416024
4.65697e-07
0.00041644
4.66182e-07
0.000416856
4.66668e-07
0.000417273
4.67155e-07
0.000417689
4.67642e-07
0.000418106
4.6813e-07
0.000418523
4.68619e-07
0.00041894
4.69108e-07
0.000419358
4.69598e-07
0.000419775
4.70089e-07
0.000420193
4.7058e-07
0.000420611
4.71072e-07
0.00042103
4.71564e-07
0.000421448
4.72057e-07
0.000421867
4.72551e-07
0.000422286
4.73045e-07
0.000422705
4.7354e-07
0.000423124
4.74035e-07
0.000423544
4.74531e-07
0.000423964
4.75028e-07
0.000424384
4.75525e-07
0.000424804
4.76023e-07
0.000425225
4.76521e-07
0.000425646
4.7702e-07
0.000426067
4.7752e-07
0.000426488
4.7802e-07
0.000426909
4.78521e-07
0.000427331
4.79022e-07
0.000427753
4.79524e-07
0.000428175
4.80027e-07
0.000428597
4.8053e-07
0.00042902
4.81033e-07
0.000429442
4.81538e-07
0.000429865
4.82042e-07
0.000430289
4.82547e-07
0.000430712
4.83053e-07
0.000431136
4.83559e-07
0.00043156
4.84065e-07
0.000431984
4.84572e-07
0.000432408
4.8508e-07
0.000432833
4.85588e-07
0.000433257
4.86097e-07
0.000433682
4.86606e-07
0.000434108
4.87116e-07
0.000434533
4.87626e-07
0.000434959
4.88137e-07
0.000435385
4.88648e-07
0.000435811
4.8916e-07
0.000436238
4.89672e-07
0.000436664
4.90185e-07
0.000437091
4.90698e-07
0.000437518
4.91212e-07
0.000437946
4.91726e-07
0.000438373
4.9224e-07
0.000438801
4.92756e-07
0.000439229
4.93271e-07
0.000439658
4.93787e-07
0.000440086
4.94304e-07
0.000440515
4.94821e-07
0.000440944
4.95338e-07
0.000441373
4.95856e-07
0.000441803
4.96374e-07
0.000442232
4.96893e-07
0.000442662
4.97411e-07
0.000443093
4.97931e-07
0.000443523
4.98451e-07
0.000443954
4.98971e-07
0.000444385
4.99491e-07
0.000444816
5.00012e-07
0.000445247
5.00533e-07
0.000445679
5.01055e-07
0.000446111
5.01577e-07
0.000446543
5.021e-07
0.000446975
5.02623e-07
0.000447408
5.03146e-07
0.000447841
5.0367e-07
0.000448274
5.04194e-07
0.000448707
5.04718e-07
0.000449141
5.05243e-07
0.000449574
5.05769e-07
0.000450009
5.06294e-07
0.000450443
5.06821e-07
0.000450877
5.07347e-07
0.000451312
5.07873e-07
0.000451747
5.084e-07
0.000452182
5.08928e-07
0.000452618
5.09455e-07
0.000453054
5.09983e-07
0.00045349
5.10511e-07
0.000453926
5.1104e-07
0.000454363
5.11569e-07
0.000454799
5.12098e-07
0.000455236
5.12627e-07
0.000455674
5.13157e-07
0.000456111
5.13687e-07
0.000456549
5.14217e-07
0.000456987
5.14747e-07
0.000457425
5.15278e-07
0.000457864
5.15809e-07
0.000458302
5.16341e-07
0.000458741
5.16873e-07
0.000459181
5.17405e-07
0.00045962
5.17938e-07
0.00046006
5.1847e-07
0.0004605
5.19003e-07
0.00046094
5.19536e-07
0.00046138
5.20069e-07
0.000461821
5.20603e-07
0.000462262
5.21137e-07
0.000462703
5.21671e-07
0.000463145
5.22205e-07
0.000463587
5.22739e-07
0.000464029
5.23274e-07
0.000464471
5.23809e-07
0.000464913
5.24344e-07
0.000465356
5.24879e-07
0.000465799
5.25415e-07
0.000466242
5.2595e-07
0.000466686
5.26487e-07
0.00046713
5.27023e-07
0.000467574
5.2756e-07
0.000468018
5.28096e-07
0.000468462
5.28633e-07
0.000468907
5.2917e-07
0.000469352
5.29707e-07
0.000469798
5.30244e-07
0.000470243
5.30782e-07
0.000470689
5.31319e-07
0.000471135
5.31857e-07
0.000471581
5.32395e-07
0.000472028
5.32933e-07
0.000472475
5.33471e-07
0.000472922
5.34009e-07
0.000473369
5.34547e-07
0.000473817
5.35085e-07
0.000474264
5.35624e-07
0.000474713
5.36163e-07
0.000475161
5.36702e-07
0.000475609
5.37241e-07
0.000476058
5.3778e-07
0.000476507
5.3832e-07
0.000476957
5.38859e-07
0.000477406
5.39399e-07
0.000477856
5.39939e-07
0.000478307
5.40478e-07
0.000478757
5.41018e-07
0.000479208
5.41558e-07
0.000479659
5.42098e-07
0.00048011
5.42638e-07
0.000480561
5.43178e-07
0.000481013
5.43718e-07
0.000481465
5.44258e-07
0.000481917
5.44798e-07
0.00048237
5.45338e-07
0.000482822
5.45879e-07
0.000483275
5.46419e-07
0.000483729
5.4696e-07
0.000484182
5.475e-07
0.000484636
5.48041e-07
0.00048509
5.48581e-07
0.000485544
5.49122e-07
0.000485999
5.49663e-07
0.000486454
5.50203e-07
0.000486909
5.50744e-07
0.000487364
5.51284e-07
0.00048782
5.51825e-07
0.000488275
5.52365e-07
0.000488732
5.52906e-07
0.000489188
5.53447e-07
0.000489645
5.53987e-07
0.000490102
5.54528e-07
0.000490559
5.55068e-07
0.000491016
5.55609e-07
0.000491474
5.56149e-07
0.000491932
5.5669e-07
0.00049239
5.5723e-07
0.000492848
5.5777e-07
0.000493307
5.58311e-07
0.000493766
5.58851e-07
0.000494225
5.59392e-07
0.000494685
5.59932e-07
0.000495145
5.60472e-07
0.000495605
5.61012e-07
0.000496065
5.61552e-07
0.000496526
5.62092e-07
0.000496987
5.62632e-07
0.000497448
5.63172e-07
0.000497909
5.63712e-07
0.000498371
5.64251e-07
0.000498832
5.6479e-07
0.000499295
5.6533e-07
0.000499757
5.65869e-07
0.00050022
5.66408e-07
0.000500683
5.66947e-07
0.000501146
5.67486e-07
0.000501609
5.68024e-07
0.000502073
5.68563e-07
0.000502537
5.69102e-07
0.000503001
5.6964e-07
0.000503466
5.70178e-07
0.00050393
5.70716e-07
0.000504396
5.71255e-07
0.000504861
5.71792e-07
0.000505326
5.7233e-07
0.000505792
5.72868e-07
0.000506258
5.73405e-07
0.000506725
5.73943e-07
0.000507191
5.7448e-07
0.000507658
5.75017e-07
0.000508125
5.75554e-07
0.000508593
5.76091e-07
0.00050906
5.76627e-07
0.000509528
5.77163e-07
0.000509996
5.77699e-07
0.000510465
5.78235e-07
0.000510934
5.78771e-07
0.000511403
5.79306e-07
0.000511872
5.79841e-07
0.000512341
5.80376e-07
0.000512811
5.8091e-07
0.000513281
5.81445e-07
0.000513751
5.81979e-07
0.000514222
5.82513e-07
0.000514693
5.83047e-07
0.000515164
5.83581e-07
0.000515635
5.84115e-07
0.000516107
5.84648e-07
0.000516578
5.85181e-07
0.000517051
5.85714e-07
0.000517523
5.86246e-07
0.000517996
5.86778e-07
0.000518469
5.8731e-07
0.000518942
5.87842e-07
0.000519415
5.88373e-07
0.000519889
5.88904e-07
0.000520363
5.89435e-07
0.000520837
5.89966e-07
0.000521311
5.90496e-07
0.000521786
5.91026e-07
0.000522261
5.91556e-07
0.000522736
5.92085e-07
0.000523212
5.92614e-07
0.000523688
5.93143e-07
0.000524164
5.93671e-07
0.00052464
5.94199e-07
0.000525117
5.94727e-07
0.000525593
5.95254e-07
0.00052607
5.95781e-07
0.000526548
5.96308e-07
0.000527025
5.96834e-07
0.000527503
5.97361e-07
0.000527981
5.97886e-07
0.00052846
5.98412e-07
0.000528938
5.98937e-07
0.000529417
5.99462e-07
0.000529896
5.99987e-07
0.000530376
6.00511e-07
0.000530856
6.01035e-07
0.000531335
6.01558e-07
0.000531816
6.02081e-07
0.000532296
6.02604e-07
0.000532777
6.03126e-07
0.000533258
6.03648e-07
0.000533739
6.0417e-07
0.00053422
6.04691e-07
0.000534702
6.05212e-07
0.000535184
6.05733e-07
0.000535666
6.06253e-07
0.000536149
6.06773e-07
0.000536632
6.07292e-07
0.000537115
6.0781e-07
0.000537598
6.08328e-07
0.000538082
6.08846e-07
0.000538565
6.09363e-07
0.000539049
6.0988e-07
0.000539534
6.10396e-07
0.000540018
6.10912e-07
0.000540503
6.11428e-07
0.000540988
6.11943e-07
0.000541473
6.12458e-07
0.000541959
6.12972e-07
0.000542445
6.13487e-07
0.000542931
6.14e-07
0.000543417
6.14513e-07
0.000543904
6.15026e-07
0.000544391
6.15538e-07
0.000544878
6.1605e-07
0.000545365
6.16561e-07
0.000545853
6.17071e-07
0.000546341
6.17581e-07
0.000546829
6.18091e-07
0.000547317
6.186e-07
0.000547806
6.19109e-07
0.000548295
6.19618e-07
0.000548784
6.20126e-07
0.000549273
6.20633e-07
0.000549763
6.2114e-07
0.000550253
6.21647e-07
0.000550743
6.22153e-07
0.000551233
6.22659e-07
0.000551724
6.23163e-07
0.000552215
6.23668e-07
0.000552706
6.24171e-07
0.000553197
6.24674e-07
0.000553689
6.25177e-07
0.000554181
6.25678e-07
0.000554673
6.2618e-07
0.000555165
6.2668e-07
0.000555658
6.27181e-07
0.000556151
6.2768e-07
0.000556644
6.2818e-07
0.000557137
6.28678e-07
0.000557631
6.29177e-07
0.000558125
6.29674e-07
0.000558619
6.30172e-07
0.000559113
6.30668e-07
0.000559608
6.31165e-07
0.000560103
6.3166e-07
0.000560598
6.32155e-07
0.000561093
6.32649e-07
0.000561589
6.33143e-07
0.000562084
6.33636e-07
0.000562581
6.34129e-07
0.000563077
6.34621e-07
0.000563573
6.35112e-07
0.00056407
6.35602e-07
0.000564567
6.36092e-07
0.000565065
6.36582e-07
0.000565562
6.37071e-07
0.00056606
6.37559e-07
0.000566558
6.38047e-07
0.000567056
6.38534e-07
0.000567555
6.3902e-07
0.000568053
6.39506e-07
0.000568552
6.39991e-07
0.000569051
6.40476e-07
0.000569551
6.4096e-07
0.000570051
6.41443e-07
0.00057055
6.41926e-07
0.000571051
6.42407e-07
0.000571551
6.42889e-07
0.000572052
6.43369e-07
0.000572552
6.43849e-07
0.000573054
6.44328e-07
0.000573555
6.44806e-07
0.000574057
6.45284e-07
0.000574558
6.45761e-07
0.00057506
6.46237e-07
0.000575563
6.46713e-07
0.000576065
6.47188e-07
0.000576568
6.47663e-07
0.000577071
6.48137e-07
0.000577574
6.4861e-07
0.000578078
6.49083e-07
0.000578581
6.49555e-07
0.000579085
6.50026e-07
0.000579589
6.50497e-07
0.000580094
6.50966e-07
0.000580598
6.51435e-07
0.000581103
6.51904e-07
0.000581608
6.52371e-07
0.000582113
6.52838e-07
0.000582619
6.53304e-07
0.000583125
6.53769e-07
0.000583631
6.54233e-07
0.000584137
6.54697e-07
0.000584643
6.5516e-07
0.00058515
6.55623e-07
0.000585657
6.56084e-07
0.000586164
6.56545e-07
0.000586671
6.57005e-07
0.000587179
6.57464e-07
0.000587687
6.57923e-07
0.000588195
6.58381e-07
0.000588703
6.58838e-07
0.000589211
6.59295e-07
0.00058972
6.59751e-07
0.000590229
6.60206e-07
0.000590738
6.6066e-07
0.000591247
6.61114e-07
0.000591757
6.61566e-07
0.000592267
6.62018e-07
0.000592777
6.62469e-07
0.000593287
6.6292e-07
0.000593797
6.63369e-07
0.000594308
6.63818e-07
0.000594819
6.64266e-07
0.00059533
6.64713e-07
0.000595841
6.65159e-07
0.000596353
6.65604e-07
0.000596864
6.66048e-07
0.000597376
6.66492e-07
0.000597888
6.66935e-07
0.000598401
6.67377e-07
0.000598913
6.67818e-07
0.000599426
6.68259e-07
0.000599939
6.68698e-07
0.000600452
6.69137e-07
0.000600966
6.69575e-07
0.000601479
6.70012e-07
0.000601993
6.70449e-07
0.000602507
6.70884e-07
0.000603022
6.71319e-07
0.000603536
6.71753e-07
0.000604051
6.72186e-07
0.000604566
6.72619e-07
0.000605081
6.7305e-07
0.000605596
6.73481e-07
0.000606112
6.73911e-07
0.000606627
6.7434e-07
0.000607143
6.74768e-07
0.000607659
6.75195e-07
0.000608176
6.75621e-07
0.000608692
6.76047e-07
0.000609209
6.76472e-07
0.000609726
6.76895e-07
0.000610243
6.77318e-07
0.00061076
6.7774e-07
0.000611278
6.78161e-07
0.000611796
6.78581e-07
0.000612314
6.79e-07
0.000612832
6.79418e-07
0.00061335
6.79835e-07
0.000613869
6.80252e-07
0.000614387
6.80667e-07
0.000614906
6.81082e-07
0.000615425
6.81496e-07
0.000615945
6.81909e-07
0.000616464
6.82321e-07
0.000616984
6.82732e-07
0.000617504
6.83142e-07
0.000618024
6.83551e-07
0.000618544
6.8396e-07
0.000619064
6.84367e-07
0.000619585
6.84774e-07
0.000620106
6.85179e-07
0.000620627
6.85584e-07
0.000621148
6.85988e-07
0.00062167
6.86391e-07
0.000622191
6.86793e-07
0.000622713
6.87194e-07
0.000623235
6.87594e-07
0.000623757
6.87993e-07
0.00062428
6.88391e-07
0.000624802
6.88788e-07
0.000625325
6.89184e-07
0.000625848
6.8958e-07
0.000626371
6.89974e-07
0.000626894
6.90368e-07
0.000627417
6.9076e-07
0.000627941
6.91152e-07
0.000628465
6.91543e-07
0.000628989
6.91932e-07
0.000629513
6.92321e-07
0.000630037
6.92709e-07
0.000630562
6.93095e-07
0.000631086
6.93481e-07
0.000631611
6.93865e-07
0.000632136
6.94249e-07
0.000632662
6.94632e-07
0.000633187
6.95013e-07
0.000633712
6.95394e-07
0.000634238
6.95774e-07
0.000634764
6.96152e-07
0.00063529
6.9653e-07
0.000635816
6.96907e-07
0.000636343
6.97283e-07
0.000636869
6.97657e-07
0.000637396
6.98031e-07
0.000637923
6.98404e-07
0.00063845
6.98776e-07
0.000638977
6.99147e-07
0.000639505
6.99517e-07
0.000640032
6.99885e-07
0.00064056
7.00253e-07
0.000641088
7.0062e-07
0.000641616
7.00986e-07
0.000642144
7.0135e-07
0.000642673
7.01714e-07
0.000643201
7.02076e-07
0.00064373
7.02438e-07
0.000644259
7.02798e-07
0.000644788
7.03158e-07
0.000645317
7.03516e-07
0.000645846
7.03874e-07
0.000646376
7.0423e-07
0.000646905
7.04586e-07
0.000647435
7.0494e-07
0.000647965
7.05293e-07
0.000648495
7.05645e-07
0.000649026
7.05996e-07
0.000649556
7.06346e-07
0.000650087
7.06695e-07
0.000650617
7.07043e-07
0.000651148
7.0739e-07
0.000651679
7.07736e-07
0.00065221
7.08081e-07
0.000652742
7.08425e-07
0.000653273
7.08767e-07
0.000653805
7.09109e-07
0.000654336
7.09449e-07
0.000654868
7.09788e-07
0.0006554
7.10127e-07
0.000655932
7.10464e-07
0.000656465
7.108e-07
0.000656997
7.11134e-07
0.00065753
7.11468e-07
0.000658063
7.11801e-07
0.000658595
7.12132e-07
0.000659128
7.12462e-07
0.000659662
7.12792e-07
0.000660195
7.1312e-07
0.000660728
7.13446e-07
0.000661262
7.13772e-07
0.000661796
7.14096e-07
0.000662329
7.14419e-07
0.000662863
7.14741e-07
0.000663397
7.15062e-07
0.000663932
7.15381e-07
0.000664466
7.157e-07
0.000665001
7.16017e-07
0.000665535
7.16332e-07
0.00066607
7.16647e-07
0.000666605
7.1696e-07
0.00066714
7.17272e-07
0.000667675
7.17583e-07
0.00066821
7.17892e-07
0.000668746
7.182e-07
0.000669281
7.18507e-07
0.000669817
7.18812e-07
0.000670352
7.19116e-07
0.000670888
7.19418e-07
0.000671424
7.19719e-07
0.000671961
7.20019e-07
0.000672497
7.20317e-07
0.000673033
7.20614e-07
0.00067357
7.20909e-07
0.000674106
7.21202e-07
0.000674643
7.21494e-07
0.00067518
7.21784e-07
0.000675717
7.22073e-07
0.000676254
7.22359e-07
0.000676791
7.22645e-07
0.000677329
7.22928e-07
0.000677866
7.23209e-07
0.000678404
7.23489e-07
0.000678941
7.23766e-07
0.000679479
7.24042e-07
0.000680017
7.24315e-07
0.000680555
7.24587e-07
0.000681093
7.24856e-07
0.000681632
7.25122e-07
0.00068217
7.25387e-07
0.000682709
7.25649e-07
0.000683247
7.25908e-07
0.000683786
7.26165e-07
0.000684325
7.26419e-07
0.000684864
7.2667e-07
0.000685403
7.26918e-07
0.000685943
7.27163e-07
0.000686482
7.27405e-07
0.000687022
7.27644e-07
0.000687561
7.27879e-07
0.000688101
7.28111e-07
0.000688641
7.28339e-07
0.000689181
7.28563e-07
0.000689721
7.28783e-07
0.000690262
7.28998e-07
0.000690802
7.2921e-07
0.000691343
7.29416e-07
0.000691884
7.29617e-07
0.000692425
7.29813e-07
0.000692966
7.30003e-07
0.000693507
7.30188e-07
0.000694049
7.30366e-07
0.00069459
7.30538e-07
0.000695132
7.30703e-07
0.000695674
7.3086e-07
0.000696216
7.3101e-07
0.000696758
7.31151e-07
0.000697301
7.31285e-07
0.000697844
7.31409e-07
0.000698386
7.31523e-07
0.00069893
7.31627e-07
0.000699473
7.31721e-07
0.000700017
7.31803e-07
0.000700561
7.31873e-07
0.000701105
7.31931e-07
0.000701649
7.31974e-07
0.000702194
7.32004e-07
0.000702739
7.32018e-07
0.000703284
7.32015e-07
0.00070383
7.31995e-07
0.000704376
7.31957e-07
0.000704922
7.31899e-07
0.000705469
7.3182e-07
0.000706016
7.31718e-07
0.000706563
7.31593e-07
0.000707111
7.31441e-07
0.00070766
7.31263e-07
0.000708208
7.31055e-07
0.000708758
7.30816e-07
0.000709308
7.30544e-07
0.000709859
7.30237e-07
0.00071041
7.29892e-07
0.000710962
7.29507e-07
0.000711514
7.29078e-07
0.000712068
7.28602e-07
0.000712622
7.28078e-07
0.000713177
7.275e-07
0.000713733
7.26866e-07
0.00071429
7.2617e-07
0.000714848
7.2541e-07
0.000715407
7.24581e-07
0.000715967
7.23677e-07
0.000716528
7.22693e-07
0.000717091
7.21624e-07
0.000717655
7.20463e-07
0.000718221
7.19202e-07
0.000718789
7.17835e-07
0.000719358
7.16353e-07
0.000719929
7.14748e-07
0.000720502
7.13011e-07
0.000721077
7.11132e-07
0.000721654
7.09097e-07
0.000722234
7.06897e-07
0.000722816
7.04519e-07
0.000723402
7.0195e-07
0.00072399
6.99175e-07
0.000724582
6.96178e-07
0.000725177
6.92943e-07
0.000725775
6.89456e-07
0.000726378
6.85697e-07
0.000726985
6.81646e-07
0.000727597
6.77289e-07
0.000728214
6.72606e-07
0.000728835
6.6758e-07
0.000729463
6.62199e-07
0.000730096
6.56458e-07
0.000730736
6.50355e-07
0.000731383
6.43901e-07
0.000732036
6.37112e-07
0.000732697
6.30001e-07
0.000733365
6.22548e-07
0.000734042
6.14635e-07
0.000734728
6.05923e-07
0.000735424
5.95645e-07
0.000736134
5.82263e-07
0.000736863
5.62947e-07
0.000737622
5.33237e-07
0.000738427
4.88298e-07
0.0007393
4.19348e-07
2.84412e-07
0.00196297
0.000440707
0.00178862
0.000586355
0.00156695
0.000484106
0.00137465
0.000357599
0.0012248
0.000255309
0.00111275
0.000180634
0.00103019
0.000128479
0.000969335
9.27344e-05
0.000924017
6.83267e-05
0.000889726
5.15709e-05
0.000863276
3.99311e-05
0.000842459
3.17054e-05
0.000825752
2.57673e-05
0.000812107
2.13769e-05
0.00080079
1.805e-05
0.000791285
1.54686e-05
0.000783217
1.34218e-05
0.00077631
1.17679e-05
0.000770357
1.04093e-05
0.000765197
9.27783e-06
0.000760706
8.32426e-06
0.000756784
7.51243e-06
0.00075335
6.81515e-06
0.000750339
6.21164e-06
0.000747696
5.68569e-06
0.000745376
5.22454e-06
0.00074334
4.81799e-06
0.000741556
4.45778e-06
0.000739997
4.13719e-06
0.000738638
3.85065e-06
0.000737459
3.59357e-06
0.000736442
3.36208e-06
0.000735571
3.15293e-06
0.000734833
2.96337e-06
0.000734216
2.79108e-06
0.000733708
2.63407e-06
0.000733301
2.49068e-06
0.000732985
2.35948e-06
0.000732754
2.23927e-06
0.0007326
2.12898e-06
0.000732517
2.02768e-06
0.0007325
1.93453e-06
0.000732542
1.84878e-06
0.00073264
1.76973e-06
0.00073279
1.69678e-06
0.000732986
1.62935e-06
0.000733227
1.56695e-06
0.000733508
1.5091e-06
0.000733827
1.4554e-06
0.000734181
1.40548e-06
0.000734568
1.35902e-06
0.000734986
1.31575e-06
0.000735432
1.2754e-06
0.000735905
1.23776e-06
0.000736403
1.20263e-06
0.000736923
1.16981e-06
0.000737466
1.13914e-06
0.000738029
1.11047e-06
0.000738611
1.08366e-06
0.000739211
1.05859e-06
0.000739828
1.03515e-06
0.000740461
1.01324e-06
0.000741108
9.92797e-07
0.000741768
9.73764e-07
0.000742442
9.56136e-07
0.000743127
9.39946e-07
0.000743822
9.25275e-07
0.000744527
9.12252e-07
0.00074524
9.01047e-07
0.00074596
8.9185e-07
0.000746685
8.84841e-07
0.000747414
8.80135e-07
0.000748144
8.77743e-07
0.000748876
8.77536e-07
0.000749606
8.7923e-07
0.000750335
8.82409e-07
0.000751061
8.86584e-07
0.000751784
8.9125e-07
0.000752504
8.95958e-07
0.000753222
9.00365e-07
0.000753937
9.0425e-07
0.000754651
9.07508e-07
0.000755362
9.1013e-07
0.000756073
9.12166e-07
0.000756784
9.13699e-07
0.000757493
9.14817e-07
0.000758203
9.15602e-07
0.000758913
9.16119e-07
0.000759622
9.16417e-07
0.000760333
9.16532e-07
0.000761043
9.16489e-07
0.000761755
9.16305e-07
0.000762466
9.15989e-07
0.000763179
9.15549e-07
0.000763893
9.14988e-07
0.000764607
9.14309e-07
0.000765323
9.13514e-07
0.00076604
9.12604e-07
0.000766758
9.1158e-07
0.000767477
9.10443e-07
0.000768197
9.09195e-07
0.00076892
9.07837e-07
0.000769643
9.06373e-07
0.000770369
9.04812e-07
0.000771096
9.03169e-07
0.000771824
9.01472e-07
0.000772555
8.99769e-07
0.000773287
8.98128e-07
0.000774021
8.96642e-07
0.000774756
8.95424e-07
0.000775492
8.946e-07
0.000776229
8.9429e-07
0.000776966
8.94585e-07
0.000777703
8.95526e-07
0.00077844
8.97095e-07
0.000779176
8.99209e-07
0.000779911
9.01738e-07
0.000780644
9.04523e-07
0.000781376
9.07401e-07
0.000782106
9.10232e-07
0.000782836
9.12909e-07
0.000783564
9.15363e-07
0.000784291
9.17564e-07
0.000785018
9.19507e-07
0.000785744
9.21203e-07
0.000786469
9.22675e-07
0.000787195
9.23945e-07
0.00078792
9.25034e-07
0.000788645
9.25962e-07
0.00078937
9.26741e-07
0.000790096
9.27382e-07
0.000790822
9.27895e-07
0.000791548
9.28284e-07
0.000792274
9.28556e-07
0.000793001
9.28714e-07
0.000793729
9.28763e-07
0.000794458
9.28711e-07
0.000795187
9.28564e-07
0.000795917
9.28335e-07
0.000796648
9.28038e-07
0.00079738
9.27693e-07
0.000798113
9.27325e-07
0.000798847
9.26963e-07
0.000799582
9.26642e-07
0.000800317
9.26397e-07
0.000801054
9.26265e-07
0.000801791
9.26276e-07
0.000802529
9.2645e-07
0.000803267
9.26795e-07
0.000804006
9.27302e-07
0.000804745
9.27947e-07
0.000805484
9.28698e-07
0.000806223
9.29518e-07
0.000806963
9.30369e-07
0.000807702
9.31224e-07
0.000808442
9.3206e-07
0.000809182
9.32865e-07
0.000809923
9.33634e-07
0.000810663
9.34364e-07
0.000811404
9.35056e-07
0.000812145
9.35711e-07
0.000812886
9.36328e-07
0.000813628
9.36909e-07
0.00081437
9.37452e-07
0.000815113
9.37959e-07
0.000815856
9.38428e-07
0.0008166
9.38862e-07
0.000817344
9.3926e-07
0.000818089
9.39625e-07
0.000818834
9.39958e-07
0.00081958
9.40264e-07
0.000820326
9.40548e-07
0.000821074
9.40817e-07
0.000821821
9.41081e-07
0.00082257
9.41353e-07
0.000823319
9.41647e-07
0.000824068
9.41983e-07
0.000824819
9.42378e-07
0.000825569
9.42849e-07
0.00082632
9.43408e-07
0.000827072
9.4406e-07
0.000827824
9.448e-07
0.000828576
9.45613e-07
0.000829329
9.46477e-07
0.000830081
9.47364e-07
0.000830834
9.48243e-07
0.000831587
9.49087e-07
0.000832341
9.49872e-07
0.000833095
9.50581e-07
0.000833849
9.51204e-07
0.000834604
9.51737e-07
0.00083536
9.52181e-07
0.000836116
9.52541e-07
0.000836873
9.52828e-07
0.000837631
9.53053e-07
0.000838389
9.53232e-07
0.000839148
9.53384e-07
0.000839908
9.53526e-07
0.000840669
9.53675e-07
0.000841431
9.53845e-07
0.000842193
9.54045e-07
0.000842956
9.54283e-07
0.00084372
9.5456e-07
0.000844485
9.54878e-07
0.00084525
9.55239e-07
0.000846016
9.55643e-07
0.000846782
9.56093e-07
0.00084755
9.56593e-07
0.000848317
9.57146e-07
0.000849086
9.57754e-07
0.000849854
9.58417e-07
0.000850624
9.59132e-07
0.000851393
9.5989e-07
0.000852163
9.60681e-07
0.000852934
9.61492e-07
0.000853705
9.62311e-07
0.000854476
9.63126e-07
0.000855248
9.63928e-07
0.00085602
9.64709e-07
0.000856793
9.65466e-07
0.000857566
9.66197e-07
0.00085834
9.66901e-07
0.000859114
9.67579e-07
0.000859889