/*--------------------------------*- C++ -*----------------------------------*\
| =========                 |                                                 |
| \\      /  F ield         | OpenFOAM: The Open Source CFD Toolbox           |
|  \\    /   O peration     | Version:  2512                                  |
|   \\  /    A nd           | Website:  www.openfoam.com                      |
|    \\/     M anipulation  |                                                 |
\*---------------------------------------------------------------------------*/
FoamFile
{
    version     2.0;
    format      ascii;
    arch        "LSB;label=32;scalar=64";
    class       surfaceScalarField;
    location    "0.003";
    object      phiB;
}
// * * * * * * * * * * * * * * * * * * * * * * * * * * * * * * * * * * * * * //

dimensions      [1 2 -2 0 0 -1 0];

oriented        oriented;

internalField   nonuniform List<scalar> 
198900
(
0.000494088
0.0400542
0.000461635
0.0400325
0.000414284
0.0400474
0.000367949
0.0400463
0.000329108
0.0400388
0.000298485
0.0400306
0.000275218
0.0400233
0.000258012
0.0400172
0.000245517
0.0400125
0.000236534
0.040009
0.000230095
0.0400064
0.000225465
0.0400046
0.000222107
0.0400034
0.000219642
0.0400025
0.000217805
0.0400018
0.000216416
0.0400014
0.000215349
0.0400011
0.000214518
0.0400008
0.000213864
0.0400007
0.000213345
0.0400005
0.00021293
0.0400004
0.000212597
0.0400003
0.00021233
0.0400003
0.000212116
0.0400002
0.000211947
0.0400002
0.000211814
0.0400001
0.000211712
0.0400001
0.000211637
0.0400001
0.000211585
0.0400001
0.000211552
0.04
0.000211537
0.04
0.000211537
0.04
0.00021155
0.04
0.000211576
0.04
0.000211613
0.04
0.00021166
0.04
0.000211716
0.0399999
0.000211781
0.0399999
0.000211853
0.0399999
0.000211933
0.0399999
0.000212019
0.0399999
0.000212111
0.0399999
0.000212208
0.0399999
0.00021231
0.0399999
0.000212416
0.0399999
0.000212527
0.0399999
0.000212641
0.0399999
0.000212759
0.0399999
0.00021288
0.0399999
0.000213004
0.0399999
0.000213131
0.0399999
0.000213261
0.0399999
0.000213393
0.0399999
0.000213528
0.0399999
0.000213665
0.0399999
0.000213805
0.0399999
0.000213947
0.0399999
0.000214091
0.0399999
0.000214237
0.0399999
0.000214385
0.0399999
0.000214535
0.0399998
0.000214687
0.0399998
0.00021484
0.0399998
0.000214996
0.0399998
0.000215154
0.0399998
0.000215312
0.0399998
0.000215473
0.0399998
0.000215633
0.0399998
0.000215795
0.0399998
0.000215955
0.0399998
0.000216115
0.0399998
0.000216272
0.0399998
0.000216426
0.0399998
0.000216575
0.0399999
0.00021672
0.0399999
0.000216859
0.0399999
0.000216992
0.0399999
0.00021712
0.0399999
0.000217242
0.0399999
0.000217359
0.0399999
0.000217472
0.0399999
0.00021758
0.0399999
0.000217686
0.0399999
0.000217789
0.0399999
0.000217889
0.0399999
0.000217988
0.0399999
0.000218085
0.0399999
0.00021818
0.0399999
0.000218275
0.0399999
0.000218369
0.0399999
0.000218461
0.0399999
0.000218554
0.0399999
0.000218645
0.0399999
0.000218736
0.0399999
0.000218827
0.0399999
0.000218918
0.0399999
0.000219008
0.0399999
0.000219099
0.0399999
0.00021919
0.0399999
0.00021928
0.0399999
0.000219371
0.0399999
0.000219463
0.0399999
0.000219555
0.0399999
0.000219647
0.0399999
0.000219741
0.0399999
0.000219834
0.0399999
0.000219929
0.0399999
0.000220024
0.0399999
0.000220121
0.0399999
0.000220217
0.0399999
0.000220314
0.0399999
0.000220411
0.0399999
0.000220508
0.0399999
0.000220605
0.0399999
0.0002207
0.0399999
0.000220794
0.0399999
0.000220887
0.0399999
0.000220978
0.0399999
0.000221067
0.0399999
0.000221155
0.0399999
0.000221241
0.0399999
0.000221326
0.0399999
0.000221411
0.0399999
0.000221494
0.0399999
0.000221576
0.0399999
0.000221658
0.0399999
0.000221739
0.0399999
0.00022182
0.0399999
0.000221901
0.0399999
0.000221982
0.0399999
0.000222062
0.0399999
0.000222142
0.0399999
0.000222223
0.0399999
0.000222303
0.0399999
0.000222384
0.0399999
0.000222464
0.0399999
0.000222545
0.0399999
0.000222627
0.0399999
0.000222708
0.0399999
0.00022279
0.0399999
0.000222873
0.0399999
0.000222955
0.0399999
0.000223039
0.0399999
0.000223122
0.0399999
0.000223206
0.0399999
0.000223291
0.0399999
0.000223375
0.0399999
0.00022346
0.0399999
0.000223545
0.0399999
0.000223629
0.0399999
0.000223714
0.0399999
0.000223798
0.0399999
0.000223882
0.0399999
0.000223965
0.0399999
0.000224049
0.0399999
0.000224132
0.0399999
0.000224215
0.0399999
0.000224298
0.0399999
0.000224381
0.0399999
0.000224463
0.0399999
0.000224546
0.0399999
0.000224628
0.0399999
0.000224711
0.0399999
0.000224793
0.0399999
0.000224875
0.0399999
0.000224958
0.0399999
0.00022504
0.0399999
0.000225123
0.0399999
0.000225206
0.0399999
0.000225289
0.0399999
0.000225372
0.0399999
0.000225455
0.0399999
0.000225538
0.0399999
0.000225622
0.0399999
0.000225705
0.0399999
0.000225789
0.0399999
0.000225873
0.0399999
0.000225958
0.0399999
0.000226042
0.0399999
0.000226126
0.0399999
0.00022621
0.0399999
0.000226294
0.0399999
0.000226378
0.0399999
0.000226462
0.0399999
0.000226546
0.0399999
0.000226629
0.0399999
0.000226713
0.0399999
0.000226796
0.0399999
0.000226879
0.0399999
0.000226962
0.0399999
0.000227046
0.0399999
0.000227129
0.0399999
0.000227212
0.0399999
0.000227296
0.0399999
0.00022738
0.0399999
0.000227464
0.0399999
0.000227548
0.0399999
0.000227633
0.0399999
0.000227718
0.0399999
0.000227803
0.0399999
0.000227888
0.0399999
0.000227974
0.0399999
0.00022806
0.0399999
0.000228146
0.0399999
0.000228232
0.0399999
0.000228318
0.0399999
0.000228404
0.0399999
0.000228491
0.0399999
0.000228578
0.0399999
0.000228664
0.0399999
0.000228751
0.0399999
0.000228837
0.0399999
0.000228924
0.0399999
0.000229011
0.0399999
0.000229097
0.0399999
0.000229184
0.0399999
0.00022927
0.0399999
0.000229356
0.0399999
0.000229443
0.0399999
0.000229529
0.0399999
0.000229615
0.0399999
0.000229701
0.0399999
0.000229788
0.0399999
0.000229874
0.0399999
0.000229961
0.0399999
0.000230047
0.0399999
0.000230134
0.0399999
0.00023022
0.0399999
0.000230307
0.0399999
0.000230394
0.0399999
0.000230481
0.0399999
0.000230569
0.0399999
0.000230656
0.0399999
0.000230743
0.0399999
0.000230831
0.0399999
0.000230919
0.0399999
0.000231007
0.0399999
0.000231095
0.0399999
0.000231183
0.0399999
0.000231271
0.0399999
0.000231359
0.0399999
0.000231448
0.0399999
0.000231536
0.0399999
0.000231625
0.0399999
0.000231713
0.0399999
0.000231802
0.0399999
0.000231891
0.0399999
0.00023198
0.0399999
0.000232069
0.0399999
0.000232158
0.0399999
0.000232248
0.0399999
0.000232337
0.0399999
0.000232427
0.0399999
0.000232516
0.0399999
0.000232606
0.0399999
0.000232696
0.0399999
0.000232786
0.0399999
0.000232876
0.0399999
0.000232966
0.0399999
0.000233057
0.0399999
0.000233147
0.0399999
0.000233238
0.0399999
0.000233328
0.0399999
0.000233419
0.0399999
0.00023351
0.0399999
0.000233601
0.0399999
0.000233692
0.0399999
0.000233783
0.0399999
0.000233874
0.0399999
0.000233965
0.0399999
0.000234057
0.0399999
0.000234148
0.0399999
0.00023424
0.0399999
0.000234332
0.0399999
0.000234423
0.0399999
0.000234515
0.0399999
0.000234607
0.0399999
0.000234699
0.0399999
0.000234791
0.0399999
0.000234884
0.0399999
0.000234976
0.0399999
0.000235069
0.0399999
0.000235161
0.0399999
0.000235254
0.0399999
0.000235347
0.0399999
0.00023544
0.0399999
0.000235533
0.0399999
0.000235626
0.0399999
0.000235719
0.0399999
0.000235813
0.0399999
0.000235906
0.0399999
0.000235999
0.0399999
0.000236093
0.0399999
0.000236187
0.0399999
0.000236281
0.0399999
0.000236375
0.0399999
0.000236469
0.0399999
0.000236563
0.0399999
0.000236657
0.0399999
0.000236751
0.0399999
0.000236846
0.0399999
0.00023694
0.0399999
0.000237035
0.0399999
0.00023713
0.0399999
0.000237224
0.0399999
0.000237319
0.0399999
0.000237414
0.0399999
0.00023751
0.0399999
0.000237605
0.0399999
0.0002377
0.0399999
0.000237796
0.0399999
0.000237891
0.0399999
0.000237987
0.0399999
0.000238083
0.0399999
0.000238178
0.0399999
0.000238274
0.0399999
0.000238371
0.0399999
0.000238467
0.0399999
0.000238563
0.0399999
0.000238659
0.0399999
0.000238756
0.0399999
0.000238853
0.0399999
0.000238949
0.0399999
0.000239046
0.0399999
0.000239143
0.0399999
0.00023924
0.0399999
0.000239337
0.0399999
0.000239435
0.0399999
0.000239532
0.0399999
0.000239629
0.0399999
0.000239727
0.0399999
0.000239825
0.0399999
0.000239923
0.0399999
0.000240021
0.0399999
0.000240119
0.0399999
0.000240217
0.0399999
0.000240315
0.0399999
0.000240413
0.0399999
0.000240512
0.0399999
0.000240611
0.0399999
0.000240709
0.0399999
0.000240808
0.0399999
0.000240907
0.0399999
0.000241006
0.0399999
0.000241105
0.0399999
0.000241204
0.0399999
0.000241304
0.0399999
0.000241403
0.0399999
0.000241503
0.0399999
0.000241603
0.0399999
0.000241703
0.0399999
0.000241803
0.0399999
0.000241903
0.0399999
0.000242003
0.0399999
0.000242103
0.0399999
0.000242204
0.0399999
0.000242304
0.0399999
0.000242405
0.0399999
0.000242506
0.0399999
0.000242606
0.0399999
0.000242707
0.0399999
0.000242809
0.0399999
0.00024291
0.0399999
0.000243011
0.0399999
0.000243113
0.0399999
0.000243214
0.0399999
0.000243316
0.0399999
0.000243418
0.0399999
0.00024352
0.0399999
0.000243622
0.0399999
0.000243724
0.0399999
0.000243826
0.0399999
0.000243929
0.0399999
0.000244031
0.0399999
0.000244134
0.0399999
0.000244237
0.0399999
0.00024434
0.0399999
0.000244443
0.0399999
0.000244546
0.0399999
0.000244649
0.0399999
0.000244752
0.0399999
0.000244856
0.0399999
0.000244959
0.0399999
0.000245063
0.0399999
0.000245167
0.0399999
0.000245271
0.0399999
0.000245375
0.0399999
0.000245479
0.0399999
0.000245584
0.0399999
0.000245688
0.0399999
0.000245793
0.0399999
0.000245897
0.0399999
0.000246002
0.0399999
0.000246107
0.0399999
0.000246212
0.0399999
0.000246317
0.0399999
0.000246423
0.0399999
0.000246528
0.0399999
0.000246634
0.0399999
0.000246739
0.0399999
0.000246845
0.0399999
0.000246951
0.0399999
0.000247057
0.0399999
0.000247163
0.0399999
0.00024727
0.0399999
0.000247376
0.0399999
0.000247483
0.0399999
0.000247589
0.0399999
0.000247696
0.0399999
0.000247803
0.0399999
0.00024791
0.0399999
0.000248017
0.0399999
0.000248124
0.0399999
0.000248232
0.0399999
0.000248339
0.0399999
0.000248447
0.0399999
0.000248555
0.0399999
0.000248663
0.0399999
0.000248771
0.0399999
0.000248879
0.0399999
0.000248987
0.0399999
0.000249096
0.0399999
0.000249204
0.0399999
0.000249313
0.0399999
0.000249421
0.0399999
0.00024953
0.0399999
0.000249639
0.0399999
0.000249749
0.0399999
0.000249858
0.0399999
0.000249967
0.0399999
0.000250077
0.0399999
0.000250186
0.0399999
0.000250296
0.0399999
0.000250406
0.0399999
0.000250516
0.0399999
0.000250626
0.0399999
0.000250737
0.0399999
0.000250847
0.0399999
0.000250958
0.0399999
0.000251068
0.0399999
0.000251179
0.0399999
0.00025129
0.0399999
0.000251401
0.0399999
0.000251512
0.0399999
0.000251623
0.0399999
0.000251735
0.0399999
0.000251846
0.0399999
0.000251958
0.0399999
0.00025207
0.0399999
0.000252182
0.0399999
0.000252294
0.0399999
0.000252406
0.0399999
0.000252518
0.0399999
0.000252631
0.0399999
0.000252743
0.0399999
0.000252856
0.0399999
0.000252969
0.0399999
0.000253082
0.0399999
0.000253195
0.0399999
0.000253308
0.0399999
0.000253421
0.0399999
0.000253535
0.0399999
0.000253648
0.0399999
0.000253762
0.0399999
0.000253876
0.0399999
0.00025399
0.0399999
0.000254104
0.0399999
0.000254218
0.0399999
0.000254333
0.0399999
0.000254447
0.0399999
0.000254562
0.0399999
0.000254676
0.0399999
0.000254791
0.0399999
0.000254906
0.0399999
0.000255021
0.0399999
0.000255137
0.0399999
0.000255252
0.0399999
0.000255367
0.0399999
0.000255483
0.0399999
0.000255599
0.0399999
0.000255715
0.0399999
0.000255831
0.0399999
0.000255947
0.0399999
0.000256063
0.0399999
0.000256179
0.0399999
0.000256296
0.0399999
0.000256413
0.0399999
0.000256529
0.0399999
0.000256646
0.0399999
0.000256763
0.0399999
0.00025688
0.0399999
0.000256998
0.0399999
0.000257115
0.0399999
0.000257233
0.0399999
0.00025735
0.0399999
0.000257468
0.0399999
0.000257586
0.0399999
0.000257704
0.0399999
0.000257822
0.0399999
0.000257941
0.0399999
0.000258059
0.0399999
0.000258177
0.0399999
0.000258296
0.0399999
0.000258415
0.0399999
0.000258534
0.0399999
0.000258653
0.0399999
0.000258772
0.0399999
0.000258892
0.0399999
0.000259011
0.0399999
0.000259131
0.0399999
0.00025925
0.0399999
0.00025937
0.0399999
0.00025949
0.0399999
0.00025961
0.0399999
0.00025973
0.0399999
0.000259851
0.0399999
0.000259971
0.0399999
0.000260092
0.0399999
0.000260212
0.0399999
0.000260333
0.0399999
0.000260454
0.0399999
0.000260575
0.0399999
0.000260697
0.0399999
0.000260818
0.0399999
0.000260939
0.0399999
0.000261061
0.0399999
0.000261183
0.0399999
0.000261305
0.0399999
0.000261427
0.0399999
0.000261549
0.0399999
0.000261671
0.0399999
0.000261793
0.0399999
0.000261916
0.0399999
0.000262039
0.0399999
0.000262161
0.0399999
0.000262284
0.0399999
0.000262407
0.0399999
0.00026253
0.0399999
0.000262654
0.0399999
0.000262777
0.0399999
0.0002629
0.0399999
0.000263024
0.0399999
0.000263148
0.0399999
0.000263272
0.0399999
0.000263396
0.0399999
0.00026352
0.0399999
0.000263644
0.0399999
0.000263768
0.0399999
0.000263893
0.0399999
0.000264018
0.0399999
0.000264142
0.0399999
0.000264267
0.0399999
0.000264392
0.0399999
0.000264517
0.0399999
0.000264643
0.0399999
0.000264768
0.0399999
0.000264894
0.0399999
0.000265019
0.0399999
0.000265145
0.0399999
0.000265271
0.0399999
0.000265397
0.0399999
0.000265523
0.0399999
0.000265649
0.0399999
0.000265776
0.0399999
0.000265902
0.0399999
0.000266029
0.0399999
0.000266155
0.0399999
0.000266282
0.0399999
0.000266409
0.0399999
0.000266536
0.0399999
0.000266664
0.0399999
0.000266791
0.0399999
0.000266919
0.0399999
0.000267046
0.0399999
0.000267174
0.0399999
0.000267302
0.0399999
0.00026743
0.0399999
0.000267558
0.0399999
0.000267686
0.0399999
0.000267814
0.0399999
0.000267943
0.0399999
0.000268072
0.0399999
0.0002682
0.0399999
0.000268329
0.0399999
0.000268458
0.0399999
0.000268587
0.0399999
0.000268716
0.0399999
0.000268846
0.0399999
0.000268975
0.0399999
0.000269105
0.0399999
0.000269234
0.0399999
0.000269364
0.0399999
0.000269494
0.0399999
0.000269624
0.0399999
0.000269754
0.0399999
0.000269885
0.0399999
0.000270015
0.0399999
0.000270146
0.0399999
0.000270276
0.0399999
0.000270407
0.0399999
0.000270538
0.0399999
0.000270669
0.0399999
0.0002708
0.0399999
0.000270931
0.0399999
0.000271063
0.0399999
0.000271194
0.0399999
0.000271326
0.0399999
0.000271457
0.0399999
0.000271589
0.0399999
0.000271721
0.0399999
0.000271853
0.0399999
0.000271985
0.0399999
0.000272118
0.0399999
0.00027225
0.0399999
0.000272383
0.0399999
0.000272515
0.0399999
0.000272648
0.0399999
0.000272781
0.0399999
0.000272914
0.0399999
0.000273047
0.0399999
0.00027318
0.0399999
0.000273314
0.0399999
0.000273447
0.0399999
0.000273581
0.0399999
0.000273715
0.0399999
0.000273848
0.0399999
0.000273982
0.0399999
0.000274116
0.0399999
0.000274251
0.0399999
0.000274385
0.0399999
0.000274519
0.0399999
0.000274654
0.0399999
0.000274788
0.0399999
0.000274923
0.0399999
0.000275058
0.0399999
0.000275193
0.0399999
0.000275328
0.0399999
0.000275463
0.0399999
0.000275599
0.0399999
0.000275734
0.0399999
0.00027587
0.0399999
0.000276005
0.0399999
0.000276141
0.0399999
0.000276277
0.0399999
0.000276413
0.0399999
0.000276549
0.0399999
0.000276685
0.0399999
0.000276822
0.0399999
0.000276958
0.0399999
0.000277094
0.0399999
0.000277231
0.0399999
0.000277368
0.0399999
0.000277505
0.0399999
0.000277642
0.0399999
0.000277779
0.0399999
0.000277916
0.0399999
0.000278053
0.0399999
0.000278191
0.0399999
0.000278328
0.0399999
0.000278466
0.0399999
0.000278604
0.0399999
0.000278742
0.0399999
0.00027888
0.0399999
0.000279018
0.0399999
0.000279156
0.0399999
0.000279294
0.0399999
0.000279433
0.0399999
0.000279571
0.0399999
0.00027971
0.0399999
0.000279848
0.0399999
0.000279987
0.0399999
0.000280126
0.0399999
0.000280265
0.0399999
0.000280404
0.0399999
0.000280544
0.0399999
0.000280683
0.0399999
0.000280822
0.0399999
0.000280962
0.0399999
0.000281102
0.0399999
0.000281241
0.0399999
0.000281381
0.0399999
0.000281521
0.0399999
0.000281661
0.0399999
0.000281802
0.0399999
0.000281942
0.0399999
0.000282082
0.0399999
0.000282223
0.0399999
0.000282363
0.0399999
0.000282504
0.0399999
0.000282645
0.0399999
0.000282786
0.0399999
0.000282927
0.0399999
0.000283068
0.0399999
0.000283209
0.0399999
0.00028335
0.0399999
0.000283492
0.0399999
0.000283633
0.0399999
0.000283775
0.0399999
0.000283917
0.0399999
0.000284059
0.0399999
0.0002842
0.0399999
0.000284342
0.0399999
0.000284485
0.0399999
0.000284627
0.0399999
0.000284769
0.0399999
0.000284912
0.0399999
0.000285054
0.0399999
0.000285197
0.0399999
0.000285339
0.0399999
0.000285482
0.0399999
0.000285625
0.0399999
0.000285768
0.0399999
0.000285911
0.0399999
0.000286054
0.0399999
0.000286198
0.0399999
0.000286341
0.0399999
0.000286484
0.0399999
0.000286628
0.0399999
0.000286772
0.0399999
0.000286915
0.0399999
0.000287059
0.0399999
0.000287203
0.0399999
0.000287347
0.0399999
0.000287491
0.0399999
0.000287635
0.0399999
0.00028778
0.0399999
0.000287924
0.0399999
0.000288069
0.0399999
0.000288213
0.0399999
0.000288358
0.0399999
0.000288503
0.0399999
0.000288648
0.0399999
0.000288793
0.0399999
0.000288938
0.0399999
0.000289083
0.0399999
0.000289228
0.0399999
0.000289373
0.0399999
0.000289519
0.0399999
0.000289664
0.0399999
0.00028981
0.0399999
0.000289955
0.0399999
0.000290101
0.0399999
0.000290247
0.0399999
0.000290393
0.0399999
0.000290539
0.0399999
0.000290685
0.0399999
0.000290831
0.0399999
0.000290977
0.0399999
0.000291124
0.0399999
0.00029127
0.0399999
0.000291417
0.0399999
0.000291563
0.0399999
0.00029171
0.0399999
0.000291857
0.0399999
0.000292004
0.0399999
0.00029215
0.0399999
0.000292297
0.0399999
0.000292445
0.0399999
0.000292592
0.0399999
0.000292739
0.0399999
0.000292886
0.0399999
0.000293034
0.0399999
0.000293181
0.0399999
0.000293329
0.0399999
0.000293477
0.0399999
0.000293624
0.0399999
0.000293772
0.0399999
0.00029392
0.0399999
0.000294068
0.0399999
0.000294216
0.0399999
0.000294364
0.0399999
0.000294512
0.0399999
0.000294661
0.0399999
0.000294809
0.0399999
0.000294958
0.0399999
0.000295106
0.0399999
0.000295255
0.0399999
0.000295403
0.0399999
0.000295552
0.0399999
0.000295701
0.0399999
0.00029585
0.0399999
0.000295999
0.0399999
0.000296148
0.0399999
0.000296297
0.0399999
0.000296446
0.0399999
0.000296595
0.0399999
0.000296745
0.0399999
0.000296894
0.0399999
0.000297043
0.0399999
0.000297193
0.0399999
0.000297343
0.0399999
0.000297492
0.0399999
0.000297642
0.0399999
0.000297792
0.0399999
0.000297942
0.0399999
0.000298092
0.0399999
0.000298242
0.0399998
0.000298392
0.0399998
0.000298542
0.0399998
0.000298692
0.0399998
0.000298842
0.0399998
0.000298993
0.0399998
0.000299143
0.0399998
0.000299293
0.0399998
0.000299444
0.0399998
0.000299595
0.0399998
0.000299745
0.0399998
0.000299896
0.0399998
0.000300047
0.0399998
0.000300197
0.0399998
0.000300348
0.0399998
0.000300499
0.0399998
0.00030065
0.0399998
0.000300801
0.0399998
0.000300952
0.0399998
0.000301104
0.0399998
0.000301255
0.0399998
0.000301406
0.0399998
0.000301557
0.0399998
0.000301709
0.0399998
0.00030186
0.0399998
0.000302012
0.0399998
0.000302163
0.0399998
0.000302315
0.0399998
0.000302467
0.0399998
0.000302618
0.0399998
0.00030277
0.0399998
0.000302922
0.0399998
0.000303074
0.0399998
0.000303225
0.0399998
0.000303377
0.0399998
0.000303529
0.0399998
0.000303681
0.0399998
0.000303833
0.0399998
0.000303986
0.0399998
0.000304138
0.0399998
0.00030429
0.0399998
0.000304442
0.0399998
0.000304594
0.0399998
0.000304747
0.0399998
0.000304899
0.0399998
0.000305051
0.0399998
0.000305204
0.0399998
0.000305356
0.0399998
0.000305509
0.0399998
0.000305661
0.0399998
0.000305814
0.0399998
0.000305966
0.0399998
0.000306119
0.0399998
0.000306272
0.0399998
0.000306424
0.0399998
0.000306577
0.0399998
0.00030673
0.0399998
0.000306883
0.0399998
0.000307035
0.0399998
0.000307188
0.0399998
0.000307341
0.0399998
0.000307494
0.0399998
0.000307647
0.0399998
0.000307799
0.0399998
0.000307952
0.0399998
0.000308105
0.0399998
0.000308258
0.0399998
0.000308411
0.0399998
0.000308564
0.0399998
0.000308717
0.0399998
0.00030887
0.0399998
0.000309023
0.0399998
0.000309176
0.0399998
0.000309329
0.0399998
0.000309481
0.0399998
0.000309634
0.0399998
0.000309787
0.0399998
0.00030994
0.0399998
0.000310093
0.0399998
0.000310246
0.0399998
0.000310399
0.0399998
0.000310552
0.0399998
0.000310705
0.0399998
0.000310857
0.0399998
0.00031101
0.0399998
0.000311163
0.0399998
0.000311316
0.0399998
0.000311469
0.0399998
0.000311621
0.0399998
0.000311774
0.0399998
0.000311927
0.0399998
0.000312079
0.0399998
0.000312232
0.0399998
0.000312384
0.0399998
0.000312537
0.0399998
0.000312689
0.0399998
0.000312841
0.0399998
0.000312994
0.0399998
0.000313146
0.0399998
0.000313298
0.0399998
0.00031345
0.0399998
0.000313602
0.0399998
0.000313754
0.0399998
0.000313906
0.0399998
0.000314058
0.0399998
0.00031421
0.0399998
0.000314361
0.0399998
0.000314513
0.0399998
0.000314664
0.0399998
0.000314815
0.0399998
0.000314967
0.0399998
0.000315118
0.0399998
0.000315269
0.0399998
0.000315419
0.0399998
0.00031557
0.0399998
0.000315721
0.0399998
0.000315871
0.0399998
0.000316022
0.0399998
0.000316172
0.0399998
0.000316322
0.0399999
0.000316472
0.0399999
0.000316621
0.0399999
0.000316771
0.0399999
0.00031692
0.0399999
0.000317069
0.0399999
0.000317218
0.0399999
0.000317367
0.0399999
0.000317515
0.0399999
0.000317664
0.0399999
0.000317812
0.0399999
0.000317959
0.0399999
0.000318107
0.0399999
0.000318254
0.0399999
0.000318401
0.0399999
0.000318548
0.0399999
0.000318695
0.0399999
0.000318841
0.0399999
0.000318987
0.0399999
0.000319132
0.0399999
0.000319278
0.0399999
0.000319423
0.0399999
0.000319567
0.0399999
0.000319711
0.0399999
0.000319855
0.0399999
0.000319999
0.0399999
0.000320142
0.0399999
0.000320284
0.0399999
0.000320426
0.0399999
0.000320568
0.0399999
0.000320709
0.0399999
0.00032085
0.0399999
0.000320991
0.0399999
0.00032113
0.0399999
0.00032127
0.0399999
0.000321408
0.0399999
0.000321546
0.0399999
0.000321684
0.0399999
0.000321821
0.0399999
0.000321957
0.0399999
0.000322092
0.0399999
0.000322227
0.0399999
0.000322361
0.0399999
0.000322494
0.0399999
0.000322626
0.0399999
0.000322758
0.0399999
0.000322889
0.0399999
0.000323018
0.0399999
0.000323147
0.0399999
0.000323274
0.0399999
0.000323401
0.0399999
0.000323526
0.0399999
0.00032365
0.0399999
0.000323772
0.0399999
0.000323893
0.0399999
0.000324013
0.0399999
0.000324131
0.0399999
0.000324247
0.0399999
0.000324361
0.0399999
0.000324473
0.0399999
0.000324583
0.0399999
0.00032469
0.0399999
0.000324794
0.0399999
0.000324895
0.0399999
0.000324993
0.0399999
0.000325087
0.0399999
0.000325176
0.0399999
0.000325261
0.0399999
0.00032534
0.0399999
0.000325412
0.0399999
0.000325476
0.0399999
0.000325532
0.0399999
0.000325576
0.04
0.000325607
0.04
0.000325622
0.04
0.000325618
0.04
0.00032559
0.04
0.000325533
0.0400001
0.000325442
0.0400001
0.000325313
0.0400001
0.00032514
0.0400002
0.000324923
0.0400002
0.000324675
0.0400002
0.000324399
0.0400003
0.0400005
0.000556371
0.040029
0.000567823
0.040021
0.000571955
0.0400432
0.000564379
0.0400539
0.000549832
0.0400534
0.000533186
0.0400473
0.000517243
0.0400392
0.00050325
0.0400312
0.000491554
0.0400242
0.00048204
0.0400185
0.000474401
0.0400141
0.000468288
0.0400107
0.000463381
0.0400083
0.000459413
0.0400064
0.000456171
0.0400051
0.000453496
0.0400041
0.000451263
0.0400033
0.000449382
0.0400027
0.000447783
0.0400023
0.000446414
0.0400019
0.000445234
0.0400016
0.000444211
0.0400014
0.000443321
0.0400012
0.000442544
0.040001
0.000441864
0.0400008
0.000441268
0.0400007
0.000440744
0.0400006
0.000440284
0.0400005
0.000439881
0.0400005
0.000439528
0.0400004
0.000439219
0.0400003
0.00043895
0.0400003
0.000438717
0.0400002
0.000438517
0.0400002
0.000438345
0.0400001
0.000438201
0.0400001
0.000438081
0.0400001
0.000437983
0.04
0.000437906
0.04
0.000437848
0.04
0.000437806
0.04
0.000437781
0.0399999
0.000437769
0.0399999
0.000437771
0.0399999
0.000437785
0.0399999
0.00043781
0.0399999
0.000437846
0.0399999
0.000437891
0.0399998
0.000437945
0.0399998
0.000438007
0.0399998
0.000438077
0.0399998
0.000438155
0.0399998
0.000438239
0.0399998
0.000438329
0.0399998
0.000438426
0.0399998
0.000438528
0.0399998
0.000438635
0.0399998
0.000438747
0.0399997
0.000438864
0.0399997
0.000438985
0.0399997
0.00043911
0.0399997
0.000439239
0.0399997
0.000439371
0.0399997
0.000439508
0.0399997
0.000439647
0.0399997
0.000439789
0.0399997
0.000439933
0.0399997
0.00044008
0.0399997
0.000440228
0.0399997
0.000440376
0.0399997
0.000440525
0.0399997
0.000440673
0.0399997
0.000440818
0.0399997
0.000440962
0.0399997
0.000441101
0.0399997
0.000441237
0.0399997
0.000441369
0.0399997
0.000441496
0.0399997
0.000441619
0.0399998
0.000441737
0.0399998
0.000441852
0.0399998
0.000441964
0.0399998
0.000442072
0.0399998
0.000442179
0.0399998
0.000442283
0.0399998
0.000442385
0.0399998
0.000442486
0.0399998
0.000442586
0.0399998
0.000442684
0.0399998
0.000442782
0.0399998
0.000442879
0.0399998
0.000442975
0.0399998
0.000443071
0.0399998
0.000443166
0.0399998
0.000443261
0.0399998
0.000443356
0.0399998
0.000443451
0.0399998
0.000443546
0.0399998
0.000443641
0.0399998
0.000443736
0.0399998
0.000443831
0.0399998
0.000443927
0.0399998
0.000444023
0.0399998
0.000444119
0.0399998
0.000444217
0.0399998
0.000444315
0.0399998
0.000444413
0.0399998
0.000444513
0.0399998
0.000444613
0.0399998
0.000444713
0.0399998
0.000444814
0.0399998
0.000444915
0.0399998
0.000445016
0.0399998
0.000445116
0.0399998
0.000445216
0.0399998
0.000445315
0.0399998
0.000445412
0.0399998
0.000445508
0.0399998
0.000445602
0.0399998
0.000445695
0.0399998
0.000445787
0.0399998
0.000445877
0.0399998
0.000445966
0.0399998
0.000446054
0.0399998
0.000446141
0.0399998
0.000446227
0.0399998
0.000446313
0.0399998
0.000446398
0.0399998
0.000446483
0.0399998
0.000446567
0.0399998
0.000446652
0.0399998
0.000446736
0.0399998
0.00044682
0.0399998
0.000446904
0.0399998
0.000446988
0.0399998
0.000447072
0.0399998
0.000447156
0.0399998
0.000447241
0.0399998
0.000447325
0.0399998
0.000447411
0.0399998
0.000447496
0.0399998
0.000447582
0.0399998
0.000447668
0.0399998
0.000447755
0.0399998
0.000447842
0.0399998
0.000447929
0.0399998
0.000448016
0.0399998
0.000448104
0.0399998
0.000448192
0.0399998
0.000448279
0.0399998
0.000448367
0.0399998
0.000448454
0.0399998
0.000448541
0.0399998
0.000448628
0.0399998
0.000448714
0.0399998
0.0004488
0.0399998
0.000448886
0.0399998
0.000448972
0.0399998
0.000449058
0.0399998
0.000449143
0.0399998
0.000449229
0.0399998
0.000449314
0.0399998
0.000449399
0.0399998
0.000449484
0.0399998
0.000449569
0.0399998
0.000449654
0.0399998
0.000449739
0.0399998
0.000449823
0.0399998
0.000449908
0.0399998
0.000449993
0.0399998
0.000450078
0.0399998
0.000450164
0.0399998
0.000450249
0.0399998
0.000450334
0.0399998
0.00045042
0.0399998
0.000450505
0.0399998
0.000450591
0.0399998
0.000450676
0.0399998
0.000450762
0.0399998
0.000450848
0.0399998
0.000450933
0.0399998
0.000451019
0.0399998
0.000451104
0.0399998
0.000451189
0.0399998
0.000451274
0.0399998
0.000451359
0.0399998
0.000451443
0.0399998
0.000451527
0.0399998
0.000451612
0.0399998
0.000451696
0.0399998
0.00045178
0.0399998
0.000451864
0.0399998
0.000451948
0.0399998
0.000452033
0.0399998
0.000452117
0.0399998
0.000452202
0.0399998
0.000452287
0.0399998
0.000452372
0.0399998
0.000452458
0.0399998
0.000452543
0.0399998
0.000452629
0.0399998
0.000452715
0.0399998
0.000452801
0.0399998
0.000452888
0.0399998
0.000452974
0.0399998
0.000453061
0.0399998
0.000453147
0.0399998
0.000453234
0.0399998
0.00045332
0.0399998
0.000453407
0.0399998
0.000453493
0.0399998
0.00045358
0.0399998
0.000453666
0.0399998
0.000453752
0.0399998
0.000453838
0.0399998
0.000453924
0.0399998
0.00045401
0.0399998
0.000454096
0.0399998
0.000454182
0.0399998
0.000454267
0.0399998
0.000454353
0.0399998
0.000454438
0.0399998
0.000454523
0.0399998
0.000454609
0.0399998
0.000454694
0.0399998
0.000454779
0.0399998
0.000454865
0.0399998
0.00045495
0.0399998
0.000455036
0.0399998
0.000455121
0.0399998
0.000455207
0.0399998
0.000455292
0.0399998
0.000455378
0.0399998
0.000455464
0.0399998
0.000455549
0.0399998
0.000455635
0.0399998
0.000455721
0.0399998
0.000455807
0.0399998
0.000455893
0.0399998
0.000455979
0.0399998
0.000456066
0.0399998
0.000456152
0.0399998
0.000456238
0.0399998
0.000456324
0.0399998
0.00045641
0.0399998
0.000456497
0.0399998
0.000456583
0.0399998
0.000456669
0.0399998
0.000456756
0.0399998
0.000456842
0.0399998
0.000456929
0.0399998
0.000457015
0.0399998
0.000457102
0.0399998
0.000457188
0.0399998
0.000457275
0.0399998
0.000457362
0.0399998
0.000457449
0.0399998
0.000457536
0.0399998
0.000457622
0.0399998
0.000457709
0.0399998
0.000457796
0.0399998
0.000457883
0.0399998
0.00045797
0.0399998
0.000458057
0.0399998
0.000458144
0.0399998
0.000458231
0.0399998
0.000458318
0.0399998
0.000458405
0.0399998
0.000458492
0.0399998
0.00045858
0.0399998
0.000458667
0.0399998
0.000458754
0.0399998
0.000458841
0.0399998
0.000458928
0.0399998
0.000459015
0.0399998
0.000459103
0.0399998
0.00045919
0.0399998
0.000459277
0.0399998
0.000459364
0.0399998
0.000459452
0.0399998
0.000459539
0.0399998
0.000459626
0.0399998
0.000459714
0.0399998
0.000459801
0.0399998
0.000459889
0.0399998
0.000459976
0.0399998
0.000460064
0.0399998
0.000460151
0.0399998
0.000460239
0.0399998
0.000460327
0.0399998
0.000460414
0.0399998
0.000460502
0.0399998
0.000460589
0.0399998
0.000460677
0.0399998
0.000460765
0.0399998
0.000460852
0.0399998
0.00046094
0.0399998
0.000461028
0.0399998
0.000461115
0.0399998
0.000461203
0.0399998
0.000461291
0.0399998
0.000461379
0.0399998
0.000461466
0.0399998
0.000461554
0.0399998
0.000461642
0.0399998
0.00046173
0.0399998
0.000461818
0.0399998
0.000461905
0.0399998
0.000461993
0.0399998
0.000462081
0.0399998
0.000462169
0.0399998
0.000462257
0.0399998
0.000462345
0.0399998
0.000462433
0.0399998
0.000462521
0.0399998
0.000462609
0.0399998
0.000462697
0.0399998
0.000462785
0.0399998
0.000462873
0.0399998
0.000462961
0.0399998
0.000463049
0.0399998
0.000463137
0.0399998
0.000463225
0.0399998
0.000463313
0.0399998
0.000463402
0.0399998
0.00046349
0.0399998
0.000463578
0.0399998
0.000463666
0.0399998
0.000463754
0.0399998
0.000463843
0.0399998
0.000463931