/*--------------------------------*- C++ -*----------------------------------*\
| =========                 |                                                 |
| \\      /  F ield         | OpenFOAM: The Open Source CFD Toolbox           |
|  \\    /   O peration     | Version:  2512                                  |
|   \\  /    A nd           | Website:  www.openfoam.com                      |
|    \\/     M anipulation  |                                                 |
\*---------------------------------------------------------------------------*/
FoamFile
{
    version     2.0;
    format      ascii;
    arch        "LSB;label=32;scalar=64";
    class       volVectorField;
    location    "0.003";
    object      U;
}
// * * * * * * * * * * * * * * * * * * * * * * * * * * * * * * * * * * * * * //

dimensions      [0 1 -1 0 0 0 0];

internalField   nonuniform List<vector> 
100000
(
(0.756595 0.129828 0)
(0.651926 0.0998492 0)
(0.48075 0.0496253 0)
(0.368304 0.0263974 0)
(0.301022 0.0149878 0)
(0.258861 0.00870275 0)
(0.23139 0.00521937 0)
(0.212989 0.00329297 0)
(0.200276 0.00220188 0)
(0.191187 0.00156068 0)
(0.184464 0.00116796 0)
(0.179329 0.000916226 0)
(0.175296 0.000746776 0)
(0.172051 0.000626995 0)
(0.169389 0.000538419 0)
(0.167171 0.000470348 0)
(0.165301 0.000416387 0)
(0.16371 0.000372567 0)
(0.162346 0.000336319 0)
(0.16117 0.000305904 0)
(0.160152 0.000280089 0)
(0.159268 0.000257971 0)
(0.158499 0.000238869 0)
(0.157829 0.000222254 0)
(0.157245 0.000207712 0)
(0.156737 0.000194913 0)
(0.156295 0.000183587 0)
(0.155912 0.000173519 0)
(0.155581 0.000164528 0)
(0.155297 0.000156466 0)
(0.155054 0.00014921 0)
(0.154849 0.000142654 0)
(0.154677 0.000136712 0)
(0.154536 0.000131307 0)
(0.154423 0.00012638 0)
(0.154336 0.000121879 0)
(0.154271 0.000117761 0)
(0.154228 0.00011399 0)
(0.154204 0.000110534 0)
(0.154198 0.000107364 0)
(0.154208 0.000104455 0)
(0.154233 0.000101783 0)
(0.154272 9.93268e-05 0)
(0.154324 9.70658e-05 0)
(0.154387 9.49823e-05 0)
(0.154461 9.30598e-05 0)
(0.154545 9.12832e-05 0)
(0.154639 8.9639e-05 0)
(0.154741 8.81147e-05 0)
(0.154851 8.66996e-05 0)
(0.154968 8.53844e-05 0)
(0.155093 8.41612e-05 0)
(0.155224 8.30231e-05 0)
(0.155361 8.19635e-05 0)
(0.155504 8.09765e-05 0)
(0.155651 8.00564e-05 0)
(0.155804 7.91982e-05 0)
(0.155962 7.8397e-05 0)
(0.156124 7.76486e-05 0)
(0.156289 7.6949e-05 0)
(0.156459 7.62945e-05 0)
(0.156632 7.56813e-05 0)
(0.156809 7.51066e-05 0)
(0.156988 7.45682e-05 0)
(0.157171 7.40651e-05 0)
(0.157356 7.35973e-05 0)
(0.157544 7.3167e-05 0)
(0.157734 7.2778e-05 0)
(0.157925 7.24362e-05 0)
(0.158119 7.21489e-05 0)
(0.158314 7.19234e-05 0)
(0.15851 7.17654e-05 0)
(0.158707 7.16773e-05 0)
(0.158904 7.16565e-05 0)
(0.1591 7.16946e-05 0)
(0.159297 7.17787e-05 0)
(0.159493 7.18924e-05 0)
(0.159688 7.20191e-05 0)
(0.159883 7.21443e-05 0)
(0.160077 7.22575e-05 0)
(0.160271 7.23526e-05 0)
(0.160464 7.24278e-05 0)
(0.160656 7.24843e-05 0)
(0.160849 7.25254e-05 0)
(0.161041 7.25547e-05 0)
(0.161234 7.25758e-05 0)
(0.161426 7.25912e-05 0)
(0.161618 7.26031e-05 0)
(0.161811 7.26127e-05 0)
(0.162003 7.26208e-05 0)
(0.162196 7.26279e-05 0)
(0.162388 7.26341e-05 0)
(0.162581 7.26394e-05 0)
(0.162774 7.26438e-05 0)
(0.162967 7.26472e-05 0)
(0.163161 7.26495e-05 0)
(0.163354 7.26506e-05 0)
(0.163548 7.26502e-05 0)
(0.163742 7.26483e-05 0)
(0.163936 7.26447e-05 0)
(0.164131 7.26392e-05 0)
(0.164326 7.26317e-05 0)
(0.164521 7.26219e-05 0)
(0.164717 7.26094e-05 0)
(0.164912 7.25942e-05 0)
(0.165109 7.25765e-05 0)
(0.165305 7.25573e-05 0)
(0.165502 7.25382e-05 0)
(0.1657 7.2522e-05 0)
(0.165897 7.25124e-05 0)
(0.166095 7.2514e-05 0)
(0.166294 7.25312e-05 0)
(0.166492 7.25677e-05 0)
(0.16669 7.26254e-05 0)
(0.166888 7.2704e-05 0)
(0.167086 7.28009e-05 0)
(0.167284 7.29117e-05 0)
(0.167482 7.30306e-05 0)
(0.167679 7.31522e-05 0)
(0.167875 7.32718e-05 0)
(0.168072 7.33861e-05 0)
(0.168268 7.34935e-05 0)
(0.168464 7.35932e-05 0)
(0.16866 7.36855e-05 0)
(0.168855 7.37714e-05 0)
(0.16905 7.38517e-05 0)
(0.169246 7.39274e-05 0)
(0.169441 7.39992e-05 0)
(0.169636 7.40679e-05 0)
(0.169831 7.41337e-05 0)
(0.170027 7.4197e-05 0)
(0.170222 7.42578e-05 0)
(0.170417 7.43163e-05 0)
(0.170612 7.43725e-05 0)
(0.170808 7.44264e-05 0)
(0.171003 7.4478e-05 0)
(0.171199 7.45273e-05 0)
(0.171395 7.45745e-05 0)
(0.171591 7.46196e-05 0)
(0.171787 7.46631e-05 0)
(0.171983 7.47052e-05 0)
(0.172179 7.47468e-05 0)
(0.172376 7.47887e-05 0)
(0.172573 7.48319e-05 0)
(0.17277 7.48777e-05 0)
(0.172967 7.49272e-05 0)
(0.173164 7.49817e-05 0)
(0.173362 7.50417e-05 0)
(0.173559 7.51078e-05 0)
(0.173757 7.51795e-05 0)
(0.173954 7.5256e-05 0)
(0.174152 7.53362e-05 0)
(0.174349 7.54187e-05 0)
(0.174547 7.55023e-05 0)
(0.174744 7.55861e-05 0)
(0.174942 7.56695e-05 0)
(0.175139 7.57522e-05 0)
(0.175337 7.58342e-05 0)
(0.175534 7.59155e-05 0)
(0.175732 7.59963e-05 0)
(0.17593 7.60766e-05 0)
(0.176127 7.61564e-05 0)
(0.176325 7.62358e-05 0)
(0.176523 7.63147e-05 0)
(0.176721 7.63932e-05 0)
(0.176918 7.64712e-05 0)
(0.177116 7.65487e-05 0)
(0.177314 7.66257e-05 0)
(0.177512 7.67022e-05 0)
(0.17771 7.67783e-05 0)
(0.177909 7.6854e-05 0)
(0.178107 7.69294e-05 0)
(0.178305 7.70047e-05 0)
(0.178504 7.708e-05 0)
(0.178703 7.71558e-05 0)
(0.178901 7.72324e-05 0)
(0.1791 7.73106e-05 0)
(0.179299 7.73909e-05 0)
(0.179498 7.7474e-05 0)
(0.179697 7.75603e-05 0)
(0.179896 7.76502e-05 0)
(0.180095 7.77434e-05 0)
(0.180295 7.78396e-05 0)
(0.180494 7.79381e-05 0)
(0.180693 7.80377e-05 0)
(0.180892 7.81376e-05 0)
(0.181091 7.82367e-05 0)
(0.181291 7.83344e-05 0)
(0.18149 7.843e-05 0)
(0.181689 7.85235e-05 0)
(0.181888 7.86145e-05 0)
(0.182088 7.87033e-05 0)
(0.182287 7.879e-05 0)
(0.182487 7.88749e-05 0)
(0.182687 7.89583e-05 0)
(0.182887 7.9041e-05 0)
(0.183087 7.91233e-05 0)
(0.183287 7.92059e-05 0)
(0.183487 7.92893e-05 0)
(0.183688 7.93739e-05 0)
(0.183888 7.946e-05 0)
(0.184089 7.95477e-05 0)
(0.18429 7.9637e-05 0)
(0.18449 7.97279e-05 0)
(0.184691 7.98203e-05 0)
(0.184892 7.99141e-05 0)
(0.185094 8.00096e-05 0)
(0.185295 8.01068e-05 0)
(0.185496 8.02058e-05 0)
(0.185698 8.03069e-05 0)
(0.185899 8.041e-05 0)
(0.186101 8.05152e-05 0)
(0.186302 8.06221e-05 0)
(0.186504 8.07305e-05 0)
(0.186706 8.08399e-05 0)
(0.186907 8.095e-05 0)
(0.187109 8.10602e-05 0)
(0.187311 8.11704e-05 0)
(0.187513 8.12803e-05 0)
(0.187715 8.13898e-05 0)
(0.187917 8.14989e-05 0)
(0.188119 8.16077e-05 0)
(0.188321 8.1716e-05 0)
(0.188523 8.18242e-05 0)
(0.188725 8.1932e-05 0)
(0.188927 8.20397e-05 0)
(0.18913 8.21473e-05 0)
(0.189332 8.22547e-05 0)
(0.189535 8.23621e-05 0)
(0.189737 8.24694e-05 0)
(0.18994 8.25767e-05 0)
(0.190143 8.26842e-05 0)
(0.190346 8.27919e-05 0)
(0.190549 8.28999e-05 0)
(0.190752 8.30084e-05 0)
(0.190955 8.31176e-05 0)
(0.191158 8.32275e-05 0)
(0.191362 8.33383e-05 0)
(0.191565 8.345e-05 0)
(0.191769 8.35626e-05 0)
(0.191972 8.36761e-05 0)
(0.192176 8.37903e-05 0)
(0.19238 8.3905e-05 0)
(0.192584 8.40202e-05 0)
(0.192788 8.41356e-05 0)
(0.192992 8.42512e-05 0)
(0.193196 8.43669e-05 0)
(0.1934 8.44826e-05 0)
(0.193605 8.45984e-05 0)
(0.193809 8.47144e-05 0)
(0.194014 8.48307e-05 0)
(0.194219 8.49474e-05 0)
(0.194423 8.50646e-05 0)
(0.194628 8.51824e-05 0)
(0.194833 8.53008e-05 0)
(0.195038 8.54199e-05 0)
(0.195243 8.55396e-05 0)
(0.195449 8.566e-05 0)
(0.195654 8.57809e-05 0)
(0.195859 8.59024e-05 0)
(0.196065 8.60243e-05 0)
(0.196271 8.61467e-05 0)
(0.196476 8.62696e-05 0)
(0.196682 8.6393e-05 0)
(0.196888 8.65169e-05 0)
(0.197094 8.66414e-05 0)
(0.1973 8.67664e-05 0)
(0.197506 8.6892e-05 0)
(0.197713 8.70181e-05 0)
(0.197919 8.71447e-05 0)
(0.198125 8.72717e-05 0)
(0.198332 8.7399e-05 0)
(0.198539 8.75267e-05 0)
(0.198745 8.76546e-05 0)
(0.198952 8.77827e-05 0)
(0.199159 8.79109e-05 0)
(0.199366 8.80394e-05 0)
(0.199573 8.81682e-05 0)
(0.19978 8.82972e-05 0)
(0.199988 8.84267e-05 0)
(0.200195 8.85565e-05 0)
(0.200403 8.86869e-05 0)
(0.20061 8.88177e-05 0)
(0.200818 8.89491e-05 0)
(0.201026 8.90809e-05 0)
(0.201234 8.92133e-05 0)
(0.201442 8.93461e-05 0)
(0.20165 8.94793e-05 0)
(0.201858 8.9613e-05 0)
(0.202066 8.97471e-05 0)
(0.202275 8.98815e-05 0)
(0.202483 9.00164e-05 0)
(0.202692 9.01517e-05 0)
(0.2029 9.02874e-05 0)
(0.203109 9.04235e-05 0)
(0.203318 9.05601e-05 0)
(0.203527 9.0697e-05 0)
(0.203736 9.08343e-05 0)
(0.203945 9.09719e-05 0)
(0.204154 9.11099e-05 0)
(0.204364 9.12482e-05 0)
(0.204573 9.13869e-05 0)
(0.204783 9.15259e-05 0)
(0.204992 9.16653e-05 0)
(0.205202 9.1805e-05 0)
(0.205412 9.1945e-05 0)
(0.205622 9.20854e-05 0)
(0.205832 9.2226e-05 0)
(0.206042 9.2367e-05 0)
(0.206252 9.25084e-05 0)
(0.206462 9.265e-05 0)
(0.206673 9.2792e-05 0)
(0.206883 9.29343e-05 0)
(0.207094 9.30769e-05 0)
(0.207305 9.32199e-05 0)
(0.207515 9.33632e-05 0)
(0.207726 9.35068e-05 0)
(0.207937 9.36508e-05 0)
(0.208149 9.37951e-05 0)
(0.20836 9.39397e-05 0)
(0.208571 9.40846e-05 0)
(0.208783 9.42298e-05 0)
(0.208994 9.43754e-05 0)
(0.209206 9.45212e-05 0)
(0.209418 9.46674e-05 0)
(0.209629 9.48139e-05 0)
(0.209841 9.49607e-05 0)
(0.210054 9.51077e-05 0)
(0.210266 9.52551e-05 0)
(0.210478 9.54028e-05 0)
(0.21069 9.55507e-05 0)
(0.210903 9.5699e-05 0)
(0.211115 9.58475e-05 0)
(0.211328 9.59963e-05 0)
(0.211541 9.61454e-05 0)
(0.211754 9.62948e-05 0)
(0.211967 9.64445e-05 0)
(0.21218 9.65945e-05 0)
(0.212393 9.67448e-05 0)
(0.212607 9.68954e-05 0)
(0.21282 9.70463e-05 0)
(0.213034 9.71974e-05 0)
(0.213247 9.73489e-05 0)
(0.213461 9.75006e-05 0)
(0.213675 9.76526e-05 0)
(0.213889 9.78048e-05 0)
(0.214103 9.79574e-05 0)
(0.214317 9.81101e-05 0)
(0.214532 9.82632e-05 0)
(0.214746 9.84165e-05 0)
(0.214961 9.857e-05 0)
(0.215175 9.87238e-05 0)
(0.21539 9.88779e-05 0)
(0.215605 9.90322e-05 0)
(0.21582 9.91868e-05 0)
(0.216035 9.93417e-05 0)
(0.21625 9.94967e-05 0)
(0.216466 9.96521e-05 0)
(0.216681 9.98076e-05 0)
(0.216897 9.99634e-05 0)
(0.217112 0.000100119 0)
(0.217328 0.000100276 0)
(0.217544 0.000100432 0)
(0.21776 0.000100589 0)
(0.217976 0.000100746 0)
(0.218192 0.000100903 0)
(0.218409 0.00010106 0)
(0.218625 0.000101218 0)
(0.218842 0.000101376 0)
(0.219058 0.000101534 0)
(0.219275 0.000101692 0)
(0.219492 0.000101851 0)
(0.219709 0.00010201 0)
(0.219926 0.000102169 0)
(0.220143 0.000102328 0)
(0.220361 0.000102487 0)
(0.220578 0.000102647 0)
(0.220796 0.000102807 0)
(0.221014 0.000102967 0)
(0.221231 0.000103127 0)
(0.221449 0.000103287 0)
(0.221667 0.000103448 0)
(0.221886 0.000103609 0)
(0.222104 0.00010377 0)
(0.222322 0.000103931 0)
(0.222541 0.000104092 0)
(0.22276 0.000104253 0)
(0.222978 0.000104415 0)
(0.223197 0.000104577 0)
(0.223416 0.000104739 0)
(0.223635 0.000104901 0)
(0.223855 0.000105063 0)
(0.224074 0.000105226 0)
(0.224293 0.000105389 0)
(0.224513 0.000105551 0)
(0.224733 0.000105714 0)
(0.224953 0.000105878 0)
(0.225173 0.000106041 0)
(0.225393 0.000106204 0)
(0.225613 0.000106368 0)
(0.225833 0.000106532 0)
(0.226054 0.000106695 0)
(0.226274 0.000106859 0)
(0.226495 0.000107024 0)
(0.226716 0.000107188 0)
(0.226937 0.000107352 0)
(0.227158 0.000107517 0)
(0.227379 0.000107681 0)
(0.2276 0.000107846 0)
(0.227822 0.000108011 0)
(0.228043 0.000108176 0)
(0.228265 0.000108341 0)
(0.228487 0.000108506 0)
(0.228709 0.000108671 0)
(0.228931 0.000108836 0)
(0.229153 0.000109002 0)
(0.229375 0.000109167 0)
(0.229598 0.000109333 0)
(0.22982 0.000109498 0)
(0.230043 0.000109664 0)
(0.230266 0.00010983 0)
(0.230488 0.000109996 0)
(0.230712 0.000110162 0)
(0.230935 0.000110328 0)
(0.231158 0.000110494 0)
(0.231381 0.00011066 0)
(0.231605 0.000110826 0)
(0.231829 0.000110993 0)
(0.232052 0.000111159 0)
(0.232276 0.000111326 0)
(0.2325 0.000111492 0)
(0.232724 0.000111658 0)
(0.232949 0.000111825 0)
(0.233173 0.000111991 0)
(0.233398 0.000112158 0)
(0.233622 0.000112324 0)
(0.233847 0.000112491 0)
(0.234072 0.000112657 0)
(0.234297 0.000112824 0)
(0.234522 0.000112991 0)
(0.234748 0.000113157 0)
(0.234973 0.000113324 0)
(0.235199 0.00011349 0)
(0.235424 0.000113657 0)
(0.23565 0.000113824 0)
(0.235876 0.00011399 0)
(0.236102 0.000114157 0)
(0.236328 0.000114323 0)
(0.236555 0.00011449 0)
(0.236781 0.000114657 0)
(0.237008 0.000114823 0)
(0.237234 0.00011499 0)
(0.237461 0.000115156 0)
(0.237688 0.000115323 0)
(0.237915 0.000115489 0)
(0.238142 0.000115655 0)
(0.23837 0.000115822 0)
(0.238597 0.000115988 0)
(0.238825 0.000116154 0)
(0.239053 0.000116321 0)
(0.239281 0.000116487 0)
(0.239509 0.000116653 0)
(0.239737 0.000116819 0)
(0.239965 0.000116985 0)
(0.240193 0.000117151 0)
(0.240422 0.000117317 0)
(0.24065 0.000117483 0)
(0.240879 0.000117649 0)
(0.241108 0.000117815 0)
(0.241337 0.00011798 0)
(0.241566 0.000118146 0)
(0.241796 0.000118311 0)
(0.242025 0.000118477 0)
(0.242255 0.000118642 0)
(0.242484 0.000118807 0)
(0.242714 0.000118973 0)
(0.242944 0.000119138 0)
(0.243174 0.000119303 0)
(0.243405 0.000119468 0)
(0.243635 0.000119633 0)
(0.243865 0.000119798 0)
(0.244096 0.000119962 0)
(0.244327 0.000120127 0)
(0.244558 0.000120292 0)
(0.244789 0.000120456 0)
(0.24502 0.000120621 0)
(0.245251 0.000120785 0)
(0.245483 0.000120949 0)
(0.245714 0.000121114 0)
(0.245946 0.000121278 0)
(0.246178 0.000121442 0)
(0.24641 0.000121606 0)
(0.246642 0.00012177 0)
(0.246874 0.000121933 0)
(0.247106 0.000122097 0)
(0.247339 0.000122261 0)
(0.247571 0.000122425 0)
(0.247804 0.000122588 0)
(0.248037 0.000122752 0)
(0.24827 0.000122915 0)
(0.248503 0.000123079 0)
(0.248736 0.000123242 0)
(0.24897 0.000123405 0)
(0.249203 0.000123569 0)
(0.249437 0.000123732 0)
(0.249671 0.000123895 0)
(0.249905 0.000124058 0)
(0.250139 0.00012422 0)
(0.250373 0.000124383 0)
(0.250607 0.000124546 0)
(0.250842 0.000124708 0)
(0.251077 0.000124871 0)
(0.251311 0.000125033 0)
(0.251546 0.000125195 0)
(0.251781 0.000125358 0)
(0.252016 0.00012552 0)
(0.252252 0.000125682 0)
(0.252487 0.000125844 0)
(0.252723 0.000126005 0)
(0.252958 0.000126167 0)
(0.253194 0.000126328 0)
(0.25343 0.00012649 0)
(0.253666 0.000126651 0)
(0.253903 0.000126812 0)
(0.254139 0.000126973 0)
(0.254375 0.000127134 0)
(0.254612 0.000127295 0)
(0.254849 0.000127455 0)
(0.255086 0.000127616 0)
(0.255323 0.000127776 0)
(0.25556 0.000127936 0)
(0.255797 0.000128097 0)
(0.256035 0.000128256 0)
(0.256272 0.000128416 0)
(0.25651 0.000128576 0)
(0.256748 0.000128735 0)
(0.256986 0.000128895 0)
(0.257224 0.000129054 0)
(0.257462 0.000129213 0)
(0.257701 0.000129372 0)
(0.257939 0.00012953 0)
(0.258178 0.000129689 0)
(0.258417 0.000129847 0)
(0.258656 0.000130006 0)
(0.258895 0.000130164 0)
(0.259134 0.000130321 0)
(0.259373 0.000130479 0)
(0.259613 0.000130637 0)
(0.259852 0.000130794 0)
(0.260092 0.000130951 0)
(0.260332 0.000131108 0)
(0.260572 0.000131265 0)
(0.260812 0.000131422 0)
(0.261052 0.000131579 0)
(0.261293 0.000131735 0)
(0.261533 0.000131891 0)
(0.261774 0.000132047 0)
(0.262015 0.000132203 0)
(0.262256 0.000132359 0)
(0.262497 0.000132514 0)
(0.262738 0.000132669 0)
(0.26298 0.000132824 0)
(0.263221 0.000132979 0)
(0.263463 0.000133134 0)
(0.263705 0.000133288 0)
(0.263946 0.000133442 0)
(0.264189 0.000133596 0)
(0.264431 0.00013375 0)
(0.264673 0.000133904 0)
(0.264916 0.000134057 0)
(0.265158 0.00013421 0)
(0.265401 0.000134364 0)
(0.265644 0.000134516 0)
(0.265887 0.000134669 0)
(0.26613 0.000134821 0)
(0.266373 0.000134973 0)
(0.266616 0.000135125 0)
(0.26686 0.000135277 0)
(0.267104 0.000135429 0)
(0.267348 0.00013558 0)
(0.267591 0.000135731 0)
(0.267836 0.000135882 0)
(0.26808 0.000136032 0)
(0.268324 0.000136183 0)
(0.268569 0.000136333 0)
(0.268813 0.000136483 0)
(0.269058 0.000136633 0)
(0.269303 0.000136782 0)
(0.269548 0.000136931 0)
(0.269793 0.00013708 0)
(0.270038 0.000137229 0)
(0.270284 0.000137377 0)
(0.270529 0.000137525 0)
(0.270775 0.000137673 0)
(0.271021 0.000137821 0)
(0.271267 0.000137968 0)
(0.271513 0.000138116 0)
(0.271759 0.000138263 0)
(0.272005 0.00013841 0)
(0.272252 0.000138556 0)
(0.272499 0.000138702 0)
(0.272745 0.000138848 0)
(0.272992 0.000138994 0)
(0.273239 0.00013914 0)
(0.273486 0.000139285 0)
(0.273734 0.00013943 0)
(0.273981 0.000139574 0)
(0.274229 0.000139719 0)
(0.274476 0.000139863 0)
(0.274724 0.000140007 0)
(0.274972 0.000140151 0)
(0.27522 0.000140294 0)
(0.275468 0.000140437 0)
(0.275717 0.00014058 0)
(0.275965 0.000140723 0)
(0.276214 0.000140865 0)
(0.276463 0.000141007 0)
(0.276712 0.000141149 0)
(0.276961 0.00014129 0)
(0.27721 0.000141431 0)
(0.277459 0.000141572 0)
(0.277708 0.000141712 0)
(0.277958 0.000141852 0)
(0.278208 0.000141992 0)
(0.278458 0.000142132 0)
(0.278707 0.000142271 0)
(0.278958 0.000142411 0)
(0.279208 0.000142549 0)
(0.279458 0.000142688 0)
(0.279709 0.000142826 0)
(0.279959 0.000142964 0)
(0.28021 0.000143102 0)
(0.280461 0.000143239 0)
(0.280712 0.000143376 0)
(0.280963 0.000143513 0)
(0.281214 0.000143649 0)
(0.281466 0.000143786 0)
(0.281717 0.000143921 0)
(0.281969 0.000144057 0)
(0.282221 0.000144192 0)
(0.282472 0.000144327 0)
(0.282724 0.000144462 0)
(0.282977 0.000144596 0)
(0.283229 0.00014473 0)
(0.283481 0.000144864 0)
(0.283734 0.000144997 0)
(0.283987 0.00014513 0)
(0.284239 0.000145263 0)
(0.284492 0.000145396 0)
(0.284745 0.000145528 0)
(0.284999 0.000145659 0)
(0.285252 0.000145791 0)
(0.285505 0.000145922 0)
(0.285759 0.000146052 0)
(0.286013 0.000146183 0)
(0.286267 0.000146313 0)
(0.28652 0.000146442 0)
(0.286775 0.000146572 0)
(0.287029 0.000146701 0)
(0.287283 0.00014683 0)
(0.287538 0.000146958 0)
(0.287792 0.000147086 0)
(0.288047 0.000147214 0)
(0.288302 0.000147341 0)
(0.288557 0.000147469 0)
(0.288812 0.000147595 0)
(0.289067 0.000147722 0)
(0.289323 0.000147848 0)
(0.289578 0.000147974 0)
(0.289834 0.000148099 0)
(0.290089 0.000148224 0)
(0.290345 0.000148349 0)
(0.290601 0.000148473 0)
(0.290857 0.000148597 0)
(0.291114 0.000148721 0)
(0.29137 0.000148844 0)
(0.291626 0.000148967 0)
(0.291883 0.000149089 0)
(0.29214 0.000149212 0)
(0.292397 0.000149333 0)
(0.292654 0.000149455 0)
(0.292911 0.000149576 0)
(0.293168 0.000149697 0)
(0.293425 0.000149817 0)
(0.293683 0.000149937 0)
(0.29394 0.000150057 0)
(0.294198 0.000150176 0)
(0.294456 0.000150295 0)
(0.294714 0.000150414 0)
(0.294972 0.000150532 0)
(0.29523 0.000150649 0)
(0.295489 0.000150767 0)
(0.295747 0.000150884 0)
(0.296006 0.000151 0)
(0.296264 0.000151117 0)
(0.296523 0.000151233 0)
(0.296782 0.000151348 0)
(0.297041 0.000151464 0)
(0.2973 0.000151578 0)
(0.29756 0.000151693 0)
(0.297819 0.000151807 0)
(0.298079 0.000151921 0)
(0.298338 0.000152034 0)
(0.298598 0.000152147 0)
(0.298858 0.00015226 0)
(0.299118 0.000152372 0)
(0.299378 0.000152483 0)
(0.299638 0.000152595 0)
(0.299899 0.000152706 0)
(0.300159 0.000152816 0)
(0.30042 0.000152926 0)
(0.300681 0.000153036 0)
(0.300941 0.000153145 0)
(0.301202 0.000153254 0)
(0.301463 0.000153363 0)
(0.301725 0.000153471 0)
(0.301986 0.000153579 0)
(0.302247 0.000153686 0)
(0.302509 0.000153793 0)
(0.302771 0.0001539 0)
(0.303032 0.000154006 0)
(0.303294 0.000154112 0)
(0.303556 0.000154217 0)
(0.303818 0.000154323 0)
(0.304081 0.000154427 0)
(0.304343 0.000154531 0)
(0.304605 0.000154635 0)
(0.304868 0.000154739 0)
(0.305131 0.000154842 0)
(0.305393 0.000154944 0)
(0.305656 0.000155046 0)
(0.305919 0.000155148 0)
(0.306183 0.000155249 0)
(0.306446 0.00015535 0)
(0.306709 0.00015545 0)
(0.306973 0.00015555 0)
(0.307236 0.00015565 0)
(0.3075 0.000155749 0)
(0.307764 0.000155848 0)
(0.308028 0.000155946 0)
(0.308292 0.000156044 0)
(0.308556 0.000156141 0)
(0.30882 0.000156239 0)
(0.309084 0.000156335 0)
(0.309349 0.000156431 0)
(0.309613 0.000156527 0)
(0.309878 0.000156623 0)
(0.310143 0.000156718 0)
(0.310408 0.000156812 0)
(0.310673 0.000156906 0)
(0.310938 0.000157 0)
(0.311203 0.000157093 0)
(0.311468 0.000157186 0)
(0.311734 0.000157278 0)
(0.311999 0.00015737 0)
(0.312265 0.000157462 0)
(0.312531 0.000157553 0)
(0.312797 0.000157644 0)
(0.313063 0.000157734 0)
(0.313329 0.000157824 0)
(0.313595 0.000157913 0)
(0.313861 0.000158002 0)
(0.314128 0.000158091 0)
(0.314394 0.000158179 0)
(0.314661 0.000158266 0)
(0.314927 0.000158353 0)
(0.315194 0.00015844 0)
(0.315461 0.000158526 0)
(0.315728 0.000158612 0)
(0.315995 0.000158697 0)
(0.316262 0.000158782 0)
(0.31653 0.000158866 0)
(0.316797 0.00015895 0)
(0.317065 0.000159034 0)
(0.317332 0.000159117 0)
(0.3176 0.0001592 0)
(0.317868 0.000159282 0)
(0.318136 0.000159364 0)
(0.318404 0.000159445 0)
(0.318672 0.000159526 0)
(0.31894 0.000159606 0)
(0.319208 0.000159686 0)
(0.319477 0.000159766 0)
(0.319745 0.000159845 0)
(0.320014 0.000159924 0)
(0.320282 0.000160002 0)
(0.320551 0.00016008 0)
(0.32082 0.000160157 0)
(0.321089 0.000160233 0)
(0.321358 0.00016031 0)
(0.321627 0.000160386 0)
(0.321897 0.000160461 0)
(0.322166 0.000160536 0)
(0.322435 0.00016061 0)
(0.322705 0.000160684 0)
(0.322975 0.000160758 0)
(0.323244 0.000160831 0)
(0.323514 0.000160903 0)
(0.323784 0.000160975 0)
(0.324054 0.000161047 0)
(0.324324 0.000161118 0)
(0.324594 0.000161189 0)
(0.324865 0.000161259 0)
(0.325135 0.000161329 0)
(0.325406 0.000161398 0)
(0.325676 0.000161467 0)
(0.325947 0.000161535 0)
(0.326218 0.000161603 0)
(0.326488 0.00016167 0)
(0.326759 0.000161737 0)
(0.32703 0.000161803 0)
(0.327301 0.000161869 0)
(0.327573 0.000161935 0)
(0.327844 0.000162 0)
(0.328115 0.000162064 0)
(0.328387 0.000162128 0)
(0.328658 0.000162192 0)
(0.32893 0.000162255 0)
(0.329202 0.000162317 0)
(0.329473 0.000162379 0)
(0.329745 0.000162441 0)
(0.330017 0.000162502 0)
(0.330289 0.000162563 0)
(0.330561 0.000162623 0)
(0.330834 0.000162682 0)
(0.331106 0.000162741 0)
(0.331378 0.0001628 0)
(0.331651 0.000162858 0)
(0.331923 0.000162916 0)
(0.332196 0.000162973 0)
(0.332469 0.00016303 0)
(0.332741 0.000163086 0)
(0.333014 0.000163141 0)
(0.333287 0.000163197 0)
(0.33356 0.000163251 0)
(0.333833 0.000163305 0)
(0.334106 0.000163359 0)
(0.33438 0.000163412 0)
(0.334653 0.000163465 0)
(0.334926 0.000163517 0)
(0.3352 0.000163569 0)
(0.335474 0.00016362 0)
(0.335747 0.000163671 0)
(0.336021 0.000163721 0)
(0.336295 0.000163771 0)
(0.336569 0.00016382 0)
(0.336843 0.000163868 0)
(0.337117 0.000163917 0)
(0.337391 0.000163964 0)
(0.337665 0.000164011 0)
(0.337939 0.000164058 0)
(0.338213 0.000164104 0)
(0.338488 0.00016415 0)
(0.338762 0.000164195 0)
(0.339037 0.000164239 0)
(0.339311 0.000164283 0)
(0.339586 0.000164327 0)
(0.339861 0.00016437 0)
(0.340136 0.000164412 0)
(0.340411 0.000164454 0)
(0.340686 0.000164496 0)
(0.340961 0.000164536 0)
(0.341236 0.000164577 0)
(0.341511 0.000164617 0)
(0.341786 0.000164656 0)
(0.342062 0.000164694 0)
(0.342337 0.000164733 0)
(0.342612 0.00016477 0)
(0.342888 0.000164807 0)
(0.343163 0.000164844 0)
(0.343439 0.00016488 0)
(0.343715 0.000164915 0)
(0.343991 0.00016495 0)
(0.344266 0.000164985 0)
(0.344542 0.000165018 0)
(0.344818 0.000165052 0)
(0.345094 0.000165084 0)
(0.345371 0.000165116 0)
(0.345647 0.000165148 0)
(0.345923 0.000165179 0)
(0.346199 0.000165209 0)
(0.346476 0.000165239 0)
(0.346752 0.000165268 0)
(0.347029 0.000165297 0)
(0.347305 0.000165325 0)
(0.347582 0.000165352 0)
(0.347858 0.000165379 0)
(0.348135 0.000165405 0)
(0.348412 0.000165431 0)
(0.348689 0.000165456 0)
(0.348966 0.00016548 0)
(0.349243 0.000165504 0)
(0.34952 0.000165527 0)
(0.349797 0.000165549 0)
(0.350074 0.000165571 0)
(0.350351 0.000165592 0)
(0.350629 0.000165612 0)
(0.350906 0.000165632 0)
(0.351183 0.00016565 0)
(0.351461 0.000165668 0)
(0.351738 0.000165686 0)
(0.352016 0.000165702 0)
(0.352294 0.000165718 0)
(0.352571 0.000165733 0)
(0.352849 0.000165747 0)
(0.353127 0.000165761 0)
(0.353405 0.000165773 0)
(0.353683 0.000165785 0)
(0.353961 0.000165796 0)
(0.354239 0.000165805 0)
(0.354517 0.000165814 0)
(0.354796 0.000165822 0)
(0.355074 0.000165829 0)
(0.355352 0.000165835 0)
(0.355631 0.00016584 0)
(0.355909 0.000165844 0)
(0.356188 0.000165847 0)
(0.356467 0.000165848 0)
(0.356746 0.000165849 0)
(0.357024 0.000165848 0)
(0.357303 0.000165846 0)
(0.357582 0.000165842 0)
(0.357861 0.000165837 0)
(0.358141 0.000165831 0)
(0.35842 0.000165822 0)
(0.358699 0.000165813 0)
(0.358979 0.000165801 0)
(0.359258 0.000165788 0)
(0.359538 0.000165773 0)
(0.359818 0.000165757 0)
(0.360098 0.000165738 0)
(0.360378 0.000165717 0)
(0.360658 0.000165694 0)
(0.360938 0.000165669 0)
(0.361218 0.000165641 0)
(0.361499 0.000165611 0)
(0.36178 0.000165578 0)
(0.36206 0.000165542 0)
(0.362341 0.000165503 0)
(0.362623 0.000165461 0)
(0.362904 0.000165416 0)
(0.363185 0.000165367 0)
(0.363467 0.000165314 0)
(0.363749 0.000165258 0)
(0.364031 0.000165197 0)
(0.364313 0.000165131 0)
(0.364596 0.000165061 0)
(0.364879 0.000164985 0)
(0.365162 0.000164904 0)
(0.365445 0.000164818 0)
(0.365729 0.000164725 0)
(0.366013 0.000164626 0)
(0.366297 0.00016452 0)
(0.366582 0.000164406 0)
(0.366867 0.000164285 0)
(0.367152 0.000164155 0)
(0.367438 0.000164015 0)
(0.367724 0.000163867 0)
(0.368011 0.000163707 0)
(0.368298 0.000163537 0)
(0.368586 0.000163355 0)
(0.368874 0.00016316 0)
(0.369164 0.000162951 0)
(0.369453 0.000162728 0)
(0.369744 0.000162489 0)
(0.370035 0.000162233 0)
(0.370327 0.000161959 0)
(0.37062 0.000161665 0)
(0.370914 0.00016135 0)
(0.371208 0.000161012 0)
(0.371504 0.00016065 0)
(0.371801 0.000160261 0)
(0.372099 0.000159843 0)
(0.372399 0.000159394 0)
(0.3727 0.000158912 0)
(0.373002 0.000158394 0)
(0.373306 0.000157838 0)
(0.373612 0.000157239 0)
(0.37392 0.000156594 0)
(0.374229 0.000155901 0)
(0.374541 0.000155155 0)
(0.374855 0.000154352 0)
(0.375172 0.000153487 0)
(0.375491 0.000152557 0)
(0.375813 0.000151556 0)
(0.376138 0.00015048 0)
(0.376466 0.000149326 0)
(0.376797 0.00014809 0)
(0.377132 0.000146768 0)
(0.377471 0.000145354 0)
(0.377814 0.000143836 0)
(0.37816 0.000142183 0)
(0.378511 0.000140333 0)
(0.378867 0.000138149 0)
(0.379229 0.000135331 0)
(0.3796 0.000131244 0)
(0.379979 0.000125557 0)
(0.380375 0.000121376 0)
(0.380858 0.000116967 0)
(0.381546 4.70055e-05 0)
(0.998305 0.267837 0)
(0.977716 0.292091 0)
(0.866244 0.212601 0)
(0.754486 0.143398 0)
(0.665555 0.0951451 0)
(0.59874 0.063411 0)
(0.54944 0.0430127 0)
(0.513217 0.0299382 0)
(0.486428 0.0214781 0)
(0.466334 0.0159139 0)
(0.450981 0.0121766 0)
(0.43901 0.00960265 0)
(0.429486 0.00777942 0)
(0.421767 0.00644907 0)
(0.415407 0.00544956 0)
(0.410093 0.00467793 0)
(0.405603 0.00406778 0)
(0.401773 0.00357532 0)
(0.39848 0.00317099 0)
(0.395634 0.00283423 0)
(0.39316 0.00255035 0)
(0.391003 0.00230862 0)
(0.389116 0.00210094 0)
(0.387462 0.00192116 0)
(0.386011 0.00176446 0)
(0.384737 0.00162705 0)
(0.383619 0.0015059 0)
(0.382639 0.00139856 0)
(0.38178 0.00130302 0)
(0.381031 0.00121764 0)
(0.380379 0.00114103 0)
(0.379815 0.00107204 0)
(0.37933 0.00100972 0)
(0.378917 0.000953232 0)
(0.378569 0.000901893 0)
(0.378281 0.000855115 0)
(0.378046 0.000812403 0)
(0.377861 0.000773338 0)
(0.377721 0.00073756 0)
(0.377622 0.000704755 0)
(0.377562 0.000674644 0)
(0.377537 0.000646976 0)
(0.377544 0.000621523 0)
(0.377581 0.000598081 0)
(0.377645 0.000576464 0)
(0.377734 0.000556503 0)
(0.377847 0.000538043 0)
(0.377982 0.000520945 0)
(0.378137 0.000505086 0)
(0.378311 0.000490355 0)
(0.378503 0.000476657 0)
(0.37871 0.000463908 0)
(0.378933 0.000452034 0)
(0.37917 0.000440967 0)
(0.37942 0.000430648 0)
(0.379683 0.000421019 0)
(0.379957 0.00041203 0)
(0.380242 0.000403635 0)
(0.380538 0.000395794 0)
(0.380842 0.000388467 0)
(0.381156 0.000381621 0)
(0.381478 0.000375225 0)
(0.381808 0.000369253 0)
(0.382145 0.00036369 0)
(0.382489 0.000358532 0)
(0.382839 0.000353786 0)
(0.383195 0.000349477 0)
(0.383556 0.000345643 0)
(0.383922 0.000342338 0)
(0.384291 0.000339621 0)
(0.384664 0.000337552 0)
(0.385039 0.000336169 0)
(0.385415 0.00033548 0)
(0.385792 0.000335448 0)
(0.386169 0.000335988 0)
(0.386545 0.000336972 0)
(0.38692 0.00033825 0)
(0.387293 0.000339664 0)
(0.387665 0.000341079 0)
(0.388036 0.000342391 0)
(0.388405 0.000343534 0)
(0.388773 0.000344481 0)
(0.38914 0.000345233 0)
(0.389507 0.000345809 0)
(0.389873 0.000346237 0)
(0.390239 0.000346546 0)
(0.390605 0.000346762 0)
(0.390971 0.000346905 0)
(0.391336 0.00034699 0)
(0.391702 0.000347026 0)
(0.392068 0.000347022 0)
(0.392435 0.00034698 0)
(0.392802 0.000346905 0)
(0.393169 0.000346797 0)
(0.393536 0.000346657 0)
(0.393904 0.000346486 0)
(0.394273 0.000346283 0)
(0.394642 0.000346049 0)
(0.395012 0.000345783 0)
(0.395382 0.000345486 0)
(0.395753 0.000345158 0)
(0.396125 0.000344798 0)
(0.396497 0.000344406 0)
(0.396871 0.000343985 0)
(0.397245 0.000343538 0)
(0.39762 0.000343072 0)
(0.397996 0.0003426 0)
(0.398373 0.000342143 0)
(0.398751 0.000341728 0)
(0.39913 0.000341391 0)
(0.399509 0.00034117 0)
(0.399888 0.000341103 0)
(0.400268 0.000341221 0)
(0.400648 0.000341535 0)
(0.401028 0.000342043 0)
(0.401408 0.000342717 0)
(0.401787 0.000343517 0)
(0.402165 0.000344393 0)
(0.402543 0.000345295 0)
(0.40292 0.00034618 0)
(0.403296 0.000347014 0)
(0.403671 0.000347779 0)
(0.404047 0.000348466 0)
(0.404421 0.000349074 0)
(0.404796 0.000349609 0)
(0.40517 0.000350078 0)
(0.405543 0.000350488 0)
(0.405917 0.000350847 0)
(0.406291 0.000351159 0)
(0.406665 0.00035143 0)
(0.407039 0.000351662 0)
(0.407413 0.000351857 0)
(0.407787 0.000352018 0)
(0.408161 0.000352145 0)
(0.408536 0.00035224 0)
(0.408911 0.000352303 0)
(0.409286 0.000352337 0)
(0.409662 0.000352343 0)
(0.410038 0.000352325 0)
(0.410414 0.000352286 0)
(0.410791 0.000352233 0)
(0.411169 0.000352172 0)
(0.411547 0.000352112 0)
(0.411925 0.000352065 0)
(0.412304 0.000352041 0)
(0.412684 0.000352051 0)
(0.413063 0.000352104 0)
(0.413444 0.000352208 0)
(0.413824 0.000352364 0)
(0.414205 0.00035257 0)
(0.414585 0.000352818 0)
(0.414966 0.000353098 0)
(0.415347 0.000353398 0)
(0.415728 0.000353707 0)
(0.41611 0.000354016 0)
(0.416491 0.000354318 0)
(0.416872 0.000354611 0)
(0.417254 0.000354892 0)
(0.417635 0.000355162 0)
(0.418017 0.000355421 0)
(0.418399 0.000355669 0)
(0.418781 0.000355906 0)
(0.419163 0.000356133 0)
(0.419546 0.000356349 0)
(0.419928 0.000356555 0)
(0.420311 0.00035675 0)
(0.420694 0.000356935 0)
(0.421078 0.000357109 0)
(0.421461 0.000357274 0)
(0.421845 0.00035743 0)
(0.42223 0.000357577 0)
(0.422614 0.000357718 0)
(0.422999 0.000357854 0)
(0.423384 0.000357989 0)
(0.42377 0.000358126 0)
(0.424156 0.000358269 0)