/*--------------------------------*- C++ -*----------------------------------*\
| =========                 |                                                 |
| \\      /  F ield         | OpenFOAM: The Open Source CFD Toolbox           |
|  \\    /   O peration     | Version:  2512                                  |
|   \\  /    A nd           | Website:  www.openfoam.com                      |
|    \\/     M anipulation  |                                                 |
\*---------------------------------------------------------------------------*/
FoamFile
{
    version     2.0;
    format      ascii;
    arch        "LSB;label=32;scalar=64";
    class       volScalarField;
    location    "0.003";
    object      Ux;
}
// * * * * * * * * * * * * * * * * * * * * * * * * * * * * * * * * * * * * * //

dimensions      [0 1 -1 0 0 0 0];

internalField   nonuniform List<scalar> 
100000
(
0.756595
0.651926
0.48075
0.368304
0.301022
0.258861
0.23139
0.212989
0.200276
0.191187
0.184464
0.179329
0.175296
0.172051
0.169389
0.167171
0.165301
0.16371
0.162346
0.16117
0.160152
0.159268
0.158499
0.157829
0.157245
0.156737
0.156295
0.155912
0.155581
0.155297
0.155054
0.154849
0.154677
0.154536
0.154423
0.154336
0.154271
0.154228
0.154204
0.154198
0.154208
0.154233
0.154272
0.154324
0.154387
0.154461
0.154545
0.154639
0.154741
0.154851
0.154968
0.155093
0.155224
0.155361
0.155504
0.155651
0.155804
0.155962
0.156124
0.156289
0.156459
0.156632
0.156809
0.156988
0.157171
0.157356
0.157544
0.157734
0.157925
0.158119
0.158314
0.15851
0.158707
0.158904
0.1591
0.159297
0.159493
0.159688
0.159883
0.160077
0.160271
0.160464
0.160656
0.160849
0.161041
0.161234
0.161426
0.161618
0.161811
0.162003
0.162196
0.162388
0.162581
0.162774
0.162967
0.163161
0.163354
0.163548
0.163742
0.163936
0.164131
0.164326
0.164521
0.164717
0.164912
0.165109
0.165305
0.165502
0.1657
0.165897
0.166095
0.166294
0.166492
0.16669
0.166888
0.167086
0.167284
0.167482
0.167679
0.167875
0.168072
0.168268
0.168464
0.16866
0.168855
0.16905
0.169246
0.169441
0.169636
0.169831
0.170027
0.170222
0.170417
0.170612
0.170808
0.171003
0.171199
0.171395
0.171591
0.171787
0.171983
0.172179
0.172376
0.172573
0.17277
0.172967
0.173164
0.173362
0.173559
0.173757
0.173954
0.174152
0.174349
0.174547
0.174744
0.174942
0.175139
0.175337
0.175534
0.175732
0.17593
0.176127
0.176325
0.176523
0.176721
0.176918
0.177116
0.177314
0.177512
0.17771
0.177909
0.178107
0.178305
0.178504
0.178703
0.178901
0.1791
0.179299
0.179498
0.179697
0.179896
0.180095
0.180295
0.180494
0.180693
0.180892
0.181091
0.181291
0.18149
0.181689
0.181888
0.182088
0.182287
0.182487
0.182687
0.182887
0.183087
0.183287
0.183487
0.183688
0.183888
0.184089
0.18429
0.18449
0.184691
0.184892
0.185094
0.185295
0.185496
0.185698
0.185899
0.186101
0.186302
0.186504
0.186706
0.186907
0.187109
0.187311
0.187513
0.187715
0.187917
0.188119
0.188321
0.188523
0.188725
0.188927
0.18913
0.189332
0.189535
0.189737
0.18994
0.190143
0.190346
0.190549
0.190752
0.190955
0.191158
0.191362
0.191565
0.191769
0.191972
0.192176
0.19238
0.192584
0.192788
0.192992
0.193196
0.1934
0.193605
0.193809
0.194014
0.194219
0.194423
0.194628
0.194833
0.195038
0.195243
0.195449
0.195654
0.195859
0.196065
0.196271
0.196476
0.196682
0.196888
0.197094
0.1973
0.197506
0.197713
0.197919
0.198125
0.198332
0.198539
0.198745
0.198952
0.199159
0.199366
0.199573
0.19978
0.199988
0.200195
0.200403
0.20061
0.200818
0.201026
0.201234
0.201442
0.20165
0.201858
0.202066
0.202275
0.202483
0.202692
0.2029
0.203109
0.203318
0.203527
0.203736
0.203945
0.204154
0.204364
0.204573
0.204783
0.204992
0.205202
0.205412
0.205622
0.205832
0.206042
0.206252
0.206462
0.206673
0.206883
0.207094
0.207305
0.207515
0.207726
0.207937
0.208149
0.20836
0.208571
0.208783
0.208994
0.209206
0.209418
0.209629
0.209841
0.210054
0.210266
0.210478
0.21069
0.210903
0.211115
0.211328
0.211541
0.211754
0.211967
0.21218
0.212393
0.212607
0.21282
0.213034
0.213247
0.213461
0.213675
0.213889
0.214103
0.214317
0.214532
0.214746
0.214961
0.215175
0.21539
0.215605
0.21582
0.216035
0.21625
0.216466
0.216681
0.216897
0.217112
0.217328
0.217544
0.21776
0.217976
0.218192
0.218409
0.218625
0.218842
0.219058
0.219275
0.219492
0.219709
0.219926
0.220143
0.220361
0.220578
0.220796
0.221014
0.221231
0.221449
0.221667
0.221886
0.222104
0.222322
0.222541
0.22276
0.222978
0.223197
0.223416
0.223635
0.223855
0.224074
0.224293
0.224513
0.224733
0.224953
0.225173
0.225393
0.225613
0.225833
0.226054
0.226274
0.226495
0.226716
0.226937
0.227158
0.227379
0.2276
0.227822
0.228043
0.228265
0.228487
0.228709
0.228931
0.229153
0.229375
0.229598
0.22982
0.230043
0.230266
0.230488
0.230712
0.230935
0.231158
0.231381
0.231605
0.231829
0.232052
0.232276
0.2325
0.232724
0.232949
0.233173
0.233398
0.233622
0.233847
0.234072
0.234297
0.234522
0.234748
0.234973
0.235199
0.235424
0.23565
0.235876
0.236102
0.236328
0.236555
0.236781
0.237008
0.237234
0.237461
0.237688
0.237915
0.238142
0.23837
0.238597
0.238825
0.239053
0.239281
0.239509
0.239737
0.239965
0.240193
0.240422
0.24065
0.240879
0.241108
0.241337
0.241566
0.241796
0.242025
0.242255
0.242484
0.242714
0.242944
0.243174
0.243405
0.243635
0.243865
0.244096
0.244327
0.244558
0.244789
0.24502
0.245251
0.245483
0.245714
0.245946
0.246178
0.24641
0.246642
0.246874
0.247106
0.247339
0.247571
0.247804
0.248037
0.24827
0.248503
0.248736
0.24897
0.249203
0.249437
0.249671
0.249905
0.250139
0.250373
0.250607
0.250842
0.251077
0.251311
0.251546
0.251781
0.252016
0.252252
0.252487
0.252723
0.252958
0.253194
0.25343
0.253666
0.253903
0.254139
0.254375
0.254612
0.254849
0.255086
0.255323
0.25556
0.255797
0.256035
0.256272
0.25651
0.256748
0.256986
0.257224
0.257462
0.257701
0.257939
0.258178
0.258417
0.258656
0.258895
0.259134
0.259373
0.259613
0.259852
0.260092
0.260332
0.260572
0.260812
0.261052
0.261293
0.261533
0.261774
0.262015
0.262256
0.262497
0.262738
0.26298
0.263221
0.263463
0.263705
0.263946
0.264189
0.264431
0.264673
0.264916
0.265158
0.265401
0.265644
0.265887
0.26613
0.266373
0.266616
0.26686
0.267104
0.267348
0.267591
0.267836
0.26808
0.268324
0.268569
0.268813
0.269058
0.269303
0.269548
0.269793
0.270038
0.270284
0.270529
0.270775
0.271021
0.271267
0.271513
0.271759
0.272005
0.272252
0.272499
0.272745
0.272992
0.273239
0.273486
0.273734
0.273981
0.274229
0.274476
0.274724
0.274972
0.27522
0.275468
0.275717
0.275965
0.276214
0.276463
0.276712
0.276961
0.27721
0.277459
0.277708
0.277958
0.278208
0.278458
0.278707
0.278958
0.279208
0.279458
0.279709
0.279959
0.28021
0.280461
0.280712
0.280963
0.281214
0.281466
0.281717
0.281969
0.282221
0.282472
0.282724
0.282977
0.283229
0.283481
0.283734
0.283987
0.284239
0.284492
0.284745
0.284999
0.285252
0.285505
0.285759
0.286013
0.286267
0.28652
0.286775
0.287029
0.287283
0.287538
0.287792
0.288047
0.288302
0.288557
0.288812
0.289067
0.289323
0.289578
0.289834
0.290089
0.290345
0.290601
0.290857
0.291114
0.29137
0.291626
0.291883
0.29214
0.292397
0.292654
0.292911
0.293168
0.293425
0.293683
0.29394
0.294198
0.294456
0.294714
0.294972
0.29523
0.295489
0.295747
0.296006
0.296264
0.296523
0.296782
0.297041
0.2973
0.29756
0.297819
0.298079
0.298338
0.298598
0.298858
0.299118
0.299378
0.299638
0.299899
0.300159
0.30042
0.300681
0.300941
0.301202
0.301463
0.301725
0.301986
0.302247
0.302509
0.302771
0.303032
0.303294
0.303556
0.303818
0.304081
0.304343
0.304605
0.304868
0.305131
0.305393
0.305656
0.305919
0.306183
0.306446
0.306709
0.306973
0.307236
0.3075
0.307764
0.308028
0.308292
0.308556
0.30882
0.309084
0.309349
0.309613
0.309878
0.310143
0.310408
0.310673
0.310938
0.311203
0.311468
0.311734
0.311999
0.312265
0.312531
0.312797
0.313063
0.313329
0.313595
0.313861
0.314128
0.314394
0.314661
0.314927
0.315194
0.315461
0.315728
0.315995
0.316262
0.31653
0.316797
0.317065
0.317332
0.3176
0.317868
0.318136
0.318404
0.318672
0.31894
0.319208
0.319477
0.319745
0.320014
0.320282
0.320551
0.32082
0.321089
0.321358
0.321627
0.321897
0.322166
0.322435
0.322705
0.322975
0.323244
0.323514
0.323784
0.324054
0.324324
0.324594
0.324865
0.325135
0.325406
0.325676
0.325947
0.326218
0.326488
0.326759
0.32703
0.327301
0.327573
0.327844
0.328115
0.328387
0.328658
0.32893
0.329202
0.329473
0.329745
0.330017
0.330289
0.330561
0.330834
0.331106
0.331378
0.331651
0.331923
0.332196
0.332469
0.332741
0.333014
0.333287
0.33356
0.333833
0.334106
0.33438
0.334653
0.334926
0.3352
0.335474
0.335747
0.336021
0.336295
0.336569
0.336843
0.337117
0.337391
0.337665
0.337939
0.338213
0.338488
0.338762
0.339037
0.339311
0.339586
0.339861
0.340136
0.340411
0.340686
0.340961
0.341236
0.341511
0.341786
0.342062
0.342337
0.342612
0.342888
0.343163
0.343439
0.343715
0.343991
0.344266
0.344542
0.344818
0.345094
0.345371
0.345647
0.345923
0.346199
0.346476
0.346752
0.347029
0.347305
0.347582
0.347858
0.348135
0.348412
0.348689
0.348966
0.349243
0.34952
0.349797
0.350074
0.350351
0.350629
0.350906
0.351183
0.351461
0.351738
0.352016
0.352294
0.352571
0.352849
0.353127
0.353405
0.353683
0.353961
0.354239
0.354517
0.354796
0.355074
0.355352
0.355631
0.355909
0.356188
0.356467
0.356746
0.357024
0.357303
0.357582
0.357861
0.358141
0.35842
0.358699
0.358979
0.359258
0.359538
0.359818
0.360098
0.360378
0.360658
0.360938
0.361218
0.361499
0.36178
0.36206
0.362341
0.362623
0.362904
0.363185
0.363467
0.363749
0.364031
0.364313
0.364596
0.364879
0.365162
0.365445
0.365729
0.366013
0.366297
0.366582
0.366867
0.367152
0.367438
0.367724
0.368011
0.368298
0.368586
0.368874
0.369164
0.369453
0.369744
0.370035
0.370327
0.37062
0.370914
0.371208
0.371504
0.371801
0.372099
0.372399
0.3727
0.373002
0.373306
0.373612
0.37392
0.374229
0.374541
0.374855
0.375172
0.375491
0.375813
0.376138
0.376466
0.376797
0.377132
0.377471
0.377814
0.37816
0.378511
0.378867
0.379229
0.3796
0.379979
0.380375
0.380858
0.381546
0.998305
0.977716
0.866244
0.754486
0.665555
0.59874
0.54944
0.513217
0.486428
0.466334
0.450981
0.43901
0.429486
0.421767
0.415407
0.410093
0.405603
0.401773
0.39848
0.395634
0.39316
0.391003
0.389116
0.387462
0.386011
0.384737
0.383619
0.382639
0.38178
0.381031
0.380379
0.379815
0.37933
0.378917
0.378569
0.378281
0.378046
0.377861
0.377721
0.377622
0.377562
0.377537
0.377544
0.377581
0.377645
0.377734
0.377847
0.377982
0.378137
0.378311
0.378503
0.37871
0.378933
0.37917
0.37942
0.379683
0.379957
0.380242
0.380538
0.380842
0.381156
0.381478
0.381808
0.382145
0.382489
0.382839
0.383195
0.383556
0.383922
0.384291
0.384664
0.385039
0.385415
0.385792
0.386169
0.386545
0.38692
0.387293
0.387665
0.388036
0.388405
0.388773
0.38914
0.389507
0.389873
0.390239
0.390605
0.390971
0.391336
0.391702
0.392068
0.392435
0.392802
0.393169
0.393536
0.393904
0.394273
0.394642
0.395012
0.395382
0.395753
0.396125
0.396497
0.396871
0.397245
0.39762
0.397996
0.398373
0.398751
0.39913
0.399509
0.399888
0.400268
0.400648
0.401028
0.401408
0.401787
0.402165
0.402543
0.40292
0.403296
0.403671
0.404047
0.404421
0.404796
0.40517
0.405543
0.405917
0.406291
0.406665
0.407039
0.407413
0.407787
0.408161
0.408536
0.408911
0.409286
0.409662
0.410038
0.410414
0.410791
0.411169
0.411547
0.411925
0.412304
0.412684
0.413063
0.413444
0.413824
0.414205
0.414585
0.414966
0.415347
0.415728
0.41611
0.416491
0.416872
0.417254
0.417635
0.418017
0.418399
0.418781
0.419163
0.419546
0.419928
0.420311
0.420694
0.421078
0.421461
0.421845
0.42223
0.422614
0.422999
0.423384
0.42377
0.424156
0.424542
0.424929
0.425316
0.425703
0.42609
0.426477
0.426865
0.427253
0.427641
0.428029
0.428417
0.428805
0.429194
0.429582
0.429971
0.43036
0.43075
0.43114
0.43153
0.431921
0.432312
0.432703
0.433095
0.433488
0.43388
0.434274
0.434667
0.435061
0.435455
0.43585
0.436245
0.43664
0.437036
0.437432
0.437828
0.438224
0.438621
0.439017
0.439414
0.439812
0.440209
0.440607
0.441005
0.441403
0.441801
0.4422
0.442599
0.442998
0.443397
0.443797
0.444197
0.444597
0.444998
0.445399
0.4458
0.446202
0.446604
0.447007
0.447409
0.447812
0.448216
0.44862
0.449024
0.449428
0.449833
0.450238
0.450644
0.45105
0.451456
0.451862
0.452269
0.452676
0.453084
0.453492
0.4539
0.454308
0.454717
0.455127
0.455536
0.455946
0.456357
0.456768
0.457179
0.45759
0.458002
0.458414
0.458827
0.45924
0.459653
0.460066
0.46048
0.460895
0.461309
0.461724
0.462139
0.462555
0.462971
0.463388
0.463804
0.464221
0.464639
0.465057
0.465475
0.465893
0.466312
0.466732
0.467151
0.467571
0.467992
0.468412
0.468833
0.469255
0.469677
0.470099
0.470522
0.470944
0.471368
0.471791
0.472216
0.47264
0.473065
0.47349
0.473915
0.474341
0.474768
0.475194
0.475621
0.476049
0.476476
0.476905
0.477333
0.477762
0.478191
0.478621
0.479051
0.479482
0.479912
0.480344
0.480775
0.481207
0.481639
0.482072
0.482505
0.482939
0.483373
0.483807
0.484242
0.484677
0.485112
0.485548
0.485985
0.486421
0.486858
0.487296
0.487734
0.488172
0.48861
0.489049
0.489489
0.489929
0.490369
0.49081
0.491251
0.491692
0.492134
0.492576
0.493019
0.493462
0.493906
0.49435
0.494794
0.495239
0.495684
0.496129
0.496575
0.497022
0.497468
0.497916
0.498363
0.498811
0.49926
0.499709
0.500158
0.500608
0.501058
0.501508
0.501959
0.502411
0.502862
0.503315
0.503767
0.50422
0.504674
0.505128
0.505582
0.506037
0.506492
0.506948
0.507404
0.50786
0.508317
0.508774
0.509232
0.50969
0.510149
0.510608
0.511068
0.511527
0.511988
0.512449
0.51291
0.513372
0.513834
0.514296
0.514759
0.515223
0.515686
0.516151
0.516615
0.517081
0.517546
0.518012
0.518479
0.518946
0.519413
0.519881
0.520349
0.520818
0.521287
0.521757
0.522227
0.522697
0.523168
0.523639
0.524111
0.524583
0.525056
0.525529
0.526003
0.526477
0.526952
0.527427
0.527902
0.528378
0.528854
0.529331
0.529808
0.530286
0.530764
0.531242
0.531721
0.532201
0.532681
0.533161
0.533642
0.534123
0.534605
0.535087
0.53557
0.536053
0.536537
0.537021
0.537505
0.53799
0.538475
0.538961
0.539448
0.539934
0.540422
0.540909
0.541397
0.541886
0.542375
0.542865
0.543355
0.543845
0.544336
0.544827
0.545319
0.545812
0.546304
0.546798
0.547291
0.547785
0.54828
0.548775
0.549271
0.549767
0.550263
0.55076
0.551257
0.551755
0.552254
0.552752
0.553252
0.553751
0.554251
0.554752
0.555253
0.555755
0.556257
0.556759
0.557262
0.557766
0.55827
0.558774
0.559279
0.559784
0.56029
0.560796
0.561303
0.56181
0.562318
0.562826
0.563334
0.563843
0.564353
0.564863
0.565373
0.565884
0.566396
0.566907
0.56742
0.567932
0.568446
0.568959
0.569474
0.569988
0.570503
0.571019
0.571535
0.572052
0.572569
0.573086
0.573604
0.574122
0.574641
0.57516
0.57568
0.576201
0.576721
0.577242
0.577764
0.578286
0.578809
0.579332
0.579855
0.580379
0.580904
0.581429
0.581954
0.58248
0.583006
0.583533
0.58406
0.584588
0.585116
0.585645
0.586174
0.586704
0.587234
0.587764
0.588295
0.588827
0.589359
0.589891
0.590424
0.590957
0.591491
0.592025
0.59256
0.593095
0.593631
0.594167
0.594703
0.59524
0.595778
0.596316
0.596854
0.597393
0.597932
0.598472
0.599012
0.599553
0.600094
0.600636
0.601178
0.601721
0.602264
0.602807
0.603351
0.603895
0.60444
0.604986
0.605531
0.606078
0.606624
0.607171
0.607719
0.608267
0.608816
0.609365
0.609914
0.610464
0.611014
0.611565
0.612116
0.612668
0.61322
0.613773
0.614326
0.614879
0.615433
0.615988
0.616542
0.617098
0.617653
0.61821
0.618766
0.619323
0.619881
0.620439
0.620997
0.621556
0.622116
0.622675
0.623236
0.623796
0.624358
0.624919
0.625481
0.626044
0.626606
0.62717
0.627734
0.628298
0.628863
0.629428
0.629993
0.630559
0.631126
0.631692
0.63226
0.632828
0.633396
0.633964
0.634533
0.635103
0.635673
0.636243
0.636814
0.637385
0.637957
0.638529
0.639101
0.639674
0.640248
0.640822
0.641396
0.641971
0.642546
0.643121
0.643697
0.644274
0.64485
0.645428
0.646005
0.646583
0.647162
0.647741
0.64832
0.6489
0.64948
0.650061
0.650642
0.651223
0.651805
0.652387
0.65297
0.653553
0.654137
0.654721
0.655305
0.65589
0.656475
0.657061
0.657647
0.658233
0.65882
0.659407
0.659995
0.660583
0.661171
0.66176
0.662349
0.662939
0.663529
0.66412
0.664711
0.665302
0.665893
0.666486
0.667078
0.667671
0.668264
0.668858
0.669452
0.670046
0.670641
0.671237
0.671832
0.672428
0.673025
0.673622
0.674219
0.674816
0.675414
0.676013
0.676612
0.677211
0.67781
0.67841
0.67901
0.679611
0.680212
0.680814
0.681415
0.682018
0.68262
0.683223
0.683827
0.68443
0.685034
0.685639
0.686244
0.686849
0.687454
0.68806
0.688667
0.689273
0.68988
0.690488
0.691096
0.691704
0.692312
0.692921
0.69353
0.69414
0.69475
0.69536
0.695971
0.696582
0.697193
0.697805
0.698417
0.699029
0.699642
0.700255
0.700869
0.701482
0.702097
0.702711
0.703326
0.703941
0.704557
0.705173
0.705789
0.706405
0.707022
0.70764
0.708257
0.708875
0.709493
0.710112
0.710731
0.71135
0.71197
0.71259
0.71321
0.71383
0.714451
0.715073
0.715694
0.716316
0.716938
0.717561
0.718184
0.718807
0.71943
0.720054
0.720678
0.721302
0.721927
0.722552
0.723178
0.723803
0.724429
0.725055
0.725682
0.726309
0.726936
0.727564
0.728191
0.728819
0.729448
0.730077
0.730706
0.731335
0.731964
0.732594
0.733224
0.733855
0.734486
0.735117
0.735748
0.73638
0.737012
0.737644
0.738276
0.738909
0.739542
0.740175
0.740809
0.741443
0.742077
0.742711
0.743346
0.743981
0.744616
0.745252
0.745887
0.746523
0.74716
0.747796
0.748433
0.74907
0.749707
0.750345
0.750983
0.751621
0.752259
0.752898
0.753537
0.754176
0.754815
0.755455
0.756095
0.756735
0.757375
0.758016
0.758657
0.759298
0.759939
0.760581
0.761223
0.761865
0.762507
0.76315
0.763792
0.764435
0.765078
0.765722
0.766366
0.767009
0.767654
0.768298
0.768943
0.769587
0.770232
0.770878
0.771523
0.772169
0.772814
0.773461
0.774107
0.774753
0.7754
0.776047
0.776694
0.777341
0.777989
0.778637
0.779285
0.779933
0.780581
0.78123
0.781878
0.782527
0.783176
0.783826
0.784475
0.785125
0.785775
0.786425
0.787075
0.787725
0.788376
0.789027
0.789678
0.790329
0.79098
0.791632
0.792284
0.792935
0.793587
0.79424
0.794892
0.795545
0.796197
0.79685
0.797503
0.798156
0.79881
0.799463
0.800117
0.800771
0.801425
0.802079
0.802733
0.803388
0.804043
0.804697
0.805352
0.806008
0.806663
0.807318
0.807974
0.80863
0.809286
0.809942
0.810598
0.811254
0.811911
0.812568
0.813225
0.813882
0.814539
0.815196
0.815854
0.816511
0.817169
0.817827
0.818486
0.819144
0.819803
0.820461
0.82112
0.821779
0.822439
0.823098
0.823758
0.824418
0.825078
0.825738
0.826398
0.827059
0.82772
0.828381
0.829043
0.829705
0.830367
0.831029
0.831692
0.832355
0.833018
0.833681
0.834345
0.83501
0.835674
0.836339
0.837005
0.837671
0.838337
0.839004
0.839672
0.84034
0.841008
0.841678
0.842348
0.843018
0.84369
0.844362
0.845035
0.845709
0.846384
0.847059
0.847736
0.848415
0.849094
0.849775
0.850457
0.85114
0.851825
0.852512
0.853201
0.853891
0.854584
0.855279
0.855976
0.856676
0.857378
0.858083
0.858792
0.859504
0.860219
0.860938
0.861661
0.862388
0.86312
0.863856
0.864597
0.865344
0.866096
0.866853
0.867615
0.868384
0.869157
0.869937
0.870725
0.871522
0.872329
0.873158
0.874103
0.875262
1.01428
1.04865
1.01095
0.945502
0.876807
0.815619
0.765019
0.724657
0.692938
0.668056
0.648415
0.632741
0.620069
0.609685
0.601067
0.593831
0.587695
0.582449
0.577933
0.574022
0.57062
0.567651
0.565052
0.562773
0.560772
0.559015
0.557471
0.556117
0.554931
0.553896
0.552995
0.552215
0.551544
0.550972
0.55049
0.55009
0.549764
0.549507
0.549312
0.549174
0.549089
0.549052
0.54906
0.549108
0.549195
0.549317
0.549472
0.549656
0.549868
0.550107
0.550369
0.550654
0.55096
0.551286
0.55163
0.551991
0.552368
0.55276
0.553166
0.553585
0.554016
0.554459
0.554913
0.555377
0.555849
0.556331
0.55682
0.557316
0.557818
0.558325
0.558836
0.559351
0.559867
0.560384
0.560902
0.561419
0.561934
0.562447
0.562959
0.563469
0.563977
0.564484
0.564989
0.565493
0.565997
0.5665
0.567003
0.567506
0.568009
0.568511
0.569014
0.569518
0.570021
0.570525
0.57103
0.571535
0.572041
0.572547
0.573055
0.573563
0.574072
0.574582
0.575093
0.575605
0.576118
0.576632
0.577147
0.577664
0.578181
0.5787
0.579219
0.579739
0.580259
0.580779
0.581298
0.581818
0.582336
0.582854
0.583371
0.583887
0.584402
0.584916
0.585429
0.585942
0.586454
0.586966
0.587477
0.587989
0.5885
0.589011
0.589522
0.590033
0.590545
0.591056
0.591568
0.592081
0.592594
0.593107
0.593621
0.594135
0.59465
0.595165
0.595681
0.596198
0.596715
0.597233
0.597751
0.598269
0.598788
0.599307
0.599827
0.600346
0.600866
0.601385
0.601905
0.602425
0.602945
0.603464
0.603985
0.604505
0.605025
0.605546
0.606066
0.606587
0.607109
0.60763
0.608152
0.608674
0.609196
0.609719
0.610242
0.610765
0.611289
0.611813
0.612337
0.612862
0.613387
0.613913
0.614439
0.614965
0.615491
0.616018
0.616545
0.617071
0.617598
0.618126
0.618653
0.61918
0.619708
0.620236
0.620764
0.621292
0.621821
0.62235
0.62288
0.62341
0.623941
0.624472
0.625003
0.625535
0.626068
0.626601
0.627134
0.627668
0.628203
0.628737
0.629272
0.629808
0.630344
0.63088
0.631416
0.631953
0.63249
0.633027
0.633564
0.634102
0.63464
0.635178
0.635716
0.636254
0.636793
0.637332
0.637871
0.638411
0.638951
0.639491
0.640032
0.640573
0.641114
0.641656
0.642198
0.64274
0.643283
0.643826
0.64437
0.644914
0.645458
0.646003
0.646548
0.647094
0.647639
0.648186
0.648732
0.649279
0.649827
0.650375
0.650923
0.651471
0.65202
0.65257
0.65312
0.65367
0.65422
0.654771
0.655323
0.655875
0.656427
0.656979
0.657532
0.658086
0.658639
0.659194
0.659748
0.660303
0.660858
0.661414
0.66197
0.662527
0.663084
0.663641
0.664199
0.664757
0.665315
0.665874
0.666433
0.666993
0.667553
0.668113
0.668674
0.669235
0.669797
0.670359
0.670921
0.671484
0.672047
0.672611
0.673175
0.67374
0.674304
0.67487
0.675435
0.676001
0.676568
0.677135
0.677702
0.67827
0.678838
0.679407
0.679975
0.680545
0.681115
0.681685
0.682255
0.682826
0.683398
0.68397
0.684542
0.685114
0.685687
0.686261
0.686835
0.687409
0.687984
0.688559
0.689135
0.689711
0.690287
0.690864
0.691441
0.692019
0.692597
0.693176
0.693755
0.694334
0.694914
0.695494
0.696075
0.696656
0.697238
0.69782
0.698402
0.698985
0.699568
0.700152
0.700736
0.701321
0.701906
0.702492
0.703078
0.703664
0.704251
0.704838
0.705426
0.706014
0.706603
0.707192
0.707782
0.708372
0.708962
0.709553
0.710144
0.710736
0.711329
0.711921
0.712514
0.713108
0.713702
0.714297
0.714892
0.715487
0.716083
0.71668
0.717276
0.717874
0.718472
0.71907
0.719668
0.720268
0.720867
0.721467
0.722068
0.722669
0.723271
0.723873
0.724475
0.725078
0.725681
0.726285
0.726889
0.727494
0.7281
0.728705
0.729312
0.729918
0.730525
0.731133
0.731741
0.73235
0.732959
0.733568
0.734179
0.734789
0.7354
0.736012
0.736623
0.737236
0.737849
0.738462
0.739076
0.739691
0.740305
0.740921
0.741537
0.742153
0.74277
0.743387
0.744005
0.744623
0.745242
0.745861
0.746481
0.747101
0.747722
0.748343
0.748965
0.749587
0.75021
0.750833
0.751457
0.752081
0.752705
0.753331
0.753956
0.754582
0.755209
0.755836
0.756464
0.757092
0.757721
0.75835
0.758979
0.75961
0.76024
0.760871
0.761503
0.762135
0.762768
0.763401
0.764034
0.764669
0.765303
0.765938
0.766574
0.76721
0.767847
0.768484
0.769122
0.76976
0.770398
0.771038
0.771677
0.772317
0.772958
0.773599
0.774241
0.774883
0.775526
0.776169
0.776813
0.777457
0.778102
0.778747
0.779393
0.780039
0.780686
0.781333
0.781981
0.782629
0.783278
0.783927
0.784577
0.785227
0.785878
0.786529
0.787181
0.787834
0.788486
0.78914
0.789794
0.790448
0.791103
0.791758
0.792414
0.793071
0.793728
0.794385
0.795043
0.795702
0.796361
0.79702
0.79768
0.798341
0.799002
0.799663
0.800325
0.800988
0.801651
0.802315
0.802979
0.803643
0.804308
0.804974
0.80564
0.806307
0.806974
0.807642
0.80831
0.808979
0.809648
0.810318
0.810988
0.811659
0.81233
0.813002
0.813674
0.814347
0.81502
0.815694
0.816368
0.817043
0.817718
0.818394
0.819071
0.819748
0.820425
0.821103
0.821781
0.82246
0.82314
0.82382
0.8245
0.825181
0.825862
0.826544
0.827227
0.82791
0.828593
0.829277
0.829962
0.830647
0.831333
0.832019
0.832705
0.833392
0.83408
0.834768
0.835457
0.836146
0.836835
0.837525
0.838216
0.838907
0.839599
0.840291
0.840983
0.841677
0.84237
0.843064
0.843759
0.844454
0.84515
0.845846
0.846543
0.84724
0.847937
0.848636
0.849334
0.850033
0.850733
0.851433
0.852134
0.852835
0.853537
0.854239
0.854942
0.855645
0.856348
0.857053
0.857757
0.858462
0.859168
0.859874
0.860581
0.861288
0.861996
0.862704
0.863412
0.864122
0.864831
0.865541
0.866252
0.866963
0.867674
0.868387
0.869099
0.869812
0.870526
0.87124
0.871954
0.872669
0.873385
0.874101
0.874817
0.875534
0.876251
0.876969
0.877688
0.878407
0.879126
0.879846
0.880566
0.881287
0.882008
0.88273
0.883452
0.884175
0.884898
0.885622
0.886346
0.887071
0.887796
0.888521
0.889247
0.889974
0.890701
0.891428
0.892156
0.892885
0.893614
0.894343
0.895073
0.895803
0.896534
0.897265
0.897997
0.898729
0.899462
0.900195
0.900928
0.901662
0.902397
0.903132
0.903867
0.904603
0.90534
0.906076
0.906814
0.907551
0.90829
0.909028
0.909767
0.910507
0.911247
0.911987
0.912728
0.91347
0.914211
0.914954
0.915696
0.91644
0.917183
0.917927
0.918672
0.919417
0.920162
0.920908
0.921654
0.922401
0.923148
0.923896
0.924644
0.925392
0.926141
0.926891
0.92764
0.928391
0.929141
0.929892
0.930644
0.931396
0.932148
0.932901
0.933654
0.934408
0.935162
0.935917
0.936672
0.937427
0.938183
0.938939
0.939696
0.940453
0.94121
0.941968
0.942727
0.943486
0.944245
0.945004
0.945764
0.946525
0.947286
0.948047
0.948809
0.949571
0.950333
0.951096
0.951859
0.952623
0.953387
0.954152
0.954917
0.955682
0.956448
0.957214
0.95798
0.958747
0.959514
0.960282
0.96105
0.961819
0.962588
0.963357
0.964127
0.964897
0.965667
0.966438
0.967209
0.967981
0.968753
0.969525
0.970298
0.971071
0.971845
0.972619
0.973393
0.974168
0.974943
0.975718
0.976494
0.97727
0.978046
0.978823
0.979601
0.980378
0.981156
0.981935
0.982713
0.983492
0.984272
0.985052
0.985832
0.986612
0.987393
0.988174
0.988956
0.989738
0.99052
0.991303
0.992086
0.992869
0.993653
0.994437
0.995221
0.996006
0.996791
0.997577
0.998362
0.999148
0.999935
1.00072
1.00151
1.0023
1.00308
1.00387
1.00466
1.00545
1.00624
1.00703
1.00782
1.00861
1.0094
1.01019
1.01098
1.01177
1.01256
1.01335
1.01415
1.01494
1.01573
1.01653
1.01732
1.01811
1.01891
1.0197
1.0205
1.02129
1.02209
1.02288
1.02368
1.02447
1.02527
1.02607
1.02686
1.02766
1.02846
1.02926
1.03006
1.03085
1.03165
1.03245
1.03325
1.03405
1.03485
1.03565
1.03645
1.03725
1.03805
1.03886
1.03966
1.04046
1.04126
1.04206
1.04287
1.04367
1.04447
1.04528
1.04608
1.04688
1.04769
1.04849
1.0493
1.0501
1.05091
1.05171
1.05252
1.05332
1.05413
1.05494
1.05574
1.05655
1.05736
1.05817
1.05897
1.05978
1.06059
1.0614
1.06221
1.06302
1.06382
1.06463
1.06544
1.06625
1.06706
1.06787
1.06868
1.06949
1.07031
1.07112
1.07193
1.07274
1.07355
1.07436
1.07517
1.07599
1.0768
1.07761
1.07843
1.07924
1.08005
1.08087
1.08168
1.08249
1.08331
1.08412
1.08494
1.08575
1.08657
1.08738
1.0882
1.08901
1.08983
1.09064
1.09146
1.09227
1.09309
1.09391
1.09472
1.09554
1.09636
1.09718
1.09799
1.09881
1.09963
1.10045
1.10126
1.10208
1.1029
1.10372
1.10454
1.10536
1.10618
1.10699
1.10781
1.10863
1.10945
1.11027
1.11109
1.11191
1.11273
1.11355
1.11438
1.1152
1.11602
1.11684
1.11766
1.11848
1.1193
1.12013
1.12095
1.12177
1.12259
1.12341
1.12424
1.12506
1.12588
1.12671
1.12753
1.12836
1.12918
1.13
1.13083
1.13165
1.13248
1.1333
1.13413
1.13496
1.13578
1.13661
1.13744
1.13826
1.13909
1.13992
1.14075
1.14158
1.14241
1.14324
1.14407
1.1449
1.14573
1.14656
1.14739
1.14823
1.14906
1.1499
1.15073
1.15157
1.15241
1.15324
1.15408
1.15492
1.15576
1.15661
1.15745
1.1583
1.15914
1.15999
1.16084
1.16169
1.16254
1.1634
1.16426
1.16512
1.16598
1.16684
1.16771
1.16858
1.16945
1.17033
1.17121
1.17209
1.17298
1.17387
1.17477
1.17567
1.17657
1.17748
1.1784
1.17932
1.18025
1.18118
1.18212
1.18306
1.18401
1.18496
1.18592
1.18689
1.18786
1.18884
1.18993
1.1912
1.01134
1.05559
1.05832
1.03262
0.992302
0.948526
0.907468
0.871649
0.841544
0.816684
0.796274
0.779492
0.765613
0.754046
0.744321
0.736078
0.729037
0.722981
0.717743
0.71319
0.709217
0.705738
0.702686
0.700004
0.697643
0.695565
0.693736
0.692129
0.690717
0.689482
0.688404
0.687469
0.686661
0.68597
0.685384
0.684895
0.684493
0.684171
0.683923
0.683742
0.683623
0.683561
0.683552
0.683591
0.683675
0.6838
0.683964
0.684163
0.684395
0.684658
0.684949
0.685267
0.685609
0.685975
0.686362
0.68677
0.687196
0.68764
0.6881
0.688576
0.689066
0.689569
0.690085
0.690613
0.691151
0.6917
0.692257
0.692822
0.693394
0.693973
0.694556
0.695143
0.695732
0.696323
0.696914
0.697504
0.698094
0.698682
0.699268
0.699852
0.700434
0.701015
0.701595
0.702173
0.702751
0.703328
0.703905
0.704482
0.705058
0.705635
0.706212
0.706789
0.707366
0.707944
0.708522
0.709101
0.709681
0.710261
0.710843
0.711425
0.712008
0.712592
0.713177
0.713764
0.714351
0.71494
0.71553
0.716121
0.716713
0.717306
0.7179
0.718495
0.71909
0.719685
0.720279
0.720873
0.721466
0.722059
0.72265
0.72324
0.72383
0.724418
0.725005
0.725592
0.726178
0.726764
0.727349
0.727934
0.728519
0.729103
0.729688
0.730273
0.730858
0.731443
0.732028
0.732614
0.7332
0.733787
0.734374
0.734962
0.73555
0.736139
0.736729
0.737319
0.737909
0.738501
0.739092
0.739685
0.740277
0.74087
0.741463
0.742056
0.742649
0.743242
0.743836
0.744429
0.745023
0.745616
0.74621
0.746803
0.747397
0.747991
0.748586
0.74918
0.749775
0.75037
0.750965
0.75156
0.752156
0.752752
0.753349
0.753946
0.754543
0.75514
0.755738
0.756337
0.756935
0.757534
0.758134
0.758733
0.759333
0.759933
0.760533
0.761133
0.761734
0.762334
0.762935
0.763536
0.764137
0.764738
0.76534
0.765942
0.766544
0.767146
0.767749
0.768353
0.768957
0.769561
0.770166
0.770772
0.771378
0.771984
0.772591
0.773199
0.773806
0.774415
0.775023
0.775632
0.776241
0.776851
0.777461
0.778071
0.778681
0.779292
0.779903
0.780514
0.781125
0.781737
0.782348
0.78296
0.783572
0.784185
0.784797
0.78541
0.786024
0.786637
0.787251
0.787865
0.78848
0.789095
0.78971
0.790326
0.790942
0.791559
0.792175
0.792793
0.79341
0.794029
0.794647
0.795266
0.795885
0.796505
0.797125
0.797745
0.798366
0.798987
0.799608
0.80023
0.800852
0.801475
0.802098
0.802722
0.803346
0.80397
0.804594
0.80522
0.805845
0.806471
0.807097
0.807724
0.808351
0.808978
0.809606
0.810234
0.810863
0.811492
0.812121
0.812751
0.813381
0.814012
0.814642
0.815274
0.815905
0.816537
0.81717
0.817803
0.818436
0.81907
0.819704
0.820338
0.820973
0.821608
0.822244
0.82288
0.823516
0.824153
0.82479
0.825428
0.826066
0.826704
0.827343
0.827982
0.828622
0.829262
0.829902
0.830543
0.831184
0.831826