/*--------------------------------*- C++ -*----------------------------------*\
| =========                 |                                                 |
| \\      /  F ield         | OpenFOAM: The Open Source CFD Toolbox           |
|  \\    /   O peration     | Version:  2512                                  |
|   \\  /    A nd           | Website:  www.openfoam.com                      |
|    \\/     M anipulation  |                                                 |
\*---------------------------------------------------------------------------*/
FoamFile
{
    version     2.0;
    format      ascii;
    arch        "LSB;label=32;scalar=64";
    class       volScalarField;
    location    "0.003";
    object      Uy;
}
// * * * * * * * * * * * * * * * * * * * * * * * * * * * * * * * * * * * * * //

dimensions      [0 1 -1 0 0 0 0];

internalField   nonuniform List<scalar> 
100000
(
0.129828
0.0998492
0.0496253
0.0263974
0.0149878
0.00870275
0.00521937
0.00329297
0.00220188
0.00156068
0.00116796
0.000916226
0.000746776
0.000626995
0.000538419
0.000470348
0.000416387
0.000372567
0.000336319
0.000305904
0.000280089
0.000257971
0.000238869
0.000222254
0.000207712
0.000194913
0.000183587
0.000173519
0.000164528
0.000156466
0.00014921
0.000142654
0.000136712
0.000131307
0.00012638
0.000121879
0.000117761
0.00011399
0.000110534
0.000107364
0.000104455
0.000101783
9.93268e-05
9.70658e-05
9.49823e-05
9.30598e-05
9.12832e-05
8.9639e-05
8.81147e-05
8.66996e-05
8.53844e-05
8.41612e-05
8.30231e-05
8.19635e-05
8.09765e-05
8.00564e-05
7.91982e-05
7.8397e-05
7.76486e-05
7.6949e-05
7.62945e-05
7.56813e-05
7.51066e-05
7.45682e-05
7.40651e-05
7.35973e-05
7.3167e-05
7.2778e-05
7.24362e-05
7.21489e-05
7.19234e-05
7.17654e-05
7.16773e-05
7.16565e-05
7.16946e-05
7.17787e-05
7.18924e-05
7.20191e-05
7.21443e-05
7.22575e-05
7.23526e-05
7.24278e-05
7.24843e-05
7.25254e-05
7.25547e-05
7.25758e-05
7.25912e-05
7.26031e-05
7.26127e-05
7.26208e-05
7.26279e-05
7.26341e-05
7.26394e-05
7.26438e-05
7.26472e-05
7.26495e-05
7.26506e-05
7.26502e-05
7.26483e-05
7.26447e-05
7.26392e-05
7.26317e-05
7.26219e-05
7.26094e-05
7.25942e-05
7.25765e-05
7.25573e-05
7.25382e-05
7.2522e-05
7.25124e-05
7.2514e-05
7.25312e-05
7.25677e-05
7.26254e-05
7.2704e-05
7.28009e-05
7.29117e-05
7.30306e-05
7.31522e-05
7.32718e-05
7.33861e-05
7.34935e-05
7.35932e-05
7.36855e-05
7.37714e-05
7.38517e-05
7.39274e-05
7.39992e-05
7.40679e-05
7.41337e-05
7.4197e-05
7.42578e-05
7.43163e-05
7.43725e-05
7.44264e-05
7.4478e-05
7.45273e-05
7.45745e-05
7.46196e-05
7.46631e-05
7.47052e-05
7.47468e-05
7.47887e-05
7.48319e-05
7.48777e-05
7.49272e-05
7.49817e-05
7.50417e-05
7.51078e-05
7.51795e-05
7.5256e-05
7.53362e-05
7.54187e-05
7.55023e-05
7.55861e-05
7.56695e-05
7.57522e-05
7.58342e-05
7.59155e-05
7.59963e-05
7.60766e-05
7.61564e-05
7.62358e-05
7.63147e-05
7.63932e-05
7.64712e-05
7.65487e-05
7.66257e-05
7.67022e-05
7.67783e-05
7.6854e-05
7.69294e-05
7.70047e-05
7.708e-05
7.71558e-05
7.72324e-05
7.73106e-05
7.73909e-05
7.7474e-05
7.75603e-05
7.76502e-05
7.77434e-05
7.78396e-05
7.79381e-05
7.80377e-05
7.81376e-05
7.82367e-05
7.83344e-05
7.843e-05
7.85235e-05
7.86145e-05
7.87033e-05
7.879e-05
7.88749e-05
7.89583e-05
7.9041e-05
7.91233e-05
7.92059e-05
7.92893e-05
7.93739e-05
7.946e-05
7.95477e-05
7.9637e-05
7.97279e-05
7.98203e-05
7.99141e-05
8.00096e-05
8.01068e-05
8.02058e-05
8.03069e-05
8.041e-05
8.05152e-05
8.06221e-05
8.07305e-05
8.08399e-05
8.095e-05
8.10602e-05
8.11704e-05
8.12803e-05
8.13898e-05
8.14989e-05
8.16077e-05
8.1716e-05
8.18242e-05
8.1932e-05
8.20397e-05
8.21473e-05
8.22547e-05
8.23621e-05
8.24694e-05
8.25767e-05
8.26842e-05
8.27919e-05
8.28999e-05
8.30084e-05
8.31176e-05
8.32275e-05
8.33383e-05
8.345e-05
8.35626e-05
8.36761e-05
8.37903e-05
8.3905e-05
8.40202e-05
8.41356e-05
8.42512e-05
8.43669e-05
8.44826e-05
8.45984e-05
8.47144e-05
8.48307e-05
8.49474e-05
8.50646e-05
8.51824e-05
8.53008e-05
8.54199e-05
8.55396e-05
8.566e-05
8.57809e-05
8.59024e-05
8.60243e-05
8.61467e-05
8.62696e-05
8.6393e-05
8.65169e-05
8.66414e-05
8.67664e-05
8.6892e-05
8.70181e-05
8.71447e-05
8.72717e-05
8.7399e-05
8.75267e-05
8.76546e-05
8.77827e-05
8.79109e-05
8.80394e-05
8.81682e-05
8.82972e-05
8.84267e-05
8.85565e-05
8.86869e-05
8.88177e-05
8.89491e-05
8.90809e-05
8.92133e-05
8.93461e-05
8.94793e-05
8.9613e-05
8.97471e-05
8.98815e-05
9.00164e-05
9.01517e-05
9.02874e-05
9.04235e-05
9.05601e-05
9.0697e-05
9.08343e-05
9.09719e-05
9.11099e-05
9.12482e-05
9.13869e-05
9.15259e-05
9.16653e-05
9.1805e-05
9.1945e-05
9.20854e-05
9.2226e-05
9.2367e-05
9.25084e-05
9.265e-05
9.2792e-05
9.29343e-05
9.30769e-05
9.32199e-05
9.33632e-05
9.35068e-05
9.36508e-05
9.37951e-05
9.39397e-05
9.40846e-05
9.42298e-05
9.43754e-05
9.45212e-05
9.46674e-05
9.48139e-05
9.49607e-05
9.51077e-05
9.52551e-05
9.54028e-05
9.55507e-05
9.5699e-05
9.58475e-05
9.59963e-05
9.61454e-05
9.62948e-05
9.64445e-05
9.65945e-05
9.67448e-05
9.68954e-05
9.70463e-05
9.71974e-05
9.73489e-05
9.75006e-05
9.76526e-05
9.78048e-05
9.79574e-05
9.81101e-05
9.82632e-05
9.84165e-05
9.857e-05
9.87238e-05
9.88779e-05
9.90322e-05
9.91868e-05
9.93417e-05
9.94967e-05
9.96521e-05
9.98076e-05
9.99634e-05
0.000100119
0.000100276
0.000100432
0.000100589
0.000100746
0.000100903
0.00010106
0.000101218
0.000101376
0.000101534
0.000101692
0.000101851
0.00010201
0.000102169
0.000102328
0.000102487
0.000102647
0.000102807
0.000102967
0.000103127
0.000103287
0.000103448
0.000103609
0.00010377
0.000103931
0.000104092
0.000104253
0.000104415
0.000104577
0.000104739
0.000104901
0.000105063
0.000105226
0.000105389
0.000105551
0.000105714
0.000105878
0.000106041
0.000106204
0.000106368
0.000106532
0.000106695
0.000106859
0.000107024
0.000107188
0.000107352
0.000107517
0.000107681
0.000107846
0.000108011
0.000108176
0.000108341
0.000108506
0.000108671
0.000108836
0.000109002
0.000109167
0.000109333
0.000109498
0.000109664
0.00010983
0.000109996
0.000110162
0.000110328
0.000110494
0.00011066
0.000110826
0.000110993
0.000111159
0.000111326
0.000111492
0.000111658
0.000111825
0.000111991
0.000112158
0.000112324
0.000112491
0.000112657
0.000112824
0.000112991
0.000113157
0.000113324
0.00011349
0.000113657
0.000113824
0.00011399
0.000114157
0.000114323
0.00011449
0.000114657
0.000114823
0.00011499
0.000115156
0.000115323
0.000115489
0.000115655
0.000115822
0.000115988
0.000116154
0.000116321
0.000116487
0.000116653
0.000116819
0.000116985
0.000117151
0.000117317
0.000117483
0.000117649
0.000117815
0.00011798
0.000118146
0.000118311
0.000118477
0.000118642
0.000118807
0.000118973
0.000119138
0.000119303
0.000119468
0.000119633
0.000119798
0.000119962
0.000120127
0.000120292
0.000120456
0.000120621
0.000120785
0.000120949
0.000121114
0.000121278
0.000121442
0.000121606
0.00012177
0.000121933
0.000122097
0.000122261
0.000122425
0.000122588
0.000122752
0.000122915
0.000123079
0.000123242
0.000123405
0.000123569
0.000123732
0.000123895
0.000124058
0.00012422
0.000124383
0.000124546
0.000124708
0.000124871
0.000125033
0.000125195
0.000125358
0.00012552
0.000125682
0.000125844
0.000126005
0.000126167
0.000126328
0.00012649
0.000126651
0.000126812
0.000126973
0.000127134
0.000127295
0.000127455
0.000127616
0.000127776
0.000127936
0.000128097
0.000128256
0.000128416
0.000128576
0.000128735
0.000128895
0.000129054
0.000129213
0.000129372
0.00012953
0.000129689
0.000129847
0.000130006
0.000130164
0.000130321
0.000130479
0.000130637
0.000130794
0.000130951
0.000131108
0.000131265
0.000131422
0.000131579
0.000131735
0.000131891
0.000132047
0.000132203
0.000132359
0.000132514
0.000132669
0.000132824
0.000132979
0.000133134
0.000133288
0.000133442
0.000133596
0.00013375
0.000133904
0.000134057
0.00013421
0.000134364
0.000134516
0.000134669
0.000134821
0.000134973
0.000135125
0.000135277
0.000135429
0.00013558
0.000135731
0.000135882
0.000136032
0.000136183
0.000136333
0.000136483
0.000136633
0.000136782
0.000136931
0.00013708
0.000137229
0.000137377
0.000137525
0.000137673
0.000137821
0.000137968
0.000138116
0.000138263
0.00013841
0.000138556
0.000138702
0.000138848
0.000138994
0.00013914
0.000139285
0.00013943
0.000139574
0.000139719
0.000139863
0.000140007
0.000140151
0.000140294
0.000140437
0.00014058
0.000140723
0.000140865
0.000141007
0.000141149
0.00014129
0.000141431
0.000141572
0.000141712
0.000141852
0.000141992
0.000142132
0.000142271
0.000142411
0.000142549
0.000142688
0.000142826
0.000142964
0.000143102
0.000143239
0.000143376
0.000143513
0.000143649
0.000143786
0.000143921
0.000144057
0.000144192
0.000144327
0.000144462
0.000144596
0.00014473
0.000144864
0.000144997
0.00014513
0.000145263
0.000145396
0.000145528
0.000145659
0.000145791
0.000145922
0.000146052
0.000146183
0.000146313
0.000146442
0.000146572
0.000146701
0.00014683
0.000146958
0.000147086
0.000147214
0.000147341
0.000147469
0.000147595
0.000147722
0.000147848
0.000147974
0.000148099
0.000148224
0.000148349
0.000148473
0.000148597
0.000148721
0.000148844
0.000148967
0.000149089
0.000149212
0.000149333
0.000149455
0.000149576
0.000149697
0.000149817
0.000149937
0.000150057
0.000150176
0.000150295
0.000150414
0.000150532
0.000150649
0.000150767
0.000150884
0.000151
0.000151117
0.000151233
0.000151348
0.000151464
0.000151578
0.000151693
0.000151807
0.000151921
0.000152034
0.000152147
0.00015226
0.000152372
0.000152483
0.000152595
0.000152706
0.000152816
0.000152926
0.000153036
0.000153145
0.000153254
0.000153363
0.000153471
0.000153579
0.000153686
0.000153793
0.0001539
0.000154006
0.000154112
0.000154217
0.000154323
0.000154427
0.000154531
0.000154635
0.000154739
0.000154842
0.000154944
0.000155046
0.000155148
0.000155249
0.00015535
0.00015545
0.00015555
0.00015565
0.000155749
0.000155848
0.000155946
0.000156044
0.000156141
0.000156239
0.000156335
0.000156431
0.000156527
0.000156623
0.000156718
0.000156812
0.000156906
0.000157
0.000157093
0.000157186
0.000157278
0.00015737
0.000157462
0.000157553
0.000157644
0.000157734
0.000157824
0.000157913
0.000158002
0.000158091
0.000158179
0.000158266
0.000158353
0.00015844
0.000158526
0.000158612
0.000158697
0.000158782
0.000158866
0.00015895
0.000159034
0.000159117
0.0001592
0.000159282
0.000159364
0.000159445
0.000159526
0.000159606
0.000159686
0.000159766
0.000159845
0.000159924
0.000160002
0.00016008
0.000160157
0.000160233
0.00016031
0.000160386
0.000160461
0.000160536
0.00016061
0.000160684
0.000160758
0.000160831
0.000160903
0.000160975
0.000161047
0.000161118
0.000161189
0.000161259
0.000161329
0.000161398
0.000161467
0.000161535
0.000161603
0.00016167
0.000161737
0.000161803
0.000161869
0.000161935
0.000162
0.000162064
0.000162128
0.000162192
0.000162255
0.000162317
0.000162379
0.000162441
0.000162502
0.000162563
0.000162623
0.000162682
0.000162741
0.0001628
0.000162858
0.000162916
0.000162973
0.00016303
0.000163086
0.000163141
0.000163197
0.000163251
0.000163305
0.000163359
0.000163412
0.000163465
0.000163517
0.000163569
0.00016362
0.000163671
0.000163721
0.000163771
0.00016382
0.000163868
0.000163917
0.000163964
0.000164011
0.000164058
0.000164104
0.00016415
0.000164195
0.000164239
0.000164283
0.000164327
0.00016437
0.000164412
0.000164454
0.000164496
0.000164536
0.000164577
0.000164617
0.000164656
0.000164694
0.000164733
0.00016477
0.000164807
0.000164844
0.00016488
0.000164915
0.00016495
0.000164985
0.000165018
0.000165052
0.000165084
0.000165116
0.000165148
0.000165179
0.000165209
0.000165239
0.000165268
0.000165297
0.000165325
0.000165352
0.000165379
0.000165405
0.000165431
0.000165456
0.00016548
0.000165504
0.000165527
0.000165549
0.000165571
0.000165592
0.000165612
0.000165632
0.00016565
0.000165668
0.000165686
0.000165702
0.000165718
0.000165733
0.000165747
0.000165761
0.000165773
0.000165785
0.000165796
0.000165805
0.000165814
0.000165822
0.000165829
0.000165835
0.00016584
0.000165844
0.000165847
0.000165848
0.000165849
0.000165848
0.000165846
0.000165842
0.000165837
0.000165831
0.000165822
0.000165813
0.000165801
0.000165788
0.000165773
0.000165757
0.000165738
0.000165717
0.000165694
0.000165669
0.000165641
0.000165611
0.000165578
0.000165542
0.000165503
0.000165461
0.000165416
0.000165367
0.000165314
0.000165258
0.000165197
0.000165131
0.000165061
0.000164985
0.000164904
0.000164818
0.000164725
0.000164626
0.00016452
0.000164406
0.000164285
0.000164155
0.000164015
0.000163867
0.000163707
0.000163537
0.000163355
0.00016316
0.000162951
0.000162728
0.000162489
0.000162233
0.000161959
0.000161665
0.00016135
0.000161012
0.00016065
0.000160261
0.000159843
0.000159394
0.000158912
0.000158394
0.000157838
0.000157239
0.000156594
0.000155901
0.000155155
0.000154352
0.000153487
0.000152557
0.000151556
0.00015048
0.000149326
0.00014809
0.000146768
0.000145354
0.000143836
0.000142183
0.000140333
0.000138149
0.000135331
0.000131244
0.000125557
0.000121376
0.000116967
4.70055e-05
0.267837
0.292091
0.212601
0.143398
0.0951451
0.063411
0.0430127
0.0299382
0.0214781
0.0159139
0.0121766
0.00960265
0.00777942
0.00644907
0.00544956
0.00467793
0.00406778
0.00357532
0.00317099
0.00283423
0.00255035
0.00230862
0.00210094
0.00192116
0.00176446
0.00162705
0.0015059
0.00139856
0.00130302
0.00121764
0.00114103
0.00107204
0.00100972
0.000953232
0.000901893
0.000855115
0.000812403
0.000773338
0.00073756
0.000704755
0.000674644
0.000646976
0.000621523
0.000598081
0.000576464
0.000556503
0.000538043
0.000520945
0.000505086
0.000490355
0.000476657
0.000463908
0.000452034
0.000440967
0.000430648
0.000421019
0.00041203
0.000403635
0.000395794
0.000388467
0.000381621
0.000375225
0.000369253
0.00036369
0.000358532
0.000353786
0.000349477
0.000345643
0.000342338
0.000339621
0.000337552
0.000336169
0.00033548
0.000335448
0.000335988
0.000336972
0.00033825
0.000339664
0.000341079
0.000342391
0.000343534
0.000344481
0.000345233
0.000345809
0.000346237
0.000346546
0.000346762
0.000346905
0.00034699
0.000347026
0.000347022
0.00034698
0.000346905
0.000346797
0.000346657
0.000346486
0.000346283
0.000346049
0.000345783
0.000345486
0.000345158
0.000344798
0.000344406
0.000343985
0.000343538
0.000343072
0.0003426
0.000342143
0.000341728
0.000341391
0.00034117
0.000341103
0.000341221
0.000341535
0.000342043
0.000342717
0.000343517
0.000344393
0.000345295
0.00034618
0.000347014
0.000347779
0.000348466
0.000349074
0.000349609
0.000350078
0.000350488
0.000350847
0.000351159
0.00035143
0.000351662
0.000351857
0.000352018
0.000352145
0.00035224
0.000352303
0.000352337
0.000352343
0.000352325
0.000352286
0.000352233
0.000352172
0.000352112
0.000352065
0.000352041
0.000352051
0.000352104
0.000352208
0.000352364
0.00035257
0.000352818
0.000353098
0.000353398
0.000353707
0.000354016
0.000354318
0.000354611
0.000354892
0.000355162
0.000355421
0.000355669
0.000355906
0.000356133
0.000356349
0.000356555
0.00035675
0.000356935
0.000357109
0.000357274
0.00035743
0.000357577
0.000357718
0.000357854
0.000357989
0.000358126
0.000358269
0.000358424
0.000358598
0.000358795
0.000359019
0.000359271
0.000359551
0.000359854
0.000360174
0.0003605
0.000360824
0.000361137
0.000361432
0.000361705
0.000361951
0.00036217
0.000362363
0.00036253
0.000362675
0.000362803
0.000362916
0.000363022
0.000363126
0.000363232
0.000363345
0.000363468
0.000363602
0.000363749
0.000363907
0.000364079
0.000364263
0.000364461
0.000364674
0.000364902
0.000365147
0.000365409
0.000365687
0.000365978
0.000366279
0.000366586
0.000366896
0.000367204
0.000367508
0.000367806
0.000368096
0.000368379
0.000368653
0.000368921
0.000369181
0.000369435
0.000369682
0.000369924
0.000370161
0.000370393
0.000370621
0.000370845
0.000371067
0.000371287
0.000371508
0.000371729
0.000371952
0.00037218
0.000372411
0.000372648
0.000372889
0.000373135
0.000373384
0.000373634
0.000373885
0.000374136
0.000374385
0.000374632
0.000374876
0.000375119
0.00037536
0.0003756
0.000375841
0.000376084
0.000376328
0.000376575
0.000376825
0.000377078
0.000377333
0.00037759
0.00037785
0.000378111
0.000378374
0.000378638
0.000378905
0.000379173
0.000379443
0.000379716
0.000379991
0.000380267
0.000380545
0.000380823
0.000381102
0.000381381
0.000381659
0.000381936
0.000382212
0.000382487
0.000382762
0.000383037
0.000383313
0.000383589
0.000383867
0.000384146
0.000384428
0.000384711
0.000384996
0.000385282
0.00038557
0.000385859
0.000386149
0.00038644
0.000386732
0.000387025
0.000387319
0.000387613
0.000387909
0.000388205
0.000388502
0.0003888
0.000389098
0.000389397
0.000389697
0.000389997
0.000390298
0.000390599
0.000390901
0.000391203
0.000391506
0.000391809
0.000392113
0.000392418
0.000392723
0.000393028
0.000393334
0.000393641
0.000393949
0.000394256
0.000394565
0.000394874
0.000395184
0.000395494
0.000395805
0.000396116
0.000396427
0.000396739
0.000397052
0.000397365
0.000397679
0.000397993
0.000398308
0.000398623
0.000398939
0.000399255
0.000399572
0.000399889
0.000400206
0.000400524
0.000400843
0.000401162
0.000401482
0.000401802
0.000402122
0.000402443
0.000402765
0.000403087
0.000403409
0.000403732
0.000404055
0.000404379
0.000404703
0.000405028
0.000405353
0.000405678
0.000406004
0.000406331
0.000406658
0.000406985
0.000407313
0.000407641
0.00040797
0.000408299
0.000408628
0.000408958
0.000409289
0.000409619
0.000409951
0.000410282
0.000410614
0.000410947
0.000411279
0.000411613
0.000411946
0.00041228
0.000412615
0.000412949
0.000413285
0.00041362
0.000413956
0.000414293
0.000414629
0.000414966
0.000415304
0.000415642
0.00041598
0.000416318
0.000416657
0.000416996
0.000417336
0.000417676
0.000418016
0.000418357
0.000418698
0.00041904
0.000419381
0.000419724
0.000420066
0.000420409
0.000420752
0.000421095
0.000421439
0.000421783
0.000422128
0.000422472
0.000422818
0.000423163
0.000423508
0.000423854
0.0004242
0.000424547
0.000424893
0.00042524
0.000425588
0.000425935
0.000426283
0.000426631
0.000426979
0.000427328
0.000427676
0.000428025
0.000428375
0.000428724
0.000429074
0.000429424
0.000429774
0.000430125
0.000430476
0.000430827
0.000431178
0.00043153
0.000431881
0.000432233
0.000432585
0.000432937
0.00043329
0.000433642
0.000433995
0.000434348
0.000434701
0.000435054
0.000435408
0.000435761
0.000436115
0.000436469
0.000436823
0.000437177
0.000437532
0.000437887
0.000438242
0.000438597
0.000438952
0.000439307
0.000439662
0.000440018
0.000440374
0.000440729
0.000441085
0.000441441
0.000441797
0.000442153
0.000442509
0.000442866
0.000443222
0.000443579
0.000443935
0.000444292
0.00044465
0.000445007
0.000445364
0.000445722
0.000446079
0.000446436
0.000446794
0.000447152
0.000447509
0.000447867
0.000448225
0.000448583
0.000448941
0.000449298
0.000449656
0.000450014
0.000450372
0.000450731
0.000451089
0.000451447
0.000451806
0.000452165
0.000452523
0.000452882
0.00045324
0.000453599
0.000453958
0.000454317
0.000454676
0.000455035
0.000455393
0.000455752
0.000456112
0.000456471
0.00045683
0.000457189
0.000457548
0.000457908
0.000458267
0.000458627
0.000458986
0.000459346
0.000459705
0.000460064
0.000460424
0.000460783
0.000461143
0.000461502
0.000461862
0.000462221
0.000462581
0.00046294
0.0004633
0.00046366
0.000464019
0.000464379
0.000464738
0.000465098
0.000465457
0.000465817
0.000466176
0.000466536
0.000466895
0.000467254
0.000467614
0.000467973
0.000468332
0.000468692
0.000469051
0.00046941
0.000469768
0.000470127
0.000470486
0.000470845
0.000471203
0.000471562
0.000471921
0.000472279
0.000472637
0.000472996
0.000473354
0.000473712
0.000474071
0.000474429
0.000474787
0.000475145
0.000475503
0.00047586
0.000476218
0.000476576
0.000476934
0.000477291
0.000477648
0.000478005
0.000478362
0.000478719
0.000479076
0.000479433
0.000479789
0.000480145
0.000480501
0.000480857
0.000481213
0.000481569
0.000481925
0.000482281
0.000482636
0.000482992
0.000483347
0.000483702
0.000484057
0.000484412
0.000484766
0.00048512
0.000485475
0.000485829
0.000486183
0.000486536
0.00048689
0.000487244
0.000487597
0.00048795
0.000488303
0.000488655
0.000489008
0.00048936
0.000489712
0.000490064
0.000490416
0.000490767
0.000491118
0.000491469
0.00049182
0.000492171
0.000492521
0.000492872
0.000493222
0.000493572
0.000493922
0.000494271
0.000494621
0.00049497
0.000495319
0.000495667
0.000496016
0.000496364
0.000496712
0.00049706
0.000497408
0.000497755
0.000498102
0.000498449
0.000498795
0.000499141
0.000499487
0.000499832
0.000500177
0.000500522
0.000500867
0.000501212
0.000501556
0.0005019
0.000502244
0.000502588
0.000502931
0.000503274
0.000503617
0.00050396
0.000504302
0.000504644
0.000504985
0.000505326
0.000505667
0.000506008
0.000506348
0.000506689
0.000507029
0.000507369
0.000507708
0.000508047
0.000508386
0.000508725
0.000509063
0.000509401
0.000509738
0.000510075
0.000510412
0.000510748
0.000511084
0.000511419
0.000511754
0.000512089
0.000512424
0.000512758
0.000513092
0.000513426
0.00051376
0.000514093
0.000514426
0.000514759
0.000515091
0.000515423
0.000515754
0.000516085
0.000516416
0.000516746
0.000517076
0.000517406
0.000517735
0.000518064
0.000518392
0.00051872
0.000519048
0.000519375
0.000519702
0.000520029
0.000520356
0.000520681
0.000521007
0.000521332
0.000521657
0.000521981
0.000522305
0.000522628
0.000522951
0.000523274
0.000523596
0.000523917
0.000524239
0.00052456
0.00052488
0.000525201
0.00052552
0.00052584
0.000526159
0.000526478
0.000526797
0.000527115
0.000527432
0.000527749
0.000528066
0.000528382
0.000528698
0.000529013
0.000529327
0.000529642
0.000529955
0.000530269
0.000530581
0.000530894
0.000531206
0.000531517
0.000531828
0.000532139
0.000532449
0.000532759
0.000533069
0.000533378
0.000533687
0.000533995
0.000534303
0.00053461
0.000534917
0.000535223
0.000535529
0.000535835
0.00053614
0.000536444
0.000536748
0.000537051
0.000537353
0.000537656
0.000537957
0.000538259
0.000538559
0.00053886
0.000539159
0.000539459
0.000539757
0.000540056
0.000540353
0.000540651
0.000540947
0.000541244
0.00054154
0.000541835
0.00054213
0.000542425
0.000542719
0.000543012
0.000543305
0.000543598
0.00054389
0.000544181
0.000544472
0.000544763
0.000545053
0.000545342
0.000545631
0.000545919
0.000546206
0.000546493
0.000546779
0.000547065
0.000547351
0.000547635
0.00054792
0.000548203
0.000548487
0.000548769
0.000549051
0.000549333
0.000549614
0.000549894
0.000550174
0.000550453
0.000550732
0.00055101
0.000551288
0.000551565
0.000551842
0.000552118
0.000552394
0.000552668
0.000552943
0.000553216
0.00055349
0.000553762
0.000554034
0.000554306
0.000554577
0.000554847
0.000555117
0.000555387
0.000555655
0.000555923
0.000556191
0.000556458
0.000556724
0.000556989
0.000557254
0.000557518
0.000557782
0.000558045
0.000558307
0.000558569
0.000558831
0.000559091
0.000559351
0.000559611
0.00055987
0.000560128
0.000560386
0.000560643
0.0005609
0.000561156
0.000561411
0.000561665
0.000561919
0.000562173
0.000562425
0.000562677
0.000562929
0.00056318
0.00056343
0.000563679
0.000563928
0.000564177
0.000564424
0.000564671
0.000564918
0.000565163
0.000565409
0.000565653
0.000565897
0.00056614
0.000566383
0.000566624
0.000566866
0.000567106
0.000567346
0.000567585
0.000567824
0.000568062
0.000568299
0.000568536
0.000568771
0.000569006
0.000569241
0.000569474
0.000569707
0.00056994
0.000570171
0.000570402
0.000570632
0.000570861
0.000571089
0.000571317
0.000571544
0.00057177
0.000571995
0.000572219
0.000572443
0.000572666
0.000572888
0.000573109
0.00057333
0.000573549
0.000573768
0.000573986
0.000574203
0.000574419
0.000574634
0.000574848
0.000575061
0.000575273
0.000575484
0.000575694
0.000575903
0.000576111
0.000576318
0.000576524
0.000576728
0.000576932
0.000577134
0.000577334
0.000577534
0.000577732
0.000577928
0.000578123
0.000578317
0.000578509
0.000578699
0.000578887
0.000579074
0.000579259
0.000579442
0.000579622
0.000579801
0.000579978
0.000580152
0.000580323
0.000580493
0.000580659
0.000580823
0.000580984
0.000581141
0.000581296
0.000581447
0.000581595
0.000581739
0.000581879
0.000582014
0.000582146
0.000582272
0.000582394
0.00058251
0.000582621
0.000582725
0.000582824
0.000582916
0.000583001
0.000583078
0.000583148
0.000583209
0.000583262
0.000583305
0.000583338
0.000583361
0.000583372
0.000583372
0.000583358
0.000583332
0.000583291
0.000583234
0.000583162
0.000583071
0.000582963
0.000582834
0.000582683
0.00058251
0.000582313
0.00058209
0.000581839
0.000581558
0.000581247
0.000580901
0.00058052
0.0005801
0.000579638
0.000579131
0.000578578
0.000577974
0.000577316
0.0005766
0.000575822
0.000574978
0.000574062
0.00057307
0.000571997
0.000570834
0.000569577
0.000568217
0.000566747
0.00056516
0.000563446
0.000561594
0.000559594
0.000557437
0.000555111
0.000552601
0.000549895
0.000546979
0.000543842
0.000540464
0.000536832
0.000532932
0.00052875
0.000524271
0.000519488
0.000514401
0.00050901
0.000503334
0.000497394
0.000491209
0.00048477
0.000477983
0.000470563
0.000461846
0.000450524
0.000434271
0.000409298
0.000369767
0.000307879
0.000224665
0.217835
0.319737
0.288155
0.226667
0.169005
0.123412
0.0898444
0.0659398
0.0491481
0.0373754
0.0290683
0.0231299
0.0188078
0.0155944
0.0131509
0.0112511
0.00974321
0.00852429
0.00752309
0.00668937
0.00598689
0.00538897
0.00487555
0.00443124
0.00404412
0.00370476
0.00340562
0.00314061
0.00290479
0.00269405
0.002505
0.00233479
0.00218104
0.00204171
0.00191509
0.00179973
0.00169439
0.00159802
0.00150972
0.00142873
0.00135433
0.00128593
0.00122295
0.00116491
0.00111134
0.00106183
0.001016
0.000973526
0.000934095
0.000897443
0.000863334
0.00083156
0.000801938
0.000774301
0.0007485
0.000724398
0.000701873
0.000680814
0.000661121
0.000642707
0.000625491
0.000609405
0.000594396
0.000580433
0.00056751
0.000555652
0.000544918
0.0005354
0.000527217
0.000520505
0.000515385
0.000511937
0.000510164
0.000509969
0.000511147
0.000513403
0.000516383
0.00051973
0.000523121
0.000526309
0.000529131
0.00053151
0.000533433
0.000534934
0.000536067
0.000536895
0.000537475
0.000537853
0.000538065
0.000538139
0.000538092
0.000537937
0.000537681
0.00053733
0.000536889
0.000536357
0.000535739
0.000535033
0.000534243
0.000533368
0.000532411
0.000531373
0.000530258
0.000529073
0.00052783
0.000526552
0.000525273
0.000524043
0.00052293
0.000522014
0.000521384
0.000521125
0.000521301
0.000521941
0.00052303
0.000524511
0.000526289
0.000528253
0.000530287
0.00053229
0.000534185
0.000535922
0.000537479
0.000538848
0.000540039
0.000541066
0.000541945
0.000542691
0.000543317
0.000543832
0.000544245
0.000544562
0.000544788
0.000544926
0.000544981
0.000544955
0.000544855
0.000544686
0.000544456
0.000544178
0.000543864
0.000543535
0.000543209
0.000542914
0.000542673
0.000542514
0.000542457
0.000542517
0.000542698
0.000542996
0.000543393
0.000543866
0.000544389
0.000544935
0.000545485
0.000546022
0.000546537
0.000547026
0.000547487
0.00054792
0.000548325
0.000548703
0.000549053
0.000549375
0.00054967
0.000549938
0.000550178
0.000550393
0.000550583
0.00055075
0.000550897
0.000551028
0.000551148
0.000551264
0.000551386
0.000551525
0.000551693
0.000551904
0.00055217
0.000552498
0.000552892
0.000553348
0.000553857
0.000554401
0.000554961
0.000555516
0.000556044
0.00055653
0.000556962
0.000557331
0.000557636
0.000557875
0.000558054
0.000558179
0.000558259
0.000558306
0.000558333
0.000558352
0.000558375
0.000558412
0.00055847
0.000558555
0.000558668
0.000558811
0.000558985
0.00055919
0.000559429
0.000559703
0.000560016
0.000560368
0.00056076
0.000561188
0.000561648
0.000562131
0.000562629
0.000563132
0.000563632
0.000564122
0.000564598
0.000565056
0.000565495
0.000565914
0.000566314
0.000566696
0.000567061
0.00056741
0.000567744
0.000568064
0.000568372
0.000568669
0.000568956
0.000569236
0.000569512
0.000569787
0.000570063
0.000570343
0.000570632
0.000570929
0.000571238
0.000571556
0.000571883
0.000572216
0.000572554
0.000572892
0.000573228
0.00057356
0.000573886
0.000574207
0.000574523
0.000574835
0.000575146
0.000575456
0.000575769
0.000576087
0.000576409
0.000576737
0.000577071
0.00057741
0.000577753
0.000578101
0.000578453
0.000578809
0.000579168
0.000579531
0.000579898
0.00058027
0.000580646
0.000581026
0.00058141
0.000581796
0.000582183
0.00058257
0.000582956
0.00058334
0.000583722
0.000584101
0.000584478
0.000584853
0.000585228
0.000585603
0.000585979
0.000586359
0.000586741
0.000587127
0.000587516
0.000587909
0.000588305
0.000588703
0.000589104
0.000589507
0.000589913
0.000590319
0.000590728
0.000591138
0.000591549
0.000591962
0.000592376
0.000592791
0.000593206
0.000593623
0.00059404
0.000594459
0.000594878
0.000595299
0.000595719
0.000596141
0.000596563
0.000596986
0.000597409
0.000597833
0.000598258
0.000598683
0.000599109
0.000599536
0.000599964
0.000600392
0.000600821
0.000601251
0.000601681
0.000602112
0.000602544
0.000602976
0.000603409
0.000603843
0.000604277
0.000604711
0.000605147
0.000605583
0.000606019
0.000606456
0.000606894
0.000607332
0.000607771
0.00060821
0.00060865
0.00060909
0.000609531
0.000609973
0.000610415
0.000610858
0.000611302
0.000611746
0.00061219
0.000612635
0.000613081
0.000613527
0.000613974
0.000614421
0.000614869
0.000615317
0.000615766
0.000616215
0.000616665
0.000617115
0.000617566
0.000618018
0.000618469
0.000618922
0.000619375
0.000619828
0.000620282
0.000620736
0.000621191
0.000621646
0.000622101
0.000622557
0.000623014
0.000623471
0.000623929
0.000624387
0.000624845
0.000625304
0.000625764
0.000626224
0.000626685
0.000627146
0.000627607
0.000628069
0.000628531
0.000628994
0.000629457
0.00062992
0.000630383
0.000630848
0.000631312
0.000631777
0.000632242
0.000632708
0.000633174
0.00063364
0.000634107
0.000634575
0.000635042
0.00063551
0.000635979
0.000636447
0.000636916
0.000637386
0.000637856
0.000638326
0.000638797
0.000639268
0.00063974
0.000640212
0.000640684
0.000641157
0.00064163
0.000642103
0.000642577
0.000643051
0.000643525
0.000644
0.000644475
0.00064495
0.000645425
0.000645901
0.000646377
0.000646853
0.00064733
0.000647807
0.000648284
0.000648762
0.00064924
0.000649718
0.000650197
0.000650676
0.000651156
0.000651635
0.000652115
0.000652596
0.000653076
0.000653557
0.000654038
0.000654519
0.000655
0.000655482
0.000655964
0.000656446
0.000656928
0.000657411
0.000657894
0.000658376
0.00065886
0.000659343
0.000659827
0.000660311
0.000660795
0.00066128
0.000661765
0.000662251
0.000662736
0.000663222
0.000663707
0.000664193
0.000664679
0.000665166
0.000665652
0.000666139