/*--------------------------------*- C++ -*----------------------------------*\
| =========                 |                                                 |
| \\      /  F ield         | OpenFOAM: The Open Source CFD Toolbox           |
|  \\    /   O peration     | Version:  2512                                  |
|   \\  /    A nd           | Website:  www.openfoam.com                      |
|    \\/     M anipulation  |                                                 |
\*---------------------------------------------------------------------------*/
FoamFile
{
    version     2.0;
    format      ascii;
    arch        "LSB;label=32;scalar=64";
    class       volVectorField;
    location    "0.1";
    object      B;
}
// * * * * * * * * * * * * * * * * * * * * * * * * * * * * * * * * * * * * * //

dimensions      [1 0 -2 0 0 -1 0];

internalField   nonuniform List<vector> 
8333
(
(0.000218955 20 6.50567e-21)
(0.000223615 20 7.68678e-21)
(0.000219357 20 1.29658e-20)
(0.000216547 20 1.42918e-20)
(0.00021563 20 1.56738e-20)
(0.000214955 20 9.01277e-21)
(0.000214396 20 4.55631e-21)
(0.000214174 20 -4.60444e-21)
(0.0002142 20 -8.14966e-21)
(0.000214278 20 -7.75454e-21)
(0.000214367 20 -3.09427e-21)
(0.000214486 20 1.97693e-21)
(0.000214625 20 1.10422e-20)
(0.000214769 20 8.94821e-21)
(0.000214911 20 2.49175e-20)
(0.000215049 20 7.45646e-21)
(0.000215181 20 3.78566e-20)
(0.000215308 20 -3.82126e-21)
(0.000215428 20 1.44048e-20)
(0.000215542 20 -5.64354e-21)
(0.00021565 20 2.57985e-20)
(0.000215752 20 -1.36852e-20)
(0.000215848 20 5.59302e-21)
(0.000215939 20 -1.14354e-20)
(0.000216025 20 1.82727e-20)
(0.000216106 20 -1.34053e-20)
(0.000216183 20 -5.23585e-21)
(0.000216256 20 -3.20121e-21)
(0.000216326 20 1.10849e-21)
(0.000216392 20 4.12271e-21)
(0.000216455 20 1.12227e-20)
(0.000216516 20 7.94808e-21)
(0.000216574 20 2.29427e-20)
(0.000216631 20 6.28167e-21)
(0.000216685 20 3.4635e-20)
(0.000216738 20 -8.19721e-22)
(0.000216789 20 3.27544e-21)
(0.000216839 20 2.33037e-21)
(0.000216887 20 6.26578e-21)
(0.000216935 20 6.92839e-21)
(0.000216982 20 1.59776e-20)
(0.000217028 20 1.49681e-20)
(0.000217073 20 2.05057e-20)
(0.000217117 20 2.22586e-20)
(0.000217162 20 2.33795e-20)
(0.000217205 20 2.19633e-20)
(0.000217248 20 2.28805e-20)
(0.000217291 20 1.8173e-20)
(0.000217334 20 2.1701e-20)
(0.000217376 20 1.6589e-20)
(0.000217418 20 1.97426e-20)
(0.00021746 20 1.9793e-20)
(0.000217501 20 2.13358e-20)
(0.000217543 20 1.69284e-20)
(0.000217584 20 2.40512e-20)
(0.000217625 20 7.19344e-21)
(0.000217666 20 2.97153e-20)
(0.000217707 20 -1.84737e-21)
(0.000217748 20 3.79158e-20)
(0.000217789 20 3.63966e-20)
(0.00021783 20 3.72371e-20)
(0.00021787 20 3.52654e-20)
(0.000217911 20 3.04311e-20)
(0.000217951 20 2.55653e-20)
(0.000217992 20 2.15166e-20)
(0.000218032 20 2.07272e-20)
(0.000218072 20 1.78156e-20)
(0.000218113 20 2.20539e-20)
(0.000218153 20 1.75618e-20)
(0.000218193 20 2.30438e-20)
(0.000218233 20 1.94545e-20)
(0.000218274 20 1.82826e-20)
(0.000218314 20 1.76786e-20)
(0.000218354 20 1.81958e-20)
(0.000218394 20 1.9645e-20)
(0.000218434 20 2.11188e-20)
(0.000218474 20 2.20834e-20)
(0.000218513 20 2.2416e-20)
(0.000218553 20 2.26523e-20)
(0.000218593 20 2.2191e-20)
(0.000218633 20 2.33041e-20)
(0.000218673 20 2.11065e-20)
(0.000218712 20 2.54863e-20)
(0.000218752 20 2.05476e-20)
(0.000218792 20 2.5952e-20)
(0.000218831 20 2.20243e-20)
(0.000218871 20 2.02975e-20)
(0.00021891 20 1.92482e-20)
(0.00021895 20 1.96084e-20)
(0.000218989 20 2.09812e-20)
(0.000219028 20 2.23442e-20)
(0.000219068 20 2.30896e-20)
(0.000219107 20 2.32752e-20)
(0.000219146 20 2.31371e-20)
(0.000219186 20 2.31057e-20)
(0.000219225 20 2.25288e-20)
(0.000219264 20 2.35261e-20)
(0.000219303 20 2.13397e-20)
(0.000219342 20 2.56878e-20)
(0.000219381 20 2.07506e-20)
(0.00021942 20 2.61079e-20)
(0.000219459 20 2.21967e-20)
(0.000219498 20 2.03612e-20)
(0.000219537 20 1.91726e-20)
(0.000219575 20 1.94109e-20)
(0.000219614 20 2.06858e-20)
(0.000219653 20 2.19948e-20)
(0.000219691 20 2.27502e-20)
(0.00021973 20 2.28924e-20)
(0.000219769 20 2.26036e-20)
(0.000219807 20 2.22196e-20)
(0.000219845 20 2.17011e-20)
(0.000219884 20 2.14514e-20)
(0.000219922 20 2.06609e-20)
(0.00021996 20 2.09241e-20)
(0.000219999 20 1.93811e-20)
(0.000220037 20 1.89297e-20)
(0.000220075 20 1.67824e-20)
(0.000220113 20 1.44762e-20)
(0.000220151 20 1.28458e-20)
(0.000220189 20 1.25244e-20)
(0.000220227 20 1.35925e-20)
(0.000220265 20 1.53318e-20)
(0.000220303 20 1.70215e-20)
(0.00022034 20 1.83472e-20)
(0.000220378 20 1.92533e-20)
(0.000220416 20 1.98387e-20)
(0.000220453 20 2.02183e-20)
(0.000220491 20 2.03933e-20)
(0.000220528 20 2.04919e-20)
(0.000220565 20 2.05554e-20)
(0.000220603 20 2.05983e-20)
(0.00022064 20 2.06852e-20)
(0.000220677 20 2.03677e-20)
(0.000220714 20 2.11266e-20)
(0.000220751 20 1.85416e-20)
(0.000220788 20 2.41046e-20)
(0.000220825 20 1.23421e-20)
(0.000220862 20 3.07988e-20)
(0.000220899 20 3.69964e-21)
(0.000220935 20 4.06151e-20)
(0.000220972 20 3.77008e-20)
(0.000221008 20 3.76336e-20)
(0.000221045 20 3.53994e-20)
(0.00022108 20 3.11732e-20)
(0.000221118 20 2.69167e-20)
(0.000221148 20 2.38433e-20)
(0.000221191 20 2.20403e-20)
(0.000221212 20 2.11562e-20)
(0.000261221 20 1.9053e-20)
(0.000305481 20 2.25653e-20)
(0.000354192 20 3.9339e-20)
(0.000385846 20 4.26399e-20)
(0.000403693 20 4.60792e-20)
(0.000412287 20 2.94146e-20)
(0.000415441 20 1.83759e-20)
(0.000416619 20 -6.55758e-21)
(0.00041747 20 -1.37841e-20)
(0.000418275 20 -1.22699e-20)
(0.000419024 20 -1.0788e-21)
(0.000419728 20 1.22859e-20)
(0.000420382 20 3.2936e-20)
(0.000420974 20 3.50267e-20)
(0.000421501 20 5.99673e-20)
(0.000421968 20 4.87778e-20)
(0.000422381 20 6.89261e-20)
(0.000422744 20 8.45921e-20)
(0.000423064 20 8.72005e-20)
(0.000423345 20 5.18802e-20)
(0.000423591 20 6.00399e-20)
(0.000423806 20 6.69211e-20)
(0.000423993 20 6.94285e-20)
(0.000424155 20 3.77261e-20)
(0.000424294 20 4.23203e-20)
(0.000424413 20 6.07902e-20)
(0.000424515 20 5.17738e-20)
(0.0004246 20 3.6199e-20)
(0.000424672 20 3.21223e-20)
(0.000424731 20 2.91437e-20)
(0.000424779 20 3.83231e-20)
(0.000424816 20 3.36269e-20)
(0.000424846 20 5.49428e-20)
(0.000424867 20 4.499e-20)
(0.000424882 20 6.15539e-20)
(0.000424891 20 8.40119e-20)
(0.000424894 20 6.95812e-20)
(0.000424893 20 4.997e-20)
(0.000424888 20 4.52888e-20)
(0.00042488 20 3.75267e-20)
(0.000424868 20 5.35678e-20)
(0.000424854 20 4.7609e-20)
(0.000424838 20 6.38059e-20)
(0.000424819 20 6.56698e-20)
(0.000424799 20 6.63812e-20)
(0.000424777 20 6.23426e-20)
(0.000424754 20 6.45082e-20)
(0.000424729 20 5.40133e-20)
(0.000424704 20 6.24171e-20)
(0.000424678 20 4.89681e-20)
(0.000424651 20 6.01653e-20)
(0.000424623 20 5.81718e-20)
(0.000424595 20 5.92615e-20)
(0.000424566 20 5.00201e-20)
(0.000424537 20 6.11954e-20)
(0.000424507 20 3.59308e-20)
(0.000424478 20 5.98873e-20)
(0.000424448 20 3.69664e-20)
(0.000424417 20 2.72356e-20)
(0.000424387 20 4.58629e-20)
(0.000424356 20 6.43408e-20)
(0.000424325 20 7.36494e-20)
(0.000424294 20 7.25354e-20)
(0.000424263 20 6.7128e-20)
(0.000424231 20 6.03233e-20)
(0.0004242 20 5.98108e-20)
(0.000424168 20 5.32797e-20)
(0.000424137 20 6.41361e-20)
(0.000424105 20 5.34643e-20)
(0.000424073 20 6.87485e-20)
(0.000424042 20 5.62269e-20)
(0.00042401 20 5.53811e-20)
(0.000423978 20 5.56481e-20)
(0.000423946 20 5.75078e-20)
(0.000423914 20 6.0987e-20)
(0.000423882 20 6.43202e-20)
(0.000423849 20 6.64189e-20)
(0.000423817 20 6.69831e-20)
(0.000423785 20 6.74432e-20)
(0.000423753 20 6.61639e-20)
(0.00042372 20 6.89477e-20)
(0.000423688 20 6.35662e-20)
(0.000423656 20 7.44833e-20)
(0.000423623 20 6.24538e-20)
(0.000423591 20 7.73297e-20)
(0.000423558 20 6.38409e-20)
(0.000423526 20 6.14817e-20)
(0.000423493 20 6.04385e-20)
(0.00042346 20 6.17832e-20)
(0.000423428 20 6.49799e-20)
(0.000423395 20 6.79607e-20)
(0.000423362 20 6.93977e-20)
(0.000423329 20 6.95115e-20)
(0.000423297 20 6.89236e-20)
(0.000423264 20 6.87104e-20)
(0.000423231 20 6.71391e-20)
(0.000423198 20 6.95973e-20)
(0.000423165 20 6.42465e-20)
(0.000423132 20 7.50809e-20)
(0.000423099 20 6.30806e-20)
(0.000423065 20 7.7762e-20)
(0.000423032 20 6.43448e-20)
(0.000422999 20 6.17001e-20)
(0.000422966 20 6.02375e-20)
(0.000422932 20 6.11924e-20)
(0.000422899 20 6.4078e-20)
(0.000422866 20 6.68938e-20)
(0.000422832 20 6.83781e-20)
(0.000422799 20 6.83888e-20)
(0.000422765 20 6.73261e-20)
(0.000422731 20 6.61292e-20)
(0.000422698 20 6.45206e-20)
(0.000422664 20 6.3869e-20)
(0.00042263 20 6.1326e-20)
(0.000422597 20 6.24493e-20)
(0.000422563 20 5.75105e-20)
(0.000422529 20 5.65069e-20)
(0.000422495 20 4.98884e-20)
(0.000422461 20 4.29484e-20)
(0.000422427 20 3.80612e-20)
(0.000422393 20 3.71119e-20)
(0.000422359 20 4.03717e-20)
(0.000422325 20 4.56239e-20)
(0.00042229 20 5.06801e-20)
(0.000422256 20 5.46267e-20)
(0.000422222 20 5.73086e-20)
(0.000422187 20 5.90347e-20)
(0.000422153 20 6.01639e-20)
(0.000422119 20 6.06685e-20)
(0.000422084 20 6.09569e-20)
(0.00042205 20 6.11367e-20)
(0.000422015 20 6.12879e-20)
(0.00042198 20 6.14731e-20)
(0.000421946 20 6.08262e-20)
(0.000421911 20 6.20262e-20)
(0.000421876 20 5.76482e-20)
(0.000421841 20 6.51948e-20)
(0.000421807 20 5.10799e-20)
(0.000421772 20 6.51002e-20)
(0.000421737 20 5.44391e-20)
(0.000421702 20 3.18101e-20)
(0.000421667 20 4.9963e-20)
(0.000421633 20 6.83363e-20)
(0.000421598 20 7.77716e-20)
(0.000421563 20 7.78563e-20)
(0.000421528 20 7.31579e-20)
(0.000421493 20 6.81169e-20)
(0.000421458 20 6.45378e-20)
(0.000421424 20 6.2592e-20)
(0.000421373 20 6.16922e-20)
(0.000263404 19.9999 2.97125e-20)
(0.000299185 19.9999 3.70266e-20)
(0.000359551 20 6.69279e-20)
(0.000409427 20 7.23059e-20)
(0.000442738 20 7.86158e-20)
(0.000462261 20 5.96123e-20)
(0.000472221 20 4.73913e-20)
(0.000477476 20 1.26588e-20)
(0.000480924 20 6.52267e-21)
(0.000483563 20 7.68376e-21)
(0.000485713 20 1.96591e-20)
(0.000487534 20 3.588e-20)
(0.000489098 20 6.00828e-20)
(0.00049044 20 6.81816e-20)
(0.000491591 20 9.04925e-20)
(0.000492582 20 9.73419e-20)
(0.000493435 20 9.43244e-20)
(0.00049417 20 1.55948e-19)
(0.000494804 20 1.54146e-19)
(0.000495351 20 1.2526e-19)
(0.000495822 20 9.95951e-20)
(0.000496226 20 1.42964e-19)
(0.000496572 20 1.34988e-19)
(0.000496866 20 1.05824e-19)
(0.000497114 20 7.5475e-20)
(0.000497323 20 1.27412e-19)
(0.000497497 20 1.16673e-19)
(0.00049764 20 8.80042e-20)
(0.000497756 20 7.65158e-20)
(0.000497848 20 6.4685e-20)
(0.000497919 20 6.97314e-20)
(0.000497972 20 6.56439e-20)
(0.000498008 20 8.23338e-20)
(0.00049803 20 9.06823e-20)
(0.000498039 20 8.39887e-20)
(0.000498038 20 1.52261e-19)
(0.000498027 20 1.36906e-19)
(0.000498008 20 1.08402e-19)
(0.000497982 20 9.34843e-20)
(0.000497949 20 8.05628e-20)
(0.000497911 20 9.37082e-20)
(0.000497868 20 8.43805e-20)
(0.000497821 20 1.0902e-19)
(0.00049777 20 1.05125e-19)
(0.000497716 20 1.01491e-19)
(0.00049766 20 9.60784e-20)
(0.000497601 20 9.79141e-20)
(0.00049754 20 8.93476e-20)
(0.000497477 20 9.7973e-20)
(0.000497413 20 8.14636e-20)
(0.000497348 20 1.00615e-19)
(0.000497281 20 9.21741e-20)
(0.000497214 20 8.84143e-20)
(0.000497145 20 7.82311e-20)
(0.000497076 20 8.64886e-20)
(0.000497006 20 7.02502e-20)
(0.000496936 20 7.79607e-20)
(0.000496865 20 8.07004e-20)
(0.000496794 20 3.55795e-20)
(0.000496723 20 4.9285e-20)
(0.000496651 20 7.38615e-20)
(0.000496579 20 9.24176e-20)
(0.000496506 20 9.92097e-20)
(0.000496434 20 9.8879e-20)
(0.000496361 20 9.43834e-20)
(0.000496288 20 9.55396e-20)
(0.000496215 20 8.93714e-20)
(0.000496142 20 1.02992e-19)
(0.000496069 20 9.17736e-20)
(0.000495995 20 1.13682e-19)
(0.000495922 20 9.20493e-20)
(0.000495848 20 9.66829e-20)
(0.000495774 20 1.00598e-19)
(0.000495701 20 1.03997e-19)
(0.000495627 20 1.07828e-19)
(0.000495553 20 1.10833e-19)
(0.000495479 20 1.12335e-19)
(0.000495405 20 1.1212e-19)
(0.000495331 20 1.12149e-19)
(0.000495257 20 1.10328e-19)
(0.000495183 20 1.13433e-19)
(0.000495109 20 1.07517e-19)
(0.000495035 20 1.20449e-19)
(0.000494961 20 1.07003e-19)
(0.000494886 20 1.27788e-19)
(0.000494812 20 1.04598e-19)
(0.000494738 20 1.07064e-19)
(0.000494663 20 1.08885e-19)
(0.000494589 20 1.11354e-19)
(0.000494514 20 1.14567e-19)
(0.00049444 20 1.16903e-19)
(0.000494365 20 1.17262e-19)
(0.00049429 20 1.1623e-19)
(0.000494216 20 1.14756e-19)
(0.000494141 20 1.14009e-19)
(0.000494066 20 1.1186e-19)
(0.000493992 20 1.14476e-19)
(0.000493917 20 1.08615e-19)
(0.000493842 20 1.21435e-19)
(0.000493767 20 1.08098e-19)
(0.000493692 20 1.28489e-19)
(0.000493617 20 1.05294e-19)
(0.000493542 20 1.07417e-19)
(0.000493467 20 1.08583e-19)
(0.000493392 20 1.10355e-19)
(0.000493317 20 1.13002e-19)
(0.000493242 20 1.15051e-19)
(0.000493166 20 1.15541e-19)
(0.000493091 20 1.14425e-19)
(0.000493016 20 1.12057e-19)
(0.00049294 20 1.09917e-19)
(0.000492865 20 1.07014e-19)
(0.000492789 20 1.0627e-19)
(0.000492714 20 1.01341e-19)
(0.000492638 20 1.04464e-19)
(0.000492563 20 9.49321e-20)
(0.000492487 20 9.46149e-20)
(0.000492412 20 8.27591e-20)
(0.000492336 20 7.08903e-20)
(0.00049226 20 6.26006e-20)
(0.000492184 20 6.10673e-20)
(0.000492108 20 6.68084e-20)
(0.000492032 20 7.58214e-20)
(0.000491957 20 8.43222e-20)
(0.000491881 20 9.08812e-20)
(0.000491804 20 9.5284e-20)
(0.000491728 20 9.80944e-20)
(0.000491652 20 9.99687e-20)
(0.000491576 20 1.00751e-19)
(0.0004915 20 1.01215e-19)
(0.000491424 20 1.01488e-19)
(0.000491347 20 1.01792e-19)
(0.000491271 20 1.01989e-19)
(0.000491195 20 1.01311e-19)
(0.000491118 20 1.02043e-19)
(0.000491042 20 9.82772e-20)
(0.000490966 20 1.02399e-19)
(0.000490889 20 9.58531e-20)
(0.000490813 20 9.18831e-20)
(0.000490737 20 1.10224e-19)
(0.000490661 20 4.06375e-20)
(0.000490584 20 6.04039e-20)
(0.000490509 20 8.8464e-20)
(0.000490432 20 1.08062e-19)
(0.000490358 20 1.15141e-19)
(0.000490278 20 1.13586e-19)
(0.000490209 20 1.09325e-19)
(0.000490122 20 1.05539e-19)
(0.000490059 20 1.03297e-19)
(0.000489952 20 1.02196e-19)
(0.000489849 20 1.01807e-19)
(0.000260722 19.9999 3.4668e-20)
(0.000281056 19.9999 5.68019e-20)
(0.000331037 19.9999 8.74781e-20)
(0.000381041 20 1.19908e-19)
(0.000420329 20 1.44703e-19)
(0.000447473 20 1.42376e-19)
(0.000464335 20 1.34782e-19)
(0.000474911 20 1.07285e-19)
(0.000482151 20 8.39879e-20)
(0.000487472 20 6.91663e-20)
(0.00049159 20 6.87835e-20)
(0.000494917 20 7.64842e-20)
(0.000497667 20 9.81507e-20)
(0.000499966 20 1.01808e-19)
(0.000501903 20 1.31974e-19)
(0.000503546 20 1.27022e-19)
(0.000504946 20 1.52093e-19)
(0.000506143 20 1.6299e-19)
(0.000507169 20 1.84348e-19)
(0.000508048 20 1.50134e-19)
(0.000508804 20 1.5829e-19)
(0.000509451 20 1.5117e-19)
(0.000510003 20 1.63334e-19)
(0.000510474 20 1.25902e-19)
(0.000510874 20 1.2716e-19)
(0.000511212 20 1.30125e-19)
(0.000511496 20 1.35583e-19)
(0.000511732 20 1.10381e-19)
(0.000511926 20 1.08662e-19)
(0.000512084 20 9.46764e-20)
(0.00051221 20 1.01491e-19)
(0.000512308 20 9.35347e-20)
(0.000512382 20 1.18959e-19)
(0.000512434 20 1.17557e-19)
(0.000512468 20 1.3791e-19)
(0.000512486 20 1.6209e-19)
(0.000512489 20 1.56723e-19)
(0.000512481 20 1.39865e-19)
(0.000512461 20 1.23354e-19)
(0.000512432 20 1.24847e-19)
(0.000512396 20 1.2361e-19)
(0.000512352 20 1.34219e-19)
(0.000512302 20 1.30573e-19)
(0.000512247 20 1.25418e-19)
(0.000512187 20 1.19933e-19)
(0.000512124 20 1.1936e-19)
(0.000512057 20 1.18924e-19)
(0.000511987 20 1.25973e-19)
(0.000511915 20 1.21703e-19)
(0.00051184 20 1.25276e-19)
(0.000511764 20 1.16378e-19)
(0.000511686 20 1.06423e-19)
(0.000511606 20 1.01183e-19)
(0.000511526 20 9.4833e-20)
(0.000511444 20 1.02983e-19)
(0.000511361 20 9.72335e-20)
(0.000511278 20 1.02608e-19)
(0.000511194 20 1.04136e-19)
(0.000511109 20 7.87179e-20)
(0.000511024 20 7.99301e-20)
(0.000510939 20 9.61609e-20)
(0.000510853 20 1.12601e-19)
(0.000510767 20 1.22092e-19)
(0.00051068 20 1.25836e-19)
(0.000510593 20 1.25681e-19)
(0.000510506 20 1.27569e-19)
(0.000510419 20 1.27182e-19)
(0.000510332 20 1.3565e-19)
(0.000510244 20 1.37457e-19)
(0.000510156 20 1.46732e-19)
(0.000510069 20 1.51267e-19)
(0.000509981 20 1.56345e-19)
(0.000509893 20 1.60079e-19)
(0.000509805 20 1.61639e-19)
(0.000509716 20 1.62226e-19)
(0.000509628 20 1.61607e-19)
(0.00050954 20 1.60134e-19)
(0.000509452 20 1.57794e-19)
(0.000509363 20 1.56456e-19)
(0.000509275 20 1.54657e-19)
(0.000509186 20 1.55805e-19)
(0.000509098 20 1.53965e-19)
(0.000509009 20 1.60309e-19)
(0.00050892 20 1.59352e-19)
(0.000508832 20 1.66045e-19)
(0.000508743 20 1.68317e-19)
(0.000508654 20 1.71421e-19)
(0.000508565 20 1.72326e-19)
(0.000508476 20 1.72453e-19)
(0.000508387 20 1.71883e-19)
(0.000508298 20 1.70161e-19)
(0.000508209 20 1.66996e-19)
(0.00050812 20 1.63348e-19)
(0.000508031 20 1.60433e-19)
(0.000507942 20 1.58612e-19)
(0.000507853 20 1.56638e-19)
(0.000507764 20 1.57191e-19)
(0.000507674 20 1.5543e-19)
(0.000507585 20 1.61694e-19)
(0.000507496 20 1.60893e-19)
(0.000507406 20 1.67352e-19)
(0.000507317 20 1.69056e-19)
(0.000507228 20 1.71506e-19)
(0.000507138 20 1.71832e-19)
(0.000507049 20 1.70979e-19)
(0.000506959 20 1.69557e-19)
(0.000506869 20 1.67412e-19)
(0.00050678 20 1.64533e-19)
(0.00050669 20 1.60964e-19)
(0.0005066 20 1.56557e-19)
(0.00050651 20 1.53332e-19)
(0.000506421 20 1.48779e-19)
(0.000506331 20 1.48542e-19)
(0.000506241 20 1.40012e-19)
(0.000506151 20 1.47307e-19)
(0.000506061 20 1.30748e-19)
(0.000505971 20 1.33802e-19)
(0.000505881 20 1.14916e-19)
(0.000505791 20 9.76722e-20)
(0.000505701 20 8.58631e-20)
(0.00050561 20 8.39101e-20)
(0.00050552 20 9.26378e-20)
(0.00050543 20 1.05791e-19)
(0.00050534 20 1.17809e-19)
(0.000505249 20 1.26939e-19)
(0.000505159 20 1.3296e-19)
(0.000505068 20 1.36751e-19)
(0.000504978 20 1.39371e-19)
(0.000504887 20 1.40344e-19)
(0.000504797 20 1.40964e-19)
(0.000504706 20 1.41293e-19)
(0.000504616 20 1.41799e-19)
(0.000504525 20 1.42001e-19)
(0.000504434 20 1.41259e-19)
(0.000504344 20 1.41782e-19)
(0.000504253 20 1.37443e-19)
(0.000504162 20 1.42191e-19)
(0.000504072 20 1.31995e-19)
(0.000503981 20 1.36163e-19)
(0.000503891 20 1.34579e-19)
(0.000503801 20 1.08728e-19)
(0.00050371 20 1.17636e-19)
(0.00050362 20 1.36768e-19)
(0.00050353 20 1.51542e-19)
(0.000503442 20 1.56568e-19)
(0.000503348 20 1.54127e-19)
(0.000503266 20 1.4952e-19)
(0.000503163 20 1.45472e-19)
(0.000503084 20 1.43146e-19)
(0.000502965 20 1.42006e-19)
(0.000502836 20 1.4159e-19)
(0.000502721 20 1.42142e-19)
(0.000256157 19.9999 3.47612e-20)
(0.000266192 19.9999 7.867e-20)
(0.000301719 19.9999 1.06107e-19)
(0.000344004 19.9999 1.69963e-19)
(0.000382856 20 2.15387e-19)
(0.000413812 20 2.28854e-19)
(0.000435963 20 2.2707e-19)
(0.000451491 20 2.03334e-19)
(0.00046265 20 1.62978e-19)
(0.000470888 20 1.32703e-19)
(0.000477184 20 1.20006e-19)
(0.000482174 20 1.18731e-19)
(0.00048623 20 1.36912e-19)
(0.000489575 20 1.34391e-19)
(0.000492365 20 1.73204e-19)
(0.000494715 20 1.52042e-19)
(0.000496707 20 2.10473e-19)
(0.000498404 20 1.66078e-19)
(0.000499854 20 2.11768e-19)
(0.000501095 20 1.67715e-19)
(0.000502159 20 2.21364e-19)
(0.000503071 20 1.57185e-19)
(0.000503852 20 1.90884e-19)
(0.000504519 20 1.39513e-19)
(0.000505088 20 1.83996e-19)
(0.000505571 20 1.31264e-19)
(0.00050598 20 1.53672e-19)
(0.000506323 20 1.29179e-19)
(0.000506611 20 1.43958e-19)
(0.000506848 20 1.25163e-19)
(0.000507043 20 1.33997e-19)
(0.0005072 20 1.20706e-19)
(0.000507324 20 1.56698e-19)
(0.00050742 20 1.40849e-19)
(0.00050749 20 1.93871e-19)
(0.000507539 20 1.69593e-19)
(0.00050757 20 1.71335e-19)
(0.000507584 20 1.67892e-19)
(0.000507583 20 1.51494e-19)
(0.000507571 20 1.70578e-19)
(0.000507547 20 1.5352e-19)
(0.000507515 20 1.85082e-19)
(0.000507474 20 1.50703e-19)
(0.000507427 20 1.44147e-19)
(0.000507373 20 1.36343e-19)
(0.000507315 20 1.4099e-19)
(0.000507252 20 1.37312e-19)
(0.000507185 20 1.61385e-19)
(0.000507114 20 1.42682e-19)
(0.000507041 20 1.68025e-19)
(0.000506966 20 1.2952e-19)
(0.000506888 20 1.18486e-19)
(0.000506808 20 1.11569e-19)
(0.000506727 20 1.09709e-19)
(0.000506645 20 1.17062e-19)
(0.000506561 20 1.22114e-19)
(0.000506477 20 1.26575e-19)
(0.000506391 20 1.2455e-19)
(0.000506305 20 1.18605e-19)
(0.000506218 20 1.11246e-19)
(0.00050613 20 1.181e-19)
(0.000506043 20 1.29912e-19)
(0.000505954 20 1.40553e-19)
(0.000505865 20 1.48212e-19)
(0.000505776 20 1.52982e-19)
(0.000505687 20 1.56227e-19)
(0.000505597 20 1.61812e-19)
(0.000505508 20 1.66099e-19)
(0.000505418 20 1.79691e-19)
(0.000505328 20 1.78643e-19)
(0.000505237 20 2.07574e-19)
(0.000505147 20 2.13072e-19)
(0.000505056 20 2.17351e-19)
(0.000504966 20 2.17683e-19)
(0.000504875 20 2.15294e-19)
(0.000504784 20 2.1086e-19)
(0.000504693 20 2.06097e-19)
(0.000504603 20 2.01258e-19)
(0.000504511 20 1.98434e-19)
(0.00050442 20 1.96551e-19)
(0.000504329 20 1.95729e-19)
(0.000504238 20 1.97685e-19)
(0.000504147 20 1.98149e-19)
(0.000504056 20 2.08358e-19)
(0.000503964 20 2.03176e-19)
(0.000503873 20 2.29059e-19)
(0.000503781 20 2.32896e-19)
(0.00050369 20 2.33433e-19)
(0.000503598 20 2.31954e-19)
(0.000503507 20 2.27879e-19)
(0.000503415 20 2.21937e-19)
(0.000503324 20 2.14861e-19)
(0.000503232 20 2.08199e-19)
(0.00050314 20 2.037e-19)
(0.000503049 20 2.00747e-19)
(0.000502957 20 1.98955e-19)
(0.000502865 20 1.97372e-19)
(0.000502773 20 1.9951e-19)
(0.000502681 20 1.99885e-19)
(0.000502589 20 2.10379e-19)
(0.000502497 20 2.05103e-19)
(0.000502405 20 2.29795e-19)
(0.000502313 20 2.32677e-19)
(0.000502221 20 2.32789e-19)
(0.000502129 20 2.29982e-19)
(0.000502037 20 2.24759e-19)
(0.000501944 20 2.18208e-19)
(0.000501852 20 2.11623e-19)
(0.00050176 20 2.05366e-19)
(0.000501668 20 1.98644e-19)
(0.000501575 20 1.94424e-19)
(0.000501483 20 1.87843e-19)
(0.00050139 20 1.8895e-19)
(0.000501298 20 1.75193e-19)
(0.000501205 20 1.89675e-19)
(0.000501113 20 1.62333e-19)
(0.00050102 20 1.73728e-19)
(0.000500927 20 1.43742e-19)
(0.000500835 20 1.21004e-19)
(0.000500742 20 1.06283e-19)
(0.000500649 20 1.04565e-19)
(0.000500556 20 1.16896e-19)
(0.000500464 20 1.34423e-19)
(0.000500371 20 1.49737e-19)
(0.000500278 20 1.61205e-19)
(0.000500185 20 1.68624e-19)
(0.000500092 20 1.73199e-19)
(0.000499999 20 1.76541e-19)
(0.000499906 20 1.77603e-19)
(0.000499813 20 1.78354e-19)
(0.000499719 20 1.78672e-19)
(0.000499626 20 1.79468e-19)
(0.000499533 20 1.79617e-19)
(0.00049944 20 1.78892e-19)
(0.000499347 20 1.7904e-19)
(0.000499254 20 1.74382e-19)
(0.000499161 20 1.79579e-19)
(0.000499068 20 1.65393e-19)
(0.000498975 20 1.79623e-19)
(0.000498882 20 1.554e-19)
(0.000498789 20 1.75844e-19)
(0.000498697 20 1.76238e-19)
(0.000498605 20 1.84895e-19)
(0.000498512 20 1.92451e-19)
(0.000498421 20 1.94061e-19)
(0.000498327 20 1.90517e-19)
(0.00049824 20 1.86036e-19)
(0.000498139 20 1.82208e-19)
(0.000498051 20 1.80172e-19)
(0.000497933 20 1.79241e-19)
(0.000497802 20 1.78852e-19)
(0.000497674 20 1.79752e-19)
(0.000250247 19.9999 3.35537e-20)
(0.000254593 19.9999 9.4718e-20)
(0.000278324 19.9999 1.29373e-19)
(0.000311731 19.9999 2.05061e-19)
(0.000347245 19.9999 2.54808e-19)
(0.000379164 20 2.60823e-19)
(0.000404565 20 2.62678e-19)
(0.000423844 20 2.21051e-19)
(0.000438328 20 1.86461e-19)
(0.000449237 20 1.59546e-19)
(0.000457618 20 1.46962e-19)
(0.00046424 20 1.46563e-19)
(0.000469591 20 1.6115e-19)
(0.000473981 20 1.63494e-19)
(0.000477629 20 1.93556e-19)
(0.000480691 20 1.85646e-19)
(0.000483281 20 2.31749e-19)
(0.000485482 20 2.13546e-19)
(0.00048736 20 2.58415e-19)
(0.000488968 20 2.23247e-19)
(0.000490345 20 2.74158e-19)
(0.000491526 20 2.21724e-19)
(0.000492539 20 2.46563e-19)
(0.000493406 20 1.94959e-19)
(0.000494147 20 2.36677e-19)
(0.00049478 20 1.88283e-19)
(0.000495317 20 2.1303e-19)
(0.000495772 20 1.74306e-19)
(0.000496156 20 2.01811e-19)
(0.000496477 20 1.63431e-19)
(0.000496744 20 1.65564e-19)
(0.000496963 20 1.52565e-19)
(0.000497141 20 1.81957e-19)
(0.000497283 20 1.7608e-19)
(0.000497394 20 2.20689e-19)
(0.000497478 20 2.17788e-19)
(0.000497539 20 2.16398e-19)
(0.000497579 20 2.14747e-19)
(0.000497601 20 1.96106e-19)
(0.000497608 20 2.17092e-19)
(0.000497601 20 1.91845e-19)
(0.000497584 20 2.21485e-19)
(0.000497556 20 1.86013e-19)
(0.000497519 20 1.73712e-19)
(0.000497476 20 1.61335e-19)
(0.000497425 20 1.65602e-19)
(0.00049737 20 1.59542e-19)
(0.000497309 20 1.88125e-19)
(0.000497245 20 1.65616e-19)
(0.000497177 20 1.92788e-19)
(0.000497105 20 1.55956e-19)
(0.000497032 20 1.40843e-19)
(0.000496956 20 1.28966e-19)
(0.000496878 20 1.29874e-19)
(0.000496798 20 1.2942e-19)
(0.000496717 20 1.48425e-19)
(0.000496635 20 1.35766e-19)
(0.000496551 20 1.53069e-19)
(0.000496467 20 1.22357e-19)
(0.000496382 20 1.14046e-19)
(0.000496296 20 1.18903e-19)
(0.00049621 20 1.31323e-19)
(0.000496123 20 1.46165e-19)
(0.000496036 20 1.59592e-19)
(0.000495948 20 1.69407e-19)
(0.00049586 20 1.76294e-19)
(0.000495772 20 1.83654e-19)
(0.000495683 20 1.92405e-19)
(0.000495594 20 2.03168e-19)
(0.000495505 20 2.14651e-19)
(0.000495416 20 2.29186e-19)
(0.000495327 20 2.4127e-19)
(0.000495237 20 2.51971e-19)
(0.000495148 20 2.55653e-19)
(0.000495058 20 2.53905e-19)
(0.000494968 20 2.48122e-19)
(0.000494878 20 2.4149e-19)
(0.000494789 20 2.34667e-19)
(0.000494699 20 2.30971e-19)
(0.000494608 20 2.28316e-19)
(0.000494518 20 2.2751e-19)
(0.000494428 20 2.2872e-19)
(0.000494338 20 2.32073e-19)
(0.000494248 20 2.38434e-19)
(0.000494157 20 2.44704e-19)
(0.000494067 20 2.55392e-19)
(0.000493976 20 2.65513e-19)
(0.000493886 20 2.71266e-19)
(0.000493795 20 2.73039e-19)
(0.000493705 20 2.69259e-19)
(0.000493614 20 2.6168e-19)
(0.000493524 20 2.5209e-19)
(0.000493433 20 2.42989e-19)
(0.000493342 20 2.37132e-19)
(0.000493251 20 2.3339e-19)
(0.000493161 20 2.31156e-19)
(0.00049307 20 2.29297e-19)
(0.000492979 20 2.30964e-19)
(0.000492888 20 2.34081e-19)
(0.000492797 20 2.4101e-19)
(0.000492706 20 2.46883e-19)
(0.000492615 20 2.56121e-19)
(0.000492524 20 2.65317e-19)
(0.000492433 20 2.70642e-19)
(0.000492342 20 2.70565e-19)
(0.00049225 20 2.65427e-19)
(0.000492159 20 2.56948e-19)
(0.000492068 20 2.4799e-19)
(0.000491977 20 2.3976e-19)
(0.000491885 20 2.30966e-19)
(0.000491794 20 2.25939e-19)
(0.000491703 20 2.17224e-19)
(0.000491611 20 2.20083e-19)
(0.00049152 20 2.00504e-19)
(0.000491428 20 2.23681e-19)
(0.000491337 20 1.82845e-19)
(0.000491245 20 2.09089e-19)
(0.000491153 20 1.60014e-19)
(0.000491062 20 1.34233e-19)
(0.00049097 20 1.1968e-19)
(0.000490878 20 1.19873e-19)
(0.000490786 20 1.35769e-19)
(0.000490695 20 1.56831e-19)
(0.000490603 20 1.74157e-19)
(0.000490511 20 1.87144e-19)
(0.000490419 20 1.95445e-19)
(0.000490327 20 2.00446e-19)
(0.000490235 20 2.0436e-19)
(0.000490143 20 2.05455e-19)
(0.000490051 20 2.06341e-19)
(0.000489959 20 2.06514e-19)
(0.000489867 20 2.07709e-19)
(0.000489775 20 2.07644e-19)
(0.000489682 20 2.07255e-19)
(0.00048959 20 2.05983e-19)
(0.000489498 20 2.0405e-19)
(0.000489406 20 2.02365e-19)
(0.000489315 20 1.99543e-19)
(0.000489223 20 1.96107e-19)
(0.000489131 20 1.94747e-19)
(0.00048904 20 1.82713e-19)
(0.000488949 20 1.86737e-19)
(0.000488858 20 1.96172e-19)
(0.000488767 20 2.05731e-19)
(0.000488677 20 2.11263e-19)
(0.000488585 20 2.11606e-19)
(0.000488498 20 2.10272e-19)
(0.000488401 20 2.08162e-19)
(0.00048831 20 2.07083e-19)
(0.000488195 20 2.06819e-19)
(0.000488069 20 2.06544e-19)
(0.000487942 20 2.07987e-19)
(0.000487819 20 2.09479e-19)
(0.000243614 19.9999 3.00252e-20)
(0.000244883 19.9999 1.01915e-19)
(0.000260341 19.9999 1.43715e-19)
(0.000286171 19.9999 2.31965e-19)
(0.000317465 19.9999 2.76561e-19)
(0.000348536 19.9999 2.68137e-19)
(0.000375389 20 2.74316e-19)
(0.000397069 20 2.1643e-19)
(0.000414028 20 1.94895e-19)
(0.000427132 20 1.74031e-19)
(0.000437339 20 1.59174e-19)
(0.000445449 20 1.56182e-19)
(0.000452011 20 1.598e-19)
(0.000457396 20 1.69716e-19)
(0.000461868 20 1.7865e-19)
(0.000465619 20 1.96072e-19)
(0.000468789 20 2.16626e-19)
(0.000471482 20 2.3679e-19)
(0.00047378 20 2.77139e-19)
(0.000475747 20 2.70493e-19)
(0.000477432 20 3.05154e-19)
(0.000478879 20 2.70705e-19)
(0.00048012 20 2.84028e-19)
(0.000481185 20 2.51164e-19)
(0.000482097 20 2.76895e-19)
(0.000482877 20 2.32904e-19)
(0.000483542 20 2.62176e-19)
(0.000484108 20 2.18431e-19)
(0.000484587 20 2.5362e-19)
(0.000484991 20 1.87042e-19)
(0.000485329 20 1.82799e-19)
(0.000485611 20 1.75382e-19)
(0.000485843 20 1.88487e-19)
(0.000486032 20 1.98112e-19)
(0.000486183 20 2.23592e-19)
(0.000486303 20 2.38957e-19)
(0.000486394 20 2.42576e-19)
(0.00048646 20 2.42915e-19)
(0.000486505 20 2.26528e-19)
(0.000486532 20 2.38353e-19)
(0.000486544 20 2.10812e-19)
(0.000486541 20 2.30866e-19)
(0.000486527 20 1.90719e-19)
(0.000486502 20 1.80876e-19)
(0.000486469 20 1.70233e-19)
(0.000486428 20 1.72021e-19)
(0.00048638 20 1.65832e-19)
(0.000486327 20 1.86941e-19)
(0.000486269 20 1.66453e-19)
(0.000486206 20 1.88869e-19)
(0.00048614 20 1.50668e-19)
(0.000486071 20 1.40411e-19)
(0.000486 20 1.29676e-19)
(0.000485926 20 1.32369e-19)
(0.00048585 20 1.24552e-19)
(0.000485772 20 1.4885e-19)
(0.000485693 20 1.20511e-19)
(0.000485612 20 1.54697e-19)
(0.000485531 20 9.41611e-20)
(0.000485449 20 8.93701e-20)
(0.000485365 20 9.58536e-20)
(0.000485281 20 1.10408e-19)
(0.000485197 20 1.2815e-19)
(0.000485112 20 1.44673e-19)
(0.000485026 20 1.57483e-19)
(0.00048494 20 1.66634e-19)
(0.000484854 20 1.75371e-19)
(0.000484768 20 1.87848e-19)
(0.000484681 20 1.95956e-19)
(0.000484594 20 2.19474e-19)
(0.000484507 20 2.2014e-19)
(0.000484419 20 2.39456e-19)
(0.000484332 20 2.56641e-19)
(0.000484244 20 2.63658e-19)
(0.000484157 20 2.6223e-19)
(0.000484069 20 2.55001e-19)
(0.000483981 20 2.46226e-19)
(0.000483893 20 2.37551e-19)
(0.000483805 20 2.32933e-19)
(0.000483716 20 2.29443e-19)
(0.000483628 20 2.28693e-19)
(0.00048354 20 2.28977e-19)
(0.000483451 20 2.34774e-19)
(0.000483363 20 2.37585e-19)
(0.000483274 20 2.55014e-19)
(0.000483186 20 2.50982e-19)
(0.000483097 20 2.67804e-19)
(0.000483009 20 2.79127e-19)
(0.00048292 20 2.84115e-19)
(0.000482831 20 2.80303e-19)
(0.000482742 20 2.70757e-19)
(0.000482654 20 2.58609e-19)
(0.000482565 20 2.47119e-19)
(0.000482476 20 2.39914e-19)
(0.000482387 20 2.35181e-19)
(0.000482298 20 2.32621e-19)
(0.000482209 20 2.30686e-19)
(0.00048212 20 2.31897e-19)
(0.000482031 20 2.37255e-19)