/*--------------------------------*- C++ -*----------------------------------*\
| =========                 |                                                 |
| \\      /  F ield         | OpenFOAM: The Open Source CFD Toolbox           |
|  \\    /   O peration     | Version:  2512                                  |
|   \\  /    A nd           | Website:  www.openfoam.com                      |
|    \\/     M anipulation  |                                                 |
\*---------------------------------------------------------------------------*/
FoamFile
{
    version     2.0;
    format      ascii;
    arch        "LSB;label=32;scalar=64";
    class       volScalarField;
    location    "0.1";
    object      p;
}
// * * * * * * * * * * * * * * * * * * * * * * * * * * * * * * * * * * * * * //

dimensions      [1 -1 -2 0 0 0 0];

internalField   nonuniform List<scalar> 
8333
(
0
-0.707688
-0.946524
-1.08267
-1.13755
-1.15096
-1.15564
-1.16453
-1.18103
-1.20281
-1.22719
-1.2535
-1.28172
-1.31163
-1.34309
-1.37606
-1.41051
-1.44641
-1.48373
-1.5225
-1.56271
-1.60433
-1.64741
-1.69195
-1.73795
-1.7854
-1.83432
-1.8847
-1.93654
-1.98984
-2.0446
-2.10081
-2.15849
-2.21763
-2.27823
-2.34029
-2.4038
-2.46878
-2.53522
-2.60312
-2.67248
-2.7433
-2.81558
-2.88932
-2.96452
-3.04118
-3.1193
-3.19888
-3.27992
-3.36242
-3.44638
-3.5318
-3.61868
-3.70702
-3.79682
-3.88808
-3.9808
-4.07498
-4.17062
-4.26772
-4.36628
-4.4663
-4.56778
-4.67072
-4.77512
-4.88098
-4.9883
-5.09708
-5.20732
-5.31902
-5.43218
-5.5468
-5.66287
-5.78041
-5.89941
-6.01987
-6.14178
-6.26516
-6.38999
-6.51629
-6.64404
-6.77326
-6.90393
-7.03606
-7.16966
-7.30471
-7.44122
-7.57919
-7.71861
-7.8595
-8.00185
-8.14565
-8.29092
-8.43764
-8.58582
-8.73546
-8.88656
-9.03912
-9.19313
-9.34861
-9.50554
-9.66393
-9.82378
-9.98509
-10.1479
-10.3121
-10.4778
-10.6449
-10.8135
-10.9835
-11.1551
-11.328
-11.5024
-11.6783
-11.8557
-12.0345
-12.2147
-12.3964
-12.5796
-12.7642
-12.9503
-13.1378
-13.3268
-13.5172
-13.7091
-13.9025
-14.0973
-14.2935
-14.4912
-14.6904
-14.891
-15.0931
-15.2966
-15.5016
-15.708
-15.9159
-16.1252
-16.3359
-16.5482
-16.7618
-16.9769
-17.1934
-17.4114
-17.6307
-17.8515
-18.0737
-18.2973
-18.5221
-18.7482
-4.5162
-4.98542
-5.19255
-5.31284
-5.36958
-5.38703
-5.39397
-5.40408
-5.42122
-5.44317
-5.46762
-5.494
-5.52221
-5.5521
-5.58354
-5.61648
-5.65092
-5.68679
-5.72412
-5.76288
-5.80309
-5.84476
-5.88787
-5.93243
-5.97843
-6.0259
-6.07483
-6.12521
-6.17705
-6.23035
-6.28511
-6.34133
-6.39901
-6.45815
-6.51875
-6.58081
-6.64433
-6.70931
-6.77575
-6.84365
-6.91301
-6.98383
-7.05611
-7.12985
-7.20505
-7.28171
-7.35983
-7.43941
-7.52045
-7.60295
-7.68691
-7.77233
-7.85921
-7.94755
-8.03735
-8.12861
-8.22134
-8.31552
-8.41116
-8.50826
-8.60682
-8.70684
-8.80832
-8.91126
-9.01566
-9.12152
-9.22884
-9.33762
-9.44786
-9.55956
-9.67272
-9.78734
-9.90341
-10.021
-10.1399
-10.2604
-10.3823
-10.5057
-10.6305
-10.7568
-10.8846
-11.0138
-11.1445
-11.2766
-11.4102
-11.5453
-11.6818
-11.8197
-11.9592
-12.1
-12.2424
-12.3862
-12.5315
-12.6782
-12.8264
-12.976
-13.1271
-13.2797
-13.4337
-13.5892
-13.7461
-13.9045
-14.0643
-14.2256
-14.3884
-14.5526
-14.7183
-14.8854
-15.054
-15.2241
-15.3956
-15.5686
-15.743
-15.9189
-16.0962
-16.275
-16.4553
-16.637
-16.8201
-17.0048
-17.1908
-17.3784
-17.5674
-17.7578
-17.9497
-18.143
-18.3378
-18.5341
-18.7318
-18.931
-19.1316
-19.3337
-19.5372
-19.7422
-19.9486
-20.1564
-20.3658
-20.5765
-20.7887
-21.0024
-21.2175
-21.434
-21.6519
-21.8713
-22.0921
-22.3143
-22.5379
-22.7628
-22.9891
-23.2166
-8.85727
-9.2235
-9.40935
-9.52512
-9.5904
-9.61608
-9.6271
-9.63978
-9.65853
-9.68106
-9.70571
-9.73225
-9.76061
-9.79061
-9.82212
-9.85512
-9.88961
-9.92557
-9.96294
-10.0017
-10.042
-10.0836
-10.1266
-10.1712
-10.2172
-10.2646
-10.3135
-10.3639
-10.4157
-10.469
-10.5238
-10.58
-10.6377
-10.6968
-10.7574
-10.8195
-10.883
-10.948
-11.0144
-11.0823
-11.1517
-11.2225
-11.2948
-11.3685
-11.4437
-11.5204
-11.5985
-11.6781
-11.7591
-11.8416
-11.9256
-12.011
-12.0979
-12.1862
-12.276
-12.3673
-12.46
-12.5542
-12.6498
-12.7469
-12.8455
-12.9455
-13.047
-13.1499
-13.2543
-13.3602
-13.4675
-13.5763
-13.6865
-13.7982
-13.9114
-14.026
-14.1421
-14.2596
-14.3786
-14.4991
-14.621
-14.7444
-14.8692
-14.9955
-15.1233
-15.2525
-15.3831
-15.5153
-15.6489
-15.7839
-15.9204
-16.0584
-16.1978
-16.3387
-16.4811
-16.6249
-16.7701
-16.9168
-17.065
-17.2147
-17.3658
-17.5183
-17.6723
-17.8278
-17.9847
-18.1431
-18.303
-18.4643
-18.6271
-18.7913
-18.957
-19.1241
-19.2927
-19.4627
-19.6343
-19.8072
-19.9817
-20.1575
-20.3349
-20.5137
-20.6939
-20.8756
-21.0588
-21.2434
-21.4295
-21.617
-21.806
-21.9964
-22.1883
-22.3817
-22.5765
-22.7727
-22.9705
-23.1696
-23.3702
-23.5723
-23.7758
-23.9808
-24.1872
-24.3951
-24.6044
-24.8152
-25.0274
-25.241
-25.4561
-25.6726
-25.8906
-26.11
-26.3308
-26.5529
-26.7765
-27.0015
-27.2277
-27.4555
-27.6848
-13.2078
-13.4841
-13.6414
-13.7431
-13.8102
-13.8426
-13.8581
-13.874
-13.8947
-13.9181
-13.943
-13.9697
-13.9983
-14.0283
-14.0599
-14.0929
-14.1273
-14.1632
-14.2005
-14.2393
-14.2795
-14.3212
-14.3644
-14.409
-14.455
-14.5025
-14.5514
-14.6018
-14.6537
-14.707
-14.7617
-14.8179
-14.8756
-14.9348
-14.9954
-15.0574
-15.121
-15.1859
-15.2524
-15.3203
-15.3896
-15.4605
-15.5327
-15.6065
-15.6817
-15.7583
-15.8365
-15.916
-15.9971
-16.0796
-16.1635
-16.249
-16.3358
-16.4242
-16.514
-16.6052
-16.698
-16.7921
-16.8878
-16.9849
-17.0834
-17.1835
-17.2849
-17.3879
-17.4923
-17.5981
-17.7055
-17.8142
-17.9245
-18.0362
-18.1493
-18.264
-18.38
-18.4976
-18.6166
-18.737
-18.8589
-18.9823
-19.1072
-19.2335
-19.3612
-19.4904
-19.6211
-19.7532
-19.8868
-20.0219
-20.1584
-20.2963
-20.4358
-20.5767
-20.719
-20.8628
-21.0081
-21.1548
-21.303
-21.4526
-21.6037
-21.7563
-21.9103
-22.0658
-22.2227
-22.3811
-22.5409
-22.7023
-22.865
-23.0292
-23.1949
-23.3621
-23.5307
-23.7007
-23.8722
-24.0452
-24.2196
-24.3955
-24.5728
-24.7516
-24.9319
-25.1136
-25.2967
-25.4814
-25.6674
-25.855
-26.044
-26.2344
-26.4263
-26.6196
-26.8144
-27.0107
-27.2084
-27.4076
-27.6082
-27.8103
-28.0138
-28.2187
-28.4252
-28.633
-28.8424
-29.0531
-29.2653
-29.479
-29.6941
-29.9106
-30.1286
-30.3479
-30.5687
-30.7909
-31.0145
-31.2395
-31.4659
-31.6936
-31.9231
-32.154
-17.532
-17.7428
-17.8759
-17.9651
-18.0316
-18.0695
-18.089
-18.1079
-18.1306
-18.1549
-18.1802
-18.2071
-18.2358
-18.266
-18.2976
-18.3307
-18.3651
-18.401
-18.4384
-18.4772
-18.5174
-18.5591
-18.6023
-18.6469
-18.6929
-18.7404
-18.7894
-18.8397
-18.8916
-18.9449
-18.9997
-19.0559
-19.1136
-19.1727
-19.2333
-19.2954
-19.3589
-19.4239
-19.4903
-19.5582
-19.6276
-19.6984
-19.7707
-19.8444
-19.9196
-19.9963
-20.0744
-20.154
-20.235
-20.3175
-20.4015
-20.4869
-20.5738
-20.6621
-20.7519
-20.8432
-20.9359
-21.0301
-21.1257
-21.2228
-21.3214
-21.4214
-21.5229
-21.6258
-21.7302
-21.8361
-21.9434
-22.0522
-22.1624
-22.2741
-22.3873
-22.5019
-22.618
-22.7355
-22.8545
-22.975
-23.0969
-23.2203
-23.3451
-23.4714
-23.5992
-23.7284
-23.8591
-23.9912
-24.1248
-24.2598
-24.3963
-24.5343
-24.6737
-24.8146
-24.957
-25.1008
-25.246
-25.3928
-25.5409
-25.6906
-25.8417
-25.9942
-26.1483
-26.3037
-26.4607
-26.6191
-26.7789
-26.9402
-27.103
-27.2672
-27.4329
-27.6
-27.7686
-27.9387
-28.1102
-28.2831
-28.4576
-28.6334
-28.8108
-28.9896
-29.1698
-29.3515
-29.5347
-29.7193
-29.9054
-30.0929
-30.2819
-30.4724
-30.6643
-30.8576
-31.0524
-31.2487
-31.4464
-31.6455
-31.8462
-32.0482
-32.2517
-32.4567
-32.6631
-32.871
-33.0803
-33.2911
-33.5033
-33.7169
-33.932
-34.1486
-34.3665
-34.5859
-34.8067
-35.0289
-35.2526
-35.4776
-35.704
-35.9318
-36.1613
-36.3923
-21.8401
-22.0022
-22.1148
-22.1928
-22.2573
-22.2984
-22.3209
-22.342
-22.3664
-22.3916
-22.4173
-22.4445
-22.4733
-22.5037
-22.5353
-22.5684
-22.603
-22.6389
-22.6763
-22.7151
-22.7553
-22.7971
-22.8402
-22.8848
-22.9309
-22.9783
-23.0273
-23.0777
-23.1295
-23.1829
-23.2376
-23.2939
-23.3515
-23.4107
-23.4713
-23.5334
-23.5969
-23.6619
-23.7283
-23.7962
-23.8656
-23.9364
-24.0087
-24.0824
-24.1576
-24.2343
-24.3124
-24.392
-24.473
-24.5555
-24.6395
-24.7249
-24.8118
-24.9001
-24.9899
-25.0812
-25.1739
-25.2681
-25.3637
-25.4608
-25.5594
-25.6594
-25.7609
-25.8638
-25.9682
-26.0741
-26.1814
-26.2902
-26.4004
-26.5121
-26.6253
-26.7399
-26.856
-26.9735
-27.0925
-27.2129
-27.3349
-27.4582
-27.5831
-27.7094
-27.8371
-27.9663
-28.097
-28.2291
-28.3627
-28.4978
-28.6343
-28.7723
-28.9117
-29.0526
-29.1949
-29.3387
-29.484
-29.6307
-29.7789
-29.9285
-30.0796
-30.2322
-30.3862
-30.5417
-30.6986
-30.857
-31.0169
-31.1782
-31.3409
-31.5052
-31.6708
-31.838
-32.0066
-32.1766
-32.3481
-32.5211
-32.6955
-32.8714
-33.0487
-33.2275
-33.4078
-33.5895
-33.7727
-33.9573
-34.1434
-34.3309
-34.5199
-34.7103
-34.9022
-35.0956
-35.2904
-35.4866
-35.6843
-35.8835
-36.0841
-36.2862
-36.4897
-36.6947
-36.9011
-37.109
-37.3183
-37.529
-37.7413
-37.9549
-38.17
-38.3865
-38.6045
-38.8239
-39.0447
-39.2669
-39.4906
-39.7156
-39.9421
-40.17
-40.3995
-40.6305
-40.8629
-26.1354
-26.262
-26.3572
-26.4251
-26.4867
-26.5293
-26.5538
-26.5766
-26.6023
-26.6283
-26.6544
-26.6818
-26.7109
-26.7413
-26.7731
-26.8062
-26.8408
-26.8767
-26.9141
-26.953
-26.9932
-27.035
-27.0781
-27.1227
-27.1688
-27.2163
-27.2652
-27.3156
-27.3675
-27.4208
-27.4756
-27.5318
-27.5895
-27.6486
-27.7092
-27.7713
-27.8348
-27.8998
-27.9662
-28.0341
-28.1035
-28.1743
-28.2466
-28.3204
-28.3956
-28.4722
-28.5503
-28.6299
-28.711
-28.7935
-28.8774
-28.9628
-29.0497
-29.1381
-29.2279
-29.3191
-29.4118
-29.506
-29.6017
-29.6988
-29.7973
-29.8973
-29.9988
-30.1018
-30.2062
-30.312
-30.4193
-30.5281
-30.6384
-30.7501
-30.8632
-30.9778
-31.0939
-31.2114
-31.3304
-31.4509
-31.5728
-31.6962
-31.821
-31.9473
-32.0751
-32.2043
-32.335
-32.4671
-32.6007
-32.7357
-32.8723
-33.0102
-33.1496
-33.2905
-33.4329
-33.5767
-33.722
-33.8687
-34.0169
-34.1665
-34.3176
-34.4702
-34.6242
-34.7796
-34.9366
-35.095
-35.2548
-35.4161
-35.5789
-35.7431
-35.9088
-36.0759
-36.2445
-36.4146
-36.5861
-36.7591
-36.9335
-37.1094
-37.2867
-37.4655
-37.6457
-37.8275
-38.0106
-38.1952
-38.3813
-38.5688
-38.7578
-38.9483
-39.1402
-39.3335
-39.5283
-39.7246
-39.9223
-40.1214
-40.3221
-40.5241
-40.7277
-40.9326
-41.139
-41.3469
-41.5562
-41.767
-41.9792
-42.1929
-42.408
-42.6245
-42.8425
-43.0619
-43.2827
-43.505
-43.7286
-43.9537
-44.1802
-44.4082
-44.6377
-44.8687
-45.1014
-45.3356
-30.4206
-30.5211
-30.6015
-30.6607
-30.7188
-30.7617
-30.7875
-30.8117
-30.8384
-30.865
-30.8915
-30.9192
-30.9484
-30.9789
-31.0108
-31.044
-31.0786
-31.1146
-31.152
-31.1909
-31.2311
-31.2729
-31.316
-31.3606
-31.4067
-31.4542
-31.5032
-31.5536
-31.6054
-31.6587
-31.7135
-31.7697
-31.8274
-31.8866
-31.9472
-32.0092
-32.0728
-32.1377
-32.2042
-32.2721
-32.3415
-32.4123
-32.4846
-32.5583
-32.6335
-32.7102
-32.7883
-32.8679
-32.9489
-33.0314
-33.1154
-33.2008
-33.2877
-33.376
-33.4658
-33.5571
-33.6498
-33.744
-33.8396
-33.9367
-34.0353
-34.1353
-34.2368
-34.3397
-34.4441
-34.55
-34.6573
-34.7661
-34.8763
-34.988
-35.1012
-35.2158
-35.3319
-35.4494
-35.5684
-35.6888
-35.8108
-35.9341
-36.059
-36.1853
-36.313
-36.4422
-36.5729
-36.705
-36.8386
-36.9737
-37.1102
-37.2482
-37.3876
-37.5285
-37.6708
-37.8146
-37.9599
-38.1066
-38.2548
-38.4044
-38.5555
-38.7081
-38.8621
-39.0176
-39.1745
-39.3329
-39.4928
-39.6541
-39.8168
-39.9811
-40.1467
-40.3139
-40.4825
-40.6525
-40.824
-40.997
-41.1714
-41.3473
-41.5246
-41.7034
-41.8837
-42.0654
-42.2486
-42.4332
-42.6193
-42.8068
-42.9958
-43.1862
-43.3781
-43.5715
-43.7663
-43.9625
-44.1602
-44.3594
-44.56
-44.7621
-44.9656
-45.1706
-45.377
-45.5849
-45.7942
-46.005
-46.2172
-46.4308
-46.6459
-46.8625
-47.0804
-47.2999
-47.5207
-47.743
-47.9666
-48.1918
-48.4183
-48.6463
-48.8759
-49.107
-49.3396
-49.5738
-34.6978
-34.779
-34.8471
-34.8985
-34.953
-34.9956
-35.0222
-35.0472
-35.0747
-35.1019
-35.1287
-35.1566
-35.1859
-35.2166
-35.2485
-35.2818
-35.3164
-35.3524
-35.3899
-35.4287
-35.469
-35.5108
-35.5539
-35.5986
-35.6446
-35.6921
-35.7411
-35.7915
-35.8433
-35.8967
-35.9514
-36.0077
-36.0654
-36.1245
-36.1851
-36.2472
-36.3107
-36.3757
-36.4421
-36.51
-36.5794
-36.6502
-36.7225
-36.7962
-36.8714
-36.9481
-37.0262
-37.1058
-37.1868
-37.2693
-37.3533
-37.4387
-37.5256
-37.6139
-37.7037
-37.795
-37.8877
-37.9819
-38.0775
-38.1746
-38.2732
-38.3732
-38.4747
-38.5776
-38.682
-38.7879
-38.8952
-39.004
-39.1142
-39.2259
-39.3391
-39.4537
-39.5698
-39.6873
-39.8063
-39.9268
-40.0487
-40.1721
-40.2969
-40.4232
-40.551
-40.6802
-40.8109
-40.943
-41.0766
-41.2116
-41.3481
-41.4861
-41.6255
-41.7664
-41.9088
-42.0526
-42.1978
-42.3446
-42.4927
-42.6424
-42.7935
-42.946
-43.1001
-43.2555
-43.4125
-43.5709
-43.7307
-43.892
-44.0548
-44.219
-44.3847
-44.5518
-44.7204
-44.8905
-45.062
-45.2349
-45.4094
-45.5852
-45.7626
-45.9414
-46.1216
-46.3033
-46.4865
-46.6711
-46.8572
-47.0447
-47.2337
-47.4242
-47.616
-47.8094
-48.0042
-48.2005
-48.3982
-48.5973
-48.798
-49
-49.2035
-49.4085
-49.6149
-49.8228
-50.0321
-50.2429
-50.4551
-50.6688
-50.8839
-51.1004
-51.3184
-51.5378
-51.7587
-51.981
-52.2047
-52.4298
-52.6564
-52.8845
-53.1141
-53.3452
-53.5778
-53.812
-54.0476
-38.9686
-39.0357
-39.0933
-39.1379
-39.1889
-39.2306
-39.2575
-39.2831
-39.3113
-39.3389
-39.3659
-39.394
-39.4235
-39.4543
-39.4862
-39.5195
-39.5542
-39.5903
-39.6277
-39.6666
-39.7069
-39.7487
-39.7918
-39.8365
-39.8825
-39.93
-39.979
-40.0294
-40.0813
-40.1346
-40.1894
-40.2456
-40.3033
-40.3624
-40.423
-40.4851
-40.5486
-40.6136
-40.6801
-40.748
-40.8173
-40.8881
-40.9604
-41.0342
-41.1094
-41.186
-41.2642
-41.3437
-41.4248
-41.5073
-41.5912
-41.6767
-41.7635
-41.8519
-41.9417
-42.0329
-42.1257
-42.2198
-42.3155
-42.4126
-42.5111
-42.6112
-42.7126
-42.8156
-42.92
-43.0258
-43.1332
-43.2419
-43.3522
-43.4639
-43.577
-43.6917
-43.8077
-43.9253
-44.0443
-44.1647
-44.2866
-44.41
-44.5349
-44.6611
-44.7889
-44.9181
-45.0488
-45.1809
-45.3145
-45.4496
-45.5861
-45.724
-45.8635
-46.0044
-46.1467
-46.2905
-46.4358
-46.5825
-46.7307
-46.8803
-47.0314
-47.184
-47.338
-47.4935
-47.6504
-47.8088
-47.9686
-48.1299
-48.2927
-48.4569
-48.6226
-48.7897
-48.9583
-49.1284
-49.2999
-49.4729
-49.6473
-49.8232
-50.0005
-50.1793
-50.3596
-50.5413
-50.7244
-50.9091
-51.0951
-51.2827
-51.4716
-51.6621
-51.854
-52.0473
-52.2421
-52.4384
-52.6361
-52.8353
-53.0359
-53.238
-53.4415
-53.6465
-53.8529
-54.0608
-54.2701
-54.4808
-54.6931
-54.9067
-55.1218
-55.3384
-55.5564
-55.7758
-55.9967
-56.219
-56.4427
-56.6679
-56.8945
-57.1226
-57.3522
-57.5833
-57.816
-58.0503
-58.2861
-58.5234
-43.2344
-43.2909
-43.34
-43.3786
-43.4262
-43.4667
-43.4936
-43.5195
-43.548
-43.576
-43.6032
-43.6315
-43.6611
-43.6919
-43.724
-43.7573
-43.792
-43.8281
-43.8656
-43.9045
-43.9448
-43.9865
-44.0297
-44.0744
-44.1204
-44.1679
-44.2169
-44.2673
-44.3192
-44.3725
-44.4273
-44.4835
-44.5412
-44.6004
-44.661
-44.723
-44.7866
-44.8515
-44.918
-44.9859
-45.0553
-45.1261
-45.1984
-45.2721
-45.3473
-45.424
-45.5021
-45.5817
-45.6627
-45.7452
-45.8292
-45.9146
-46.0015
-46.0898
-46.1796
-46.2709
-46.3636
-46.4578
-46.5534
-46.6505
-46.7491
-46.8491
-46.9506
-47.0535
-47.1579
-47.2638
-47.3711
-47.4799
-47.5901
-47.7018
-47.815
-47.9296
-48.0457
-48.1632
-48.2822
-48.4027
-48.5246
-48.6479
-48.7728
-48.8991
-49.0268
-49.156
-49.2867
-49.4188
-49.5524
-49.6875
-49.824
-49.962
-50.1014
-50.2423
-50.3846
-50.5284
-50.6737
-50.8204
-50.9686
-51.1182
-51.2693
-51.4219
-51.5759
-51.7314
-51.8883
-52.0467
-52.2066
-52.3679
-52.5306
-52.6949
-52.8605
-53.0277
-53.1963
-53.3663
-53.5378
-53.7108
-53.8852
-54.0611
-54.2384
-54.4172
-54.5975
-54.7792
-54.9624
-55.147
-55.3331
-55.5206
-55.7096
-55.9
-56.0919
-56.2853
-56.4801
-56.6763
-56.874
-57.0732
-57.2738
-57.4759
-57.6794
-57.8844
-58.0908
-58.2987
-58.508
-58.7188
-58.931
-59.1447
-59.3598
-59.5763
-59.7943
-60.0138
-60.2346
-60.4569
-60.6807
-60.9059
-61.1326
-61.3607
-61.5903
-61.8215
-62.0542
-62.2885
-62.5243
-62.7617
-63.0007
-47.4962
-47.5448
-47.5866
-47.6201
-47.6645
-47.7036
-47.7302
-47.7563
-47.7851
-47.8132
-47.8406
-47.869
-47.8987
-47.9296
-47.9617
-47.9951
-48.0298
-48.0659
-48.1034
-48.1423
-48.1827
-48.2244
-48.2676
-48.3122
-48.3583
-48.4058
-48.4548
-48.5052
-48.5571
-48.6104
-48.6652
-48.7214
-48.7791
-48.8383
-48.8989
-48.961
-49.0245
-49.0895
-49.1559
-49.2238
-49.2932
-49.364
-49.4363
-49.51
-49.5852
-49.6619
-49.74
-49.8196
-49.9006
-49.9831
-50.0671
-50.1525
-50.2394
-50.3277
-50.4175
-50.5088
-50.6015
-50.6957
-50.7913
-50.8884
-50.987
-51.087
-51.1885
-51.2914
-51.3958
-51.5017
-51.609
-51.7178
-51.828
-51.9397
-52.0529
-52.1675
-52.2836
-52.4011
-52.5201
-52.6406
-52.7625
-52.8859
-53.0107
-53.137
-53.2648
-53.394
-53.5246
-53.6568
-53.7904
-53.9254
-54.0619
-54.1999
-54.3393
-54.4802
-54.6226
-54.7664
-54.9116
-55.0583
-55.2065
-55.3562
-55.5073
-55.6598
-55.8138
-55.9693
-56.1262
-56.2846
-56.4445
-56.6058
-56.7686
-56.9328
-57.0985
-57.2656
-57.4342
-57.6042
-57.7758
-57.9487
-58.1231
-58.299
-58.4764
-58.6552
-58.8354
-59.0171
-59.2003
-59.3849
-59.571
-59.7585
-59.9475
-60.1379
-60.3298
-60.5232
-60.718
-60.9143
-61.112
-61.3111
-61.5117
-61.7138
-61.9173
-62.1223
-62.3287
-62.5366
-62.7459
-62.9567
-63.1689
-63.3826
-63.5977
-63.8143
-64.0323
-64.2517
-64.4726
-64.6949
-64.9187
-65.1439
-65.3706
-65.5988
-65.8285
-66.0597
-66.2924
-66.5267
-66.7625
-66.9999
-67.2388
-51.7546
-51.7973
-51.8332
-51.8622
-51.9036
-51.9412
-51.9674
-51.9934
-52.0223
-52.0506
-52.0781
-52.1066
-52.1364
-52.1674
-52.1995
-52.2329
-52.2677
-52.3038
-52.3413
-52.3802
-52.4205
-52.4623
-52.5055
-52.5501
-52.5962
-52.6437
-52.6927
-52.7431
-52.795
-52.8483
-52.9031
-52.9593
-53.017
-53.0762
-53.1368
-53.1989
-53.2624
-53.3274
-53.3938
-53.4617
-53.5311
-53.6019
-53.6742
-53.7479
-53.8231
-53.8998
-53.9779
-54.0575
-54.1385
-54.221
-54.305
-54.3904
-54.4773
-54.5656
-54.6554
-54.7467
-54.8394
-54.9336
-55.0292
-55.1263
-55.2249
-55.3249
-55.4264
-55.5293
-55.6337
-55.7396
-55.8469
-55.9557
-56.0659
-56.1776
-56.2908
-56.4054
-56.5215
-56.639
-56.758
-56.8785
-57.0004
-57.1238
-57.2486
-57.3749
-57.5027
-57.6319
-57.7626
-57.8947
-58.0283
-58.1633
-58.2998
-58.4378
-58.5772
-58.7181
-58.8605
-59.0043
-59.1495
-59.2963
-59.4444
-59.5941
-59.7452
-59.8977
-60.0518
-60.2072
-60.3642
-60.5226
-60.6824
-60.8437
-61.0065
-61.1707
-61.3364
-61.5035
-61.6721
-61.8422
-62.0137
-62.1866
-62.3611
-62.5369
-62.7143
-62.8931
-63.0733
-63.255
-63.4382
-63.6228
-63.8089
-63.9964
-64.1854
-64.3759
-64.5678
-64.7611
-64.9559
-65.1522
-65.3499
-65.549
-65.7497
-65.9517
-66.1553
-66.3602
-66.5667
-66.7745
-66.9839
-67.1946
-67.4069
-67.6205
-67.8357
-68.0522
-68.2702
-68.4897
-68.7106
-68.9329
-69.1567
-69.382
-69.6087
-69.8369
-70.0666
-70.2978
-70.5305
-70.7648
-71.0007
-71.2381
-71.477
-71.7173
-56.0104
-56.0485
-56.0796
-56.1046
-56.1434
-56.1794
-56.205
-56.2309
-56.2598
-56.2881
-56.3157
-56.3443
-56.3741
-56.4051
-56.4373
-56.4707
-56.5055
-56.5416
-56.5791
-56.6181
-56.6584
-56.7002
-56.7434
-56.788
-56.8341
-56.8816
-56.9306
-56.981
-57.0329
-57.0862
-57.141
-57.1972
-57.2549
-57.3141
-57.3747
-57.4368
-57.5003
-57.5653
-57.6317
-57.6996
-57.769
-57.8398
-57.9121
-57.9858
-58.061
-58.1377
-58.2158
-58.2954
-58.3765
-58.459
-58.5429
-58.6283
-58.7152
-58.8036
-58.8934
-58.9846
-59.0773
-59.1715
-59.2672
-59.3643
-59.4628
-59.5628
-59.6643
-59.7673
-59.8717
-59.9775
-60.0848
-60.1936
-60.3039
-60.4156
-60.5287
-60.6433
-60.7594
-60.8769
-60.9959
-61.1164
-61.2383
-61.3617
-61.4865
-61.6128
-61.7406
-61.8698
-62.0005
-62.1326
-62.2662
-62.4012
-62.5377
-62.6757
-62.8151
-62.956
-63.0984
-63.2422
-63.3874
-63.5342
-63.6824
-63.832
-63.9831
-64.1356
-64.2897
-64.4451
-64.6021
-64.7605
-64.9203
-65.0816
-65.2444
-65.4086
-65.5743
-65.7414
-65.91
-66.0801
-66.2516
-66.4245
-66.599
-66.7749
-66.9522
-67.131
-67.3112
-67.4929
-67.6761
-67.8607
-68.0468
-68.2343
-68.4233
-68.6138
-68.8057
-68.999
-69.1938
-69.3901
-69.5878
-69.787
-69.9876
-70.1897
-70.3932
-70.5982
-70.8046
-71.0125
-71.2218
-71.4326
-71.6448
-71.8585
-72.0736
-72.2902
-72.5082
-72.7276
-72.9485
-73.1709
-73.3947
-73.62
-73.8467
-74.0749
-74.3047
-74.5359
-74.7687
-75.003
-75.2388
-75.4762
-75.7152
-75.9557
-76.1977
-60.264
-60.2986
-60.3256
-60.3473
-60.3836
-60.4181
-60.4431
-60.4686
-60.4974
-60.5258
-60.5534
-60.582
-60.6119
-60.6429
-60.6751
-60.7085
-60.7433
-60.7795
-60.817
-60.8559
-60.8963
-60.9381
-60.9813
-61.0259
-61.072
-61.1195
-61.1685
-61.2189
-61.2708
-61.3241
-61.3789
-61.4351
-61.4928
-61.552
-61.6126
-61.6747
-61.7382
-61.8032
-61.8696
-61.9375
-62.0069
-62.0777
-62.15
-62.2237
-62.299
-62.3756
-62.4537
-62.5333
-62.6144
-62.6969
-62.7808
-62.8662
-62.9531
-63.0415
-63.1313
-63.2225
-63.3152
-63.4094
-63.5051
-63.6022
-63.7007
-63.8007
-63.9022
-64.0052
-64.1096
-64.2154
-64.3227
-64.4315
-64.5418
-64.6535
-64.7666
-64.8812
-64.9973
-65.1148
-65.2338
-65.3543
-65.4762
-65.5996
-65.7244
-65.8507
-65.9785
-66.1077
-66.2384
-66.3705
-66.5041
-66.6391
-66.7757
-66.9136
-67.053
-67.1939
-67.3363
-67.4801
-67.6254
-67.7721
-67.9203
-68.0699
-68.221
-68.3736
-68.5276
-68.683
-68.84
-68.9984
-69.1582
-69.3195
-69.4823
-69.6465
-69.8122
-69.9793
-70.1479
-70.318
-70.4895
-70.6625
-70.8369
-71.0128
-71.1901
-71.3689
-71.5491
-71.7309
-71.914
-72.0986
-72.2847
-72.4722
-72.6612
-72.8517
-73.0436
-73.2369
-73.4317
-73.628
-73.8257
-74.0249
-74.2255
-74.4276
-74.6311
-74.8361
-75.0425
-75.2504
-75.4597
-75.6705
-75.8827
-76.0964
-76.3115
-76.5281
-76.7461
-76.9656
-77.1865
-77.4089
-77.6327
-77.858
-78.0848
-78.313
-78.5428
-78.774
-79.0068
-79.2411
-79.477
-79.7144
-79.9533
-80.1938
-80.4358
-64.5157
-64.5477
-64.5714
-64.5901
-64.6241
-64.6572
-64.6814
-64.7066
-64.7353
-64.7635
-64.7912
-64.8197
-64.8496
-64.8807
-64.9129
-64.9464
-64.9812
-65.0173
-65.0549
-65.0938
-65.1341
-65.1759
-65.2191
-65.2638
-65.3099
-65.3574
-65.4064
-65.4568
-65.5087
-65.562
-65.6168
-65.673
-65.7307
-65.7899
-65.8505
-65.9126
-65.9761
-66.0411
-66.1075
-66.1754
-66.2448
-66.3156
-66.3879
-66.4616
-66.5368
-66.6135
-66.6916
-66.7712
-66.8523
-66.9348
-67.0187
-67.1041
-67.191
-67.2794
-67.3692
-67.4604
-67.5531
-67.6473
-67.743
-67.8401
-67.9386
-68.0386
-68.1401
-68.2431
-68.3475
-68.4533
-68.5606
-68.6694
-68.7797
-68.8914
-69.0045
-69.1191
-69.2352
-69.3527
-69.4717
-69.5922
-69.7141
-69.8375
-69.9623
-70.0886
-70.2164
-70.3456
-70.4763
-70.6084
-70.742
-70.877
-71.0135
-71.1515
-71.2909
-71.4318
-71.5742
-71.718
-71.8632
-72.01
-72.1582
-72.3078
-72.4589
-72.6114
-72.7655
-72.9209
-73.0779
-73.2363
-73.3961
-73.5574
-73.7202
-73.8844
-74.0501
-74.2172
-74.3858
-74.5559
-74.7274
-74.9004
-75.0748
-75.2507
-75.428
-75.6068
-75.787
-75.9688
-76.1519
-76.3365
-76.5226
-76.7101
-76.8991
-77.0896
-77.2815
-77.4748
-77.6696
-77.8659
-78.0636
-78.2628
-78.4634
-78.6655
-78.869
-79.074
-79.2804
-79.4883
-79.6976
-79.9084
-80.1206
-80.3343
-80.5494
-80.766
-80.9841
-81.2035
-81.4245
-81.6468
-81.8707
-82.096
-82.3228
-82.551
-82.7808
-83.0121
-83.2449
-83.4792
-83.7151
-83.9525
-84.1915
-84.4319
-84.6739
-84.9173
-68.7659
-68.7958
-68.8167
-68.8329
-68.8649
-68.8966
-68.92
-68.9449
-68.9733
-69.0014
-69.029
-69.0576
-69.0875
-69.1185
-69.1507
-69.1842
-69.219
-69.2552
-69.2927
-69.3317
-69.372
-69.4138
-69.457
-69.5016
-69.5477
-69.5953
-69.6442
-69.6947
-69.7465
-69.7999
-69.8547
-69.9109
-69.9686
-70.0278
-70.0884
-70.1505
-70.214
-70.279
-70.3454
-70.4133
-70.4827
-70.5535
-70.6258
-70.6995
-70.7747
-70.8514
-70.9295
-71.0091
-71.0901
-71.1726
-71.2566
-71.342
-71.4289
-71.5173
-71.6071
-71.6983
-71.791
-71.8852
-71.9809
-72.078
-72.1765
-72.2765
-72.378
-72.481
-72.5854
-72.6912
-72.7985
-72.9073
-73.0175
-73.1292
-73.2424
-73.357
-73.4731
-73.5906
-73.7096
-73.8301
-73.952
-74.0754
-74.2002
-74.3265
-74.4543
-74.5835
-74.7142
-74.8463
-74.9799
-75.1149
-75.2514
-75.3894
-75.5288
-75.6697
-75.8121
-75.9559
-76.1011
-76.2479
-76.396
-76.5457
-76.6968
-76.8493
-77.0034
-77.1588
-77.3158
-77.4742
-77.634
-77.7953
-77.9581
-78.1223
-78.288
-78.4551
-78.6237
-78.7938
-78.9653
-79.1382
-79.3127
-79.4885
-79.6659
-79.8447
-80.0249
-80.2066
-80.3898
-80.5744
-80.7605
-80.948
-81.137
-81.3275
-81.5194
-81.7127
-81.9075
-82.1038
-82.3015
-82.5007
-82.7013
-82.9034
-83.1069
-83.3119
-83.5183
-83.7262
-83.9355
-84.1463
-84.3585
-84.5722
-84.7874
-85.0039
-85.222
-85.4415
-85.6624
-85.8848
-86.1087
-86.334
-86.5608
-86.7891
-87.0189
-87.2502
-87.483
-87.7173
-87.9532
-88.1907
-88.4296
-88.6701
-88.9121
-89.1557
-89.4007
-73.0148
-73.0431
-73.0616
-73.0757
-73.1059
-73.1363
-73.1589
-73.1833
-73.2114
-73.2394
-73.267
-73.2955
-73.3253
-73.3564
-73.3886
-73.422
-73.4569
-73.493
-73.5306
-73.5695
-73.6099
-73.6517
-73.6949
-73.7395
-73.7856
-73.8331
-73.8821
-73.9325
-73.9844
-74.0378
-74.0925
-74.1488
-74.2065
-74.2656
-74.3263
-74.3883
-74.4519
-74.5169
-74.5833
-74.6512
-74.7206
-74.7914
-74.8637
-74.9374
-75.0126
-75.0893
-75.1674
-75.247
-75.328
-75.4105
-75.4945
-75.5799
-75.6668
-75.7551
-75.8449
-75.9362
-76.0289
-76.1231
-76.2187
-76.3158
-76.4144
-76.5144
-76.6159
-76.7188
-76.8232
-76.9291
-77.0364
-77.1452
-77.2554
-77.3671
-77.4803
-77.5949
-77.711
-77.8285
-77.9475
-78.068
-78.1899
-78.3133
-78.4381
-78.5644
-78.6922
-78.8214
-78.952
-79.0842
-79.2178
-79.3528
-79.4893
-79.6273
-79.7667
-79.9076
-80.05
-80.1938
-80.339
-80.4857
-80.6339
-80.7836
-80.9347
-81.0872
-81.2412
-81.3967
-81.5536
-81.712
-81.8719
-82.0332
-82.196
-82.3602
-82.5259
-82.693
-82.8616
-83.0317
-83.2032
-83.3761
-83.5506
-83.7264
-83.9038
-84.0826
-84.2628
-84.4445
-84.6277
-84.8123
-84.9984
-85.1859
-85.3749
-85.5654
-85.7573
-85.9506
-86.1454
-86.3417
-86.5394
-86.7386
-86.9392
-87.1413
-87.3448
-87.5498
-87.7562
-87.9641
-88.1734
-88.3842
-88.5964
-88.8101
-89.0253
-89.2419
-89.4599
-89.6794
-89.9004
-90.1228
-90.3466
-90.572
-90.7988
-91.0271
-91.2569
-91.4882
-91.7211
-91.9554
-92.1913
-92.4288
-92.6677
-92.9082
-93.1502
-93.3938
-93.6389
-93.8856
-77.2625
-77.2895
-77.3062
-77.3183
-77.3469
-77.3761
-77.398
-77.4219
-77.4497
-77.4775
-77.505
-77.5334
-77.5632
-77.5942
-77.6264
-77.6599
-77.6947
-77.7309
-77.7684
-77.8074
-77.8477
-77.8895
-77.9327
-77.9774
-78.0235
-78.071
-78.12
-78.1704
-78.2223
-78.2756
-78.3304
-78.3867
-78.4444
-78.5035
-78.5641
-78.6262
-78.6897
-78.7547
-78.8212
-78.8891
-78.9584
-79.0293
-79.1016
-79.1753
-79.2505
-79.3272
-79.4053
-79.4849
-79.5659
-79.6484
-79.7324
-79.8178
-79.9047
-79.993
-80.0828
-80.1741
-80.2668
-80.361
-80.4566
-80.5537
-80.6523
-80.7523
-80.8538
-80.9567
-81.0611
-81.167
-81.2743
-81.3831
-81.4933
-81.605
-81.7182
-81.8328
-81.9489
-82.0664
-82.1854
-82.3059
-82.4278
-82.5512
-82.676
-82.8023
-82.93
-83.0592
-83.1899
-83.3221
-83.4556
-83.5907
-83.7272
-83.8652
-84.0046
-84.1455
-84.2878
-84.4316
-84.5769
-84.7236
-84.8718
-85.0214
-85.1725
-85.3251
-85.4791
-85.6346
-85.7915
-85.9499
-86.1098
-86.2711
-86.4338
-86.5981
-86.7637
-86.9309
-87.0995
-87.2695
-87.441
-87.614
-87.7884
-87.9643
-88.1417
-88.3205
-88.5007
-88.6824
-88.8656
-89.0502
-89.2363
-89.4238
-89.6128
-89.8032
-89.9951
-90.1885
-90.3833
-90.5796
-90.7773
-90.9764
-91.1771
-91.3791
-91.5827
-91.7877
-91.9941
-92.202
-92.4113
-92.6221
-92.8343
-93.048
-93.2632
-93.4798
-93.6978
-93.9173
-94.1383
-94.3607
-94.5846
-94.8099
-95.0368
-95.2651
-95.4949
-95.7263
-95.9591
-96.1935
-96.4294
-96.6669
-96.9058
-97.1463
-97.3883
-97.6319
-97.877
-98.1237
-81.5094
-81.5353
-81.5504
-81.5609
-81.588
-81.6161
-81.6372
-81.6606
-81.6881
-81.7157
-81.743
-81.7714
-81.8012
-81.8322
-81.8643
-81.8978
-81.9326
-81.9687
-82.0063
-82.0452
-82.0856
-82.1274
-82.1706
-82.2152
-82.2613
-82.3089
-82.3578
-82.4083
-82.4602
-82.5135
-82.5683
-82.6245
-82.6822
-82.7414
-82.802
-82.8641
-82.9276
-82.9926
-83.059
-83.127
-83.1963
-83.2671
-83.3394
-83.4132
-83.4884
-83.565
-83.6432
-83.7227
-83.8038
-83.8863
-83.9702
-84.0557
-84.1426
-84.2309
-84.3207
-84.412
-84.5047
-84.5989
-84.6945
-84.7916
-84.8902
-84.9902
-85.0917
-85.1946
-85.299
-85.4049
-85.5122
-85.621
-85.7312
-85.8429
-85.956
-86.0707
-86.1867
-86.3043
-86.4233
-86.5437
-86.6656
-86.789
-86.9139
-87.0402
-87.1679
-87.2971
-87.4278
-87.5599
-87.6935
-87.8286
-87.9651
-88.103
-88.2425
-88.3834
-88.5257
-88.6695
-88.8148
-88.9615
-89.1097
-89.2593
-89.4104
-89.563
-89.717
-89.8725
-90.0294
-90.1878
-90.3476
-90.5089
-90.6717
-90.8359
-91.0016
-91.1688
-91.3374
-91.5074
-91.6789
-91.8519
-92.0263
-92.2022
-92.3795
-92.5583
-92.7386
-92.9203
-93.1035
-93.2881
-93.4742
-93.6617
-93.8507
-94.0411
-94.233
-94.4264
-94.6212
-94.8174
-95.0152
-95.2143
-95.415
-95.617
-95.8206
-96.0255
-96.232
-96.4399
-96.6492
-96.86
-97.0722
-97.2859
-97.5011
-97.7177
-97.9357
-98.1552
-98.3762
-98.5986
-98.8225
-99.0479
-99.2748
-99.5031
-99.733
-99.9643
-100.197
-100.432
-100.667
-100.905
-101.144
-101.384
-101.626
-101.87
-102.115
-102.362
-102.61
-85.7553
-85.7805
-85.7942
-85.8033
-85.8291
-85.8561
-85.8765
-85.8995
-85.9266
-85.954
-85.9812
-86.0094
-86.0391
-86.0701
-86.1022
-86.1357
-86.1705
-86.2066
-86.2441
-86.2831
-86.3234
-86.3652
-86.4084
-86.4531
-86.4992
-86.5467
-86.5957
-86.6461
-86.698
-86.7513
-86.8061
-86.8624
-86.9201
-86.9793
-87.0399
-87.1019
-87.1655
-87.2305
-87.2969
-87.3648
-87.4342
-87.505
-87.5773
-87.651
-87.7262
-87.8029
-87.881
-87.9606
-88.0417
-88.1242
-88.2081
-88.2935
-88.3804
-88.4688
-88.5586
-88.6498
-88.7425
-88.8367
-88.9324
-89.0295
-89.128
-89.228
-89.3295
-89.4325
-89.5369
-89.6427
-89.75
-89.8588
-89.9691
-90.0808
-90.1939
-90.3085
-90.4246
-90.5421
-90.6611
-90.7816
-90.9035
-91.0269
-91.1517
-91.278
-91.4058
-91.535
-91.6657
-91.7978
-91.9314
-92.0664
-92.2029
-92.3409
-92.4803
-92.6212
-92.7636
-92.9074
-93.0526
-93.1994
-93.3476
-93.4972
-93.6483
-93.8008
-93.9549
-94.1103
-94.2673
-94.4257
-94.5855
-94.7468
-94.9096
-95.0738
-95.2395
-95.4066
-95.5752
-95.7453
-95.9168
-96.0898
-96.2642
-96.4401
-96.6174
-96.7962
-96.9764
-97.1582
-97.3413
-97.5259
-97.712
-97.8996
-98.0885
-98.279
-98.4709
-98.6642
-98.8591
-99.0553
-99.253
-99.4522
-99.6528
-99.8549
-100.058
-100.263
-100.47
-100.678
-100.887
-101.098
-101.31
-101.524
-101.739
-101.956
-102.174
-102.393
-102.614
-102.837
-103.06
-103.286
-103.513
-103.741
-103.971
-104.202