/*--------------------------------*- C++ -*----------------------------------*\
| =========                 |                                                 |
| \\      /  F ield         | OpenFOAM: The Open Source CFD Toolbox           |
|  \\    /   O peration     | Version:  2512                                  |
|   \\  /    A nd           | Website:  www.openfoam.com                      |
|    \\/     M anipulation  |                                                 |
\*---------------------------------------------------------------------------*/
FoamFile
{
    version     2.0;
    format      ascii;
    arch        "LSB;label=32;scalar=64";
    class       volScalarField;
    location    "0.1";
    object      pB;
}
// * * * * * * * * * * * * * * * * * * * * * * * * * * * * * * * * * * * * * //

dimensions      [1 1 -3 0 0 -1 0];

internalField   nonuniform List<scalar> 
8333
(
1.4263
3.64232
5.26563
6.72545
8.0789
9.32671
10.4977
11.6021
12.6281
13.568
14.4237
15.1985
15.8947
16.5151
17.0636
17.5443
17.9616
18.32
18.6238
18.8776
19.0854
19.2515
19.3797
19.4737
19.537
19.573
19.5848
19.5753
19.547
19.5025
19.444
19.3737
19.2934
19.2048
19.1095
19.0088
18.9041
18.7965
18.6869
18.5761
18.4651
18.3544
18.2445
18.1361
18.0294
17.9249
17.8229
17.7235
17.627
17.5335
17.4431
17.3558
17.2718
17.191
17.1134
17.039
16.9677
16.8995
16.8344
16.7722
16.7128
16.6562
16.6022
16.5509
16.5019
16.4554
16.4111
16.3689
16.3288
16.2907
16.2544
16.2198
16.187
16.1556
16.1258
16.0974
16.0703
16.0444
16.0196
15.996
15.9733
15.9517
15.9309
15.9109
15.8917
15.8733
15.8555
15.8383
15.8217
15.8057
15.7901
15.775
15.7604
15.7461
15.7322
15.7187
15.7054
15.6925
15.6798
15.6674
15.6552
15.6432
15.6315
15.6199
15.6085
15.5973
15.5862
15.5753
15.5646
15.554
15.5435
15.5332
15.523
15.513
15.5032
15.4934
15.4839
15.4744
15.4652
15.4561
15.4472
15.4385
15.43
15.4217
15.4136
15.4058
15.3981
15.3908
15.3837
15.3768
15.3703
15.364
15.3581
15.3525
15.3472
15.3422
15.3375
15.3332
15.3292
15.3256
15.3223
15.3193
15.3167
15.3143
15.3123
15.3106
15.3093
15.3081
15.3074
1.43889
3.6051
5.26225
6.72466
8.07573
9.32178
10.4891
11.5884
12.61
13.5468
14.4003
15.1733
15.868
16.4874
17.035
17.5152
17.9321
18.2902
18.594
18.8477
19.0557
19.2218
19.3502
19.4444
19.508
19.5442
19.5563
19.547
19.519
19.4748
19.4166
19.3466
19.2665
19.1782
19.0832
18.9828
18.8784
18.771
18.6616
18.5511
18.4402
18.3297
18.2201
18.1118
18.0053
17.901
17.7991
17.6999
17.6036
17.5102
17.4199
17.3328
17.2489
17.1682
17.0907
17.0164
16.9452
16.8771
16.8121
16.7499
16.6906
16.6341
16.5802
16.5289
16.4801
16.4336
16.3893
16.3472
16.3072
16.2691
16.2328
16.1983
16.1655
16.1342
16.1045
16.0761
16.049
16.0231
15.9984
15.9748
15.9522
15.9306
15.9098
15.8899
15.8707
15.8523
15.8346
15.8174
15.8009
15.7848
15.7693
15.7543
15.7396
15.7254
15.7115
15.698
15.6848
15.6719
15.6592
15.6468
15.6347
15.6227
15.611
15.5994
15.5881
15.5769
15.5658
15.555
15.5443
15.5337
15.5233
15.513
15.5028
15.4928
15.483
15.4733
15.4638
15.4544
15.4451
15.4361
15.4272
15.4185
15.4101
15.4018
15.3937
15.3859
15.3783
15.3709
15.3639
15.3571
15.3505
15.3443
15.3384
15.3328
15.3275
15.3225
15.3179
15.3136
15.3096
15.306
15.3027
15.2998
15.2971
15.2948
15.2928
15.2911
15.2898
15.2886
15.2877
15.2869
1.42765
3.57028
5.25642
6.72305
8.071
9.31366
10.4754
11.5675
12.5826
13.5146
14.3643
15.1342
15.8264
16.4438
16.99
17.469
17.8851
18.2427
18.546
18.7996
19.0074
19.1736
19.302
19.3964
19.4602
19.4968
19.5092
19.5002
19.4726
19.4288
19.371
19.3014
19.2217
19.1338
19.0391
18.9392
18.8351
18.7281
18.619
18.5089
18.3984
18.2882
18.1788
18.0709
17.9647
17.8607
17.759
17.6601
17.5639
17.4708
17.3807
17.2938
17.2101
17.1296
17.0523
16.9782
16.9072
16.8393
16.7743
16.7123
16.6532
16.5968
16.5431
16.4919
16.4431
16.3967
16.3526
16.3106
16.2707
16.2327
16.1965
16.1621
16.1293
16.0982
16.0684
16.0401
16.0131
15.9873
15.9627
15.9392
15.9166
15.895
15.8743
15.8545
15.8354
15.817
15.7993
15.7822
15.7657
15.7497
15.7343
15.7193
15.7047
15.6905
15.6767
15.6632
15.65
15.6372
15.6246
15.6122
15.6001
15.5882
15.5765
15.565
15.5537
15.5425
15.5315
15.5207
15.51
15.4995
15.4891
15.4789
15.4688
15.4588
15.449
15.4394
15.4299
15.4205
15.4114
15.4024
15.3935
15.3849
15.3764
15.3682
15.3602
15.3524
15.3448
15.3375
15.3305
15.3237
15.3173
15.3111
15.3052
15.2996
15.2943
15.2894
15.2848
15.2806
15.2766
15.273
15.2698
15.2669
15.2643
15.262
15.26
15.2583
15.2569
15.2557
15.2547
15.2536
15.2519
1.40455
3.53281
5.24403
6.71681
8.0614
9.2994
10.4538
11.5368
12.5434
13.4685
14.3127
15.078
15.7666
16.3811
16.9249
17.4021
17.8169
18.1734
18.4761
18.7291
18.9367
19.1028
19.2313
19.3259
19.39
19.4269
19.4397
19.4312
19.404
19.3607
19.3035
19.2344
19.1553
19.0679
18.9738
18.8744
18.7708
18.6643
18.5558
18.4461
18.3361
18.2264
18.1175
18.01
17.9042
17.8006
17.6993
17.6008
17.505
17.4122
17.3224
17.2359
17.1524
17.0722
16.9952
16.9213
16.8506
16.7829
16.7182
16.6564
16.5975
16.5413
16.4877
16.4367
16.3882
16.342
16.298
16.2561
16.2163
16.1785
16.1425
16.1082
16.0755
16.0445
16.0149
15.9867
15.9598
15.9341
15.9096
15.8861
15.8637
15.8422
15.8216
15.8018
15.7828
15.7645
15.7469
15.7299
15.7135
15.6976
15.6822
15.6672
15.6527
15.6386
15.6249
15.6115
15.5984
15.5856
15.573
15.5608
15.5487
15.5369
15.5253
15.5138
15.5026
15.4915
15.4806
15.4698
15.4592
15.4487
15.4384
15.4282
15.4182
15.4083
15.3986
15.389
15.3796
15.3703
15.3612
15.3522
15.3434
15.3349
15.3265
15.3183
15.3103
15.3026
15.2951
15.2879
15.2809
15.2742
15.2678
15.2616
15.2558
15.2503
15.2451
15.2402
15.2357
15.2314
15.2276
15.224
15.2208
15.2179
15.2154
15.2131
15.2111
15.2095
15.208
15.2068
15.2057
15.2043
15.2024
15.1998
1.37209
3.48973
5.22136
6.70237
8.04436
9.27704
10.4231
11.4956
12.492
13.4087
14.2459
15.0054
15.6891
16.2997
16.8404
17.3152
17.728
18.0832
18.3848
18.6371
18.8443
19.0102
19.1387
19.2334
19.2978
19.335
19.3483
19.3403
19.3138
19.2711
19.2145
19.1461
19.0677
18.981
18.8876
18.7889
18.686
18.5802
18.4723
18.3633
18.2539
18.1448
18.0365
17.9295
17.8243
17.7212
17.6205
17.5224
17.4271
17.3347
17.2454
17.1593
17.0762
16.9964
16.9197
16.8462
16.7758
16.7084
16.6441
16.5826
16.5239
16.468
16.4147
16.3639
16.3156
16.2696
16.2258
16.1842
16.1446
16.1069
16.0711
16.037
16.0045
15.9736
15.9442
15.9161
15.8894
15.8638
15.8394
15.8161
15.7938
15.7724
15.752
15.7323
15.7134
15.6952
15.6777
15.6608
15.6445
15.6287
15.6134
15.5986
15.5842
15.5702
15.5565
15.5432
15.5302
15.5175
15.5051
15.4929
15.4809
15.4692
15.4576
15.4463
15.4351
15.4241
15.4133
15.4026
15.3921
15.3817
15.3715
15.3614
15.3514
15.3416
15.332
15.3225
15.3131
15.3039
15.2949
15.286
15.2773
15.2689
15.2605
15.2525
15.2446
15.2369
15.2295
15.2223
15.2154
15.2088
15.2025
15.1964
15.1906
15.1852
15.1801
15.1752
15.1708
15.1666
15.1628
15.1593
15.1562
15.1533
15.1508
15.1486
15.1467
15.145
15.1435
15.1423
15.141
15.1394
15.1374
15.1346
1.33587
3.44263
5.18909
6.67832
8.01801
9.2449
10.382
11.4432
12.4285
13.3354
14.1642
14.9167
15.5945
16.2003
16.7371
17.2088
17.6193
17.9725
18.2728
18.5242
18.7307
18.8963
19.0247
19.1195
19.1841
19.2218
19.2356
19.2283
19.2024
19.1604
19.1046
19.037
18.9594
18.8736
18.781
18.6831
18.5811
18.476
18.369
18.2607
18.1521
18.0437
17.9361
17.8299
17.7254
17.6229
17.5228
17.4253
17.3306
17.2388
17.1501
17.0644
16.9819
16.9025
16.8263
16.7532
16.6832
16.6163
16.5523
16.4911
16.4328
16.3772
16.3242
16.2738
16.2257
16.18
16.1365
16.0952
16.0558
16.0184
15.9828
15.9489
15.9166
15.8859
15.8567
15.8288
15.8022
15.7769
15.7526
15.7295
15.7073
15.6861
15.6658
15.6463
15.6275
15.6095
15.5921
15.5753
15.5592
15.5435
15.5283
15.5136
15.4993
15.4854
15.4719
15.4587
15.4458
15.4332
15.4209
15.4088
15.397
15.3854
15.3739
15.3627
15.3516
15.3408
15.33
15.3195
15.309
15.2988
15.2886
15.2787
15.2688
15.2591
15.2496
15.2402
15.2309
15.2218
15.2129
15.2041
15.1956
15.1872
15.179
15.171
15.1632
15.1556
15.1483
15.1412
15.1344
15.1279
15.1216
15.1157
15.11
15.1046
15.0996
15.0949
15.0905
15.0864
15.0827
15.0793
15.0762
15.0734
15.0709
15.0688
15.0669
15.0652
15.0637
15.0624
15.061
15.0593
15.057
15.0541
15.0505
1.29805
3.39121
5.147
6.6433
7.98095
9.20179
10.3297
11.3791
12.3524
13.2485
14.068
14.8123
15.4834
16.0834
16.6157
17.0837
17.4912
17.8422
18.1407
18.3909
18.5966
18.7617
18.8899
18.9847
19.0496
19.0878
19.1021
19.0954
19.0703
19.0292
18.9743
18.9075
18.8309
18.746
18.6544
18.5575
18.4564
18.3523
18.2462
18.1389
18.0311
17.9236
17.8169
17.7115
17.6078
17.5061
17.4068
17.31
17.216
17.1249
17.0367
16.9517
16.8698
16.791
16.7153
16.6427
16.5732
16.5067
16.4432
16.3825
16.3246
16.2694
16.2168
16.1667
16.119
16.0736
16.0305
15.9894
15.9503
15.9132
15.8778
15.8442
15.8122
15.7817
15.7527
15.7251
15.6987
15.6736
15.6495
15.6266
15.6046
15.5836
15.5635
15.5441
15.5255
15.5077
15.4904
15.4738
15.4578
15.4423
15.4273
15.4127
15.3986
15.3848
15.3715
15.3584
15.3457
15.3332
15.321
15.3091
15.2974
15.2859
15.2746
15.2635
15.2525
15.2418
15.2312
15.2207
15.2104
15.2003
15.1903
15.1804
15.1707
15.1612
15.1517
15.1424
15.1333
15.1243
15.1155
15.1069
15.0984
15.0902
15.0821
15.0742
15.0665
15.0591
15.0519
15.0449
15.0382
15.0318
15.0257
15.0198
15.0142
15.009
15.004
14.9994
14.9951
14.9911
14.9875
14.9842
14.9812
14.9785
14.9761
14.974
14.9721
14.9705
14.969
14.9676
14.9661
14.9642
14.9618
14.9588
14.9549
14.9503
1.26032
3.33611
5.09593
6.5973
7.93274
9.14721
10.2656
11.303
12.2638
13.1482
13.9573
14.6927
15.356
15.9497
16.4766
16.9403
17.3444
17.6927
17.9892
18.2378
18.4425
18.6069
18.7348
18.8297
18.8948
18.9334
18.9483
18.9423
18.918
18.8778
18.8239
18.7582
18.6826
18.5988
18.5083
18.4124
18.3125
18.2095
18.1044
17.9982
17.8915
17.785
17.6792
17.5748
17.472
17.3712
17.2727
17.1768
17.0835
16.9932
16.9058
16.8215
16.7402
16.6621
16.5871
16.5151
16.4462
16.3802
16.3172
16.257
16.1996
16.1449
16.0927
16.043
15.9958
15.9508
15.908
15.8672
15.8285
15.7917
15.7567
15.7233
15.6916
15.6614
15.6327
15.6053
15.5792
15.5543
15.5305
15.5078
15.4861
15.4652
15.4453
15.4262
15.4078
15.3901
15.3731
15.3567
15.3408
15.3255
15.3106
15.2963
15.2823
15.2687
15.2555
15.2426
15.23
15.2177
15.2057
15.1939
15.1823
15.171
15.1598
15.1489
15.1381
15.1275
15.1171
15.1068
15.0966
15.0866
15.0768
15.0671
15.0575
15.0481
15.0388
15.0296
15.0206
15.0118
15.0031
14.9946
14.9863
14.9782
14.9702
14.9625
14.955
14.9477
14.9406
14.9338
14.9272
14.9209
14.9149
14.9091
14.9037
14.8986
14.8937
14.8892
14.885
14.8812
14.8776
14.8744
14.8715
14.8689
14.8666
14.8645
14.8627
14.8611
14.8596
14.8581
14.8565
14.8546
14.8521
14.8489
14.8449
14.8401
1.22361
3.27809
5.03692
6.54074
7.87331
9.08092
10.1895
11.2146
12.1624
13.0345
13.8326
14.5581
15.213
15.7995
16.3205
16.7793
17.1794
17.5246
17.8187
18.0656
18.269
18.4326
18.5601
18.6549
18.7202
18.7592
18.7747
18.7695
18.7461
18.7068
18.6539
18.5894
18.515
18.4323
18.343
18.2484
18.1497
18.0479
17.944
17.839
17.7334
17.6281
17.5234
17.42
17.3183
17.2185
17.121
17.026
16.9337
16.8442
16.7577
16.6742
16.5937
16.5163
16.442
16.3707
16.3024
16.2371
16.1747
16.1151
16.0582
16.004
15.9523
15.9032
15.8563
15.8118
15.7694
15.7291
15.6908
15.6543
15.6196
15.5867
15.5553
15.5254
15.497
15.4699
15.4441
15.4194
15.3959
15.3735
15.352
15.3314
15.3117
15.2928
15.2746
15.2572
15.2404
15.2242
15.2085
15.1934
15.1788
15.1646
15.1508
15.1374
15.1244
15.1116
15.0992
15.0871
15.0753
15.0637
15.0523
15.0411
15.0301
15.0193
15.0087
14.9983
14.988
14.9779
14.9679
14.9581
14.9484
14.9388
14.9294
14.9202
14.9111
14.9021
14.8932
14.8846
14.8761
14.8677
14.8596
14.8516
14.8438
14.8362
14.8288
14.8216
14.8147
14.808
14.8016
14.7955
14.7896
14.784
14.7787
14.7737
14.769
14.7646
14.7605
14.7568
14.7534
14.7503
14.7475
14.745
14.7427
14.7408
14.739
14.7374
14.7359
14.7344
14.7327
14.7307
14.7281
14.7248
14.7207
14.7158
14.7101
1.1884
3.2178
4.97095
6.4742
7.80279
9.0029
10.1011
11.1138
12.0482
12.9076
13.6938
14.4089
15.0546
15.6333
16.1478
16.6011
16.9969
17.3386
17.6299
17.8747
18.0767
18.2394
18.3663
18.4609
18.5263
18.5657
18.5818
18.5774
18.5549
18.5167
18.4649
18.4016
18.3284
18.2471
18.1592
18.0659
17.9685
17.868
17.7655
17.6617
17.5575
17.4534
17.35
17.2478
17.1472
17.0485
16.9521
16.8581
16.7668
16.6783
16.5927
16.5101
16.4305
16.354
16.2804
16.2099
16.1424
16.0778
16.016
15.9571
15.9008
15.8472
15.7961
15.7474
15.7011
15.6571
15.6152
15.5753
15.5374
15.5014
15.4671
15.4345
15.4035
15.374
15.3459
15.3192
15.2937
15.2693
15.2461
15.2239
15.2027
15.1825
15.163
15.1444
15.1265
15.1092
15.0927
15.0767
15.0613
15.0464
15.032
15.018
15.0044
14.9913
14.9784
14.9659
14.9537
14.9418
14.9301
14.9187
14.9075
14.8966
14.8858
14.8752
14.8648
14.8545
14.8444
14.8345
14.8247
14.815
14.8055
14.7962
14.7869
14.7779
14.7689
14.7601
14.7515
14.743
14.7346
14.7265
14.7185
14.7107
14.703
14.6956
14.6884
14.6814
14.6747
14.6681
14.6619
14.6559
14.6502
14.6447
14.6396
14.6347
14.6302
14.6259
14.622
14.6184
14.6151
14.6121
14.6094
14.607
14.6049
14.603
14.6013
14.5998
14.5983
14.5967
14.595
14.5929
14.5902
14.5868
14.5827
14.5777
14.5719
14.5652
1.1548
3.15576
4.89885
6.39838
7.72152
8.91327
10.0007
11.0005
11.9214
12.7675
13.5414
14.2453
14.8813
15.4516
15.9589
16.4064
16.7973
17.135
17.4234
17.6658
17.8661
18.0276
18.1539
18.2482
18.3137
18.3534
18.3701
18.3665
18.345
18.3079
18.2574
18.1953
18.1235
18.0436
17.9571
17.8652
17.7693
17.6703
17.5692
17.4669
17.364
17.2613
17.1592
17.0583
16.959
16.8616
16.7663
16.6735
16.5834
16.4959
16.4114
16.3297
16.2511
16.1755
16.1028
16.0331
15.9664
15.9026
15.8416
15.7833
15.7277
15.6748
15.6243
15.5762
15.5305
15.487
15.4456
15.4063
15.3689
15.3333
15.2995
15.2673
15.2367
15.2076
15.1799
15.1535
15.1283
15.1044
15.0815
15.0596
15.0387
15.0187
14.9996
14.9812
14.9636
14.9467
14.9303
14.9146
14.8995
14.8848
14.8706
14.8569
14.8436
14.8306
14.818
14.8058
14.7938
14.7821
14.7707
14.7595
14.7485
14.7377
14.7271
14.7168
14.7065
14.6965
14.6866
14.6769
14.6673
14.6578
14.6485
14.6394
14.6303
14.6215
14.6127
14.6041
14.5957
14.5873
14.5792
14.5712
14.5634
14.5558
14.5484
14.5411
14.5341
14.5273
14.5207
14.5144
14.5083
14.5025
14.4969
14.4917
14.4867
14.482
14.4776
14.4735
14.4697
14.4663
14.4631
14.4603
14.4577
14.4555
14.4534
14.4516
14.45
14.4485
14.447
14.4455
14.4437
14.4415
14.4388
14.4354
14.4312
14.4261
14.4203
14.4135
14.4059
1.12276
3.09237
4.82139
6.31397
7.62992
8.81232
9.88834
10.875
11.7819
12.6144
13.3755
14.0678
14.6934
15.2548
15.7545
16.1955
16.5811
16.9146
17.1996
17.4394
17.6378
17.798
17.9234
18.0174
18.0829
18.1229
18.1402
18.1374
18.1169
18.0809
18.0317
17.971
17.9006
17.8222
17.7372
17.6469
17.5525
17.4551
17.3556
17.2548
17.1534
17.0522
16.9516
16.8521
16.7542
16.6581
16.5642
16.4726
16.3836
16.2974
16.214
16.1334
16.0558
15.9812
15.9095
15.8407
15.7749
15.7119
15.6517
15.5942
15.5394
15.4871
15.4373
15.3899
15.3448
15.3019
15.2611
15.2223
15.1854
15.1504
15.117
15.0853
15.0552
15.0265
14.9992
14.9732
14.9485
14.9249
14.9023
14.8808
14.8603
14.8406
14.8218
14.8037
14.7864
14.7698
14.7537
14.7383
14.7234
14.7091
14.6951
14.6817
14.6686
14.6559
14.6436
14.6315
14.6198
14.6083
14.5971
14.5862
14.5754
14.5649
14.5546
14.5444
14.5344
14.5246
14.5149
14.5054
14.4961
14.4868
14.4777
14.4688
14.46
14.4513
14.4428
14.4344
14.4261
14.4181
14.4101
14.4024
14.3948
14.3873
14.3801
14.3731
14.3662
14.3596
14.3533
14.3471
14.3412
14.3356
14.3302
14.3251
14.3203
14.3158
14.3116
14.3077
14.3041
14.3008
14.2978
14.2951
14.2927
14.2905
14.2886
14.2869
14.2854
14.2839
14.2825
14.2809
14.2792
14.277
14.2742
14.2707
14.2665
14.2615
14.2556
14.2488
14.2412
1.09211
3.0279
4.73919
6.22168
7.52851
8.70039
9.76426
10.7373
11.63
12.4485
13.1964
13.8765
14.4913
15.0432
15.5348
15.969
16.3489
16.6778
16.959
17.196
17.3922
17.5509
17.6754
17.7689
17.8343
17.8746
17.8925
17.8905
17.871
17.8363
17.7883
17.7291
17.6602
17.5834
17.5
17.4114
17.3187
17.2229
17.125
17.0259
16.9262
16.8265
16.7275
16.6295
16.5331
16.4384
16.3459
16.2557
16.1681
16.0831
16.0009
15.9215
15.845
15.7715
15.7008
15.6331
15.5682
15.5061
15.4468
15.3902
15.3362
15.2847
15.2356
15.1889
15.1445
15.1022
15.062
15.0238
14.9875
14.953
14.9202
14.889
14.8593
14.8311
14.8043
14.7787
14.7544
14.7312
14.7091
14.6879
14.6678
14.6485
14.63
14.6123
14.5953
14.5789
14.5632
14.5481
14.5335
14.5194
14.5058
14.4926
14.4798
14.4674
14.4553
14.4436
14.4321
14.4209
14.41
14.3993
14.3888
14.3785
14.3684
14.3585
14.3488
14.3392
14.3298
14.3205
14.3113
14.3024
14.2935
14.2848
14.2762
14.2678
14.2595
14.2513
14.2433
14.2354
14.2277
14.2202
14.2128
14.2056
14.1986
14.1918
14.1852
14.1788
14.1726
14.1667
14.161
14.1556
14.1504
14.1455
14.1409
14.1366
14.1325
14.1288
14.1254
14.1223
14.1194
14.1169
14.1146
14.1126
14.1108
14.1092
14.1078
14.1064
14.105
14.1035
14.1017
14.0995
14.0967
14.0933
14.0891
14.084
14.0781
14.0714
14.0637
14.0553
1.06265
2.96253
4.65276
6.12213
7.4178
8.5779
9.62879
10.5878
11.4659
12.27
13.0042
13.6719
14.2754
14.8174
15.3004
15.7274
16.1012
16.4251
16.7023
16.9362
17.13
17.287
17.4104
17.5033
17.5686
17.6091
17.6275
17.6263
17.6079
17.5744
17.5278
17.47
17.4028
17.3276
17.246
17.1591
17.0681
16.9741
16.878
16.7806
16.6827
16.5847
16.4873
16.391
16.2962
16.2031
16.1121
16.0233
15.9371
15.8534
15.7725
15.6944
15.6192
15.5468
15.4772
15.4106
15.3467
15.2856
15.2273
15.1715
15.1184
15.0677
15.0195
14.9735
14.9298
14.8883
14.8488
14.8112
14.7755
14.7416
14.7093
14.6787
14.6495
14.6218
14.5955
14.5704
14.5465
14.5237
14.502
14.4813
14.4615
14.4426
14.4245
14.4072
14.3905
14.3745
14.3592
14.3444
14.3301
14.3163
14.303
14.2901
14.2777
14.2655
14.2537
14.2423
14.2311
14.2202
14.2095
14.1991
14.1888
14.1788
14.169
14.1593
14.1499
14.1406
14.1314
14.1224
14.1135
14.1048
14.0962
14.0877
14.0794
14.0712
14.0631
14.0552
14.0474
14.0398
14.0324
14.0251
14.0179
14.011
14.0042
13.9976
13.9912
13.985
13.9791
13.9734
13.9679
13.9627
13.9578
13.9531
13.9487
13.9446
13.9407
13.9372
13.934
13.931
13.9284
13.926
13.9239
13.922
13.9204
13.9189
13.9176
13.9163
13.9149
13.9135
13.9117
13.9095
13.9068
13.9033
13.8991
13.8941
13.8882
13.8815
13.874
13.8655
13.8562
1.03414
2.89636
4.56254
6.0159
7.29833
8.44528
9.4823
10.4267
11.2898
12.0792
12.7994
13.4541
14.046
14.5776
15.0517
15.471
15.8384
16.157
16.4299
16.6604
16.8516
17.0068
17.1289
17.2211
17.2862
17.3268
17.3458
17.3454
17.328
17.2957
17.2506
17.1944
17.1288
17.0554
16.9755
16.8904
16.8013
16.7092
16.615
16.5194
16.4233
16.3271
16.2316
16.137
16.0438
15.9524
15.8629
15.7758
15.691
15.6088
15.5293
15.4526
15.3786
15.3074
15.2391
15.1736
15.1108
15.0508
14.9934
14.9387
14.8865
14.8367
14.7893
14.7442
14.7013
14.6604
14.6216
14.5848
14.5497
14.5164
14.4848
14.4547
14.4262
14.399
14.3732
14.3486
14.3252
14.3029
14.2816
14.2613
14.242
14.2235
14.2057
14.1888
14.1725
14.1569
14.1419
14.1275
14.1135
14.1001
14.0871
14.0746
14.0624
14.0506
14.0391
14.0279
14.017
14.0064
13.996
13.9859
13.976
13.9662
13.9567
13.9473
13.9381
13.9291
13.9202
13.9115
13.9029
13.8944
13.8861
13.8779
13.8698
13.8619
13.8541
13.8464
13.8389
13.8316
13.8244
13.8173
13.8104
13.8037
13.7972
13.7909
13.7847
13.7788
13.7731
13.7676
13.7624
13.7574
13.7527
13.7482
13.744
13.7401
13.7365
13.7332
13.7301
13.7274
13.7249
13.7227
13.7208
13.7191
13.7176
13.7163
13.7151
13.7139
13.7126
13.7112
13.7095
13.7073
13.7046
13.7012
13.6971
13.6921
13.6863
13.6796
13.6721
13.6637
13.6545
1.00639
2.82941
4.46885
5.9035
7.17062
8.30299
9.32519
10.2543
11.1021
11.8763
12.5822
13.2236
13.8034
14.3244
14.7891
15.2003
15.5609
15.8739
16.1423
16.3691
16.5576
16.7107
16.8314
16.9228
16.9875
17.0283
17.0477
17.0482
17.0318
17.0008
16.9571
16.9025
16.8386
16.767
16.689
16.6059
16.5187
16.4286
16.3363
16.2427
16.1485
16.0543
15.9605
15.8678
15.7764
15.6867
15.599
15.5135
15.4303
15.3496
15.2716
15.1963
15.1237
15.0539
14.9868
14.9225
14.8609
14.802
14.7457
14.692
14.6408
14.5919
14.5454
14.5012
14.4591
14.4191
14.381
14.3449
14.3106
14.2779
14.247
14.2175
14.1895
14.1629
14.1377
14.1136
14.0907
14.0689
14.0481
14.0283
14.0094
13.9913
13.974
13.9575
13.9416
13.9264
13.9118
13.8977
13.8842
13.8711
13.8585
13.8462
13.8344
13.8229
13.8118
13.8009
13.7904
13.7801
13.77
13.7602
13.7505
13.7411
13.7319
13.7228
13.7139
13.7052
13.6966
13.6881
13.6798
13.6716
13.6636
13.6557
13.6479
13.6402
13.6327
13.6253
13.6181
13.611
13.6041
13.5973
13.5907
13.5842
13.578
13.5719
13.566
13.5603
13.5549
13.5497
13.5447
13.54
13.5355
13.5312
13.5273
13.5236
13.5202
13.5171
13.5143
13.5117
13.5095
13.5075
13.5057
13.5042
13.5029
13.5017
13.5006
13.4995
13.4983
13.497
13.4953
13.4932
13.4906
13.4873
13.4832
13.4783
13.4726
13.466
13.4586
13.4503
13.4412
13.4313
0.979198
2.76171
4.37198
5.78541
7.03517
8.15149
9.15785
10.0711
10.903
11.6617
12.353
12.9807
13.5481
14.058
14.513
14.9159
15.2694
15.5764
15.8399
16.0629
16.2483
16.3992
16.5185
16.6089
16.6732
16.7141
16.7339
16.7351
16.7198
16.6901
16.6479
16.5949
16.5328
16.4631
16.387
16.3059
16.2208
16.1327
16.0424
15.9509
15.8587
15.7665
15.6747
15.5839
15.4944
15.4065
15.3206
15.2368
15.1553
15.0763
14.9998
14.926
14.8549
14.7864
14.7207
14.6577
14.5973
14.5396
14.4845
14.4318
14.3817
14.3338
14.2883
14.245
14.2038
14.1646
14.1274
14.092
14.0584
14.0265
13.9962
13.9674
13.94
13.9141
13.8894
13.8659
13.8435
13.8222
13.802
13.7827
13.7642
13.7466
13.7298
13.7137
13.6982
13.6834
13.6692
13.6555
13.6423
13.6296
13.6174
13.6055
13.5941
13.5829
13.5721
13.5616
13.5514
13.5414
13.5317
13.5222
13.5129
13.5038
13.4948
13.4861
13.4775
13.4691
13.4608
13.4526
13.4446
13.4367
13.429
13.4214
13.4139
13.4066
13.3993
13.3923
13.3853
13.3785
13.3719
13.3654
13.359
13.3529
13.3469
13.3411
13.3355
13.3301
13.3249
13.3199
13.3152
13.3107
13.3065
13.3025
13.2988
13.2954
13.2922
13.2893
13.2867
13.2844
13.2823
13.2805
13.279
13.2776
13.2765
13.2754
13.2745
13.2735
13.2725
13.2712
13.2696
13.2676
13.2651
13.2618
13.2578
13.253
13.2474
13.241
13.2337
13.2255
13.2165
13.2067
13.1961
0.952397
2.69322
4.27214
5.66201
6.89244
7.99124
8.98072
9.87729
10.6928
11.4357
12.1119
12.7257
13.2803
13.7788
14.2238
14.618
14.9641
15.2649
15.5233
15.7422
15.9244
16.0729
16.1905
16.2799
16.3437
16.3845
16.4048
16.4067
16.3925
16.3641
16.3234
16.2721
16.2118
16.144
16.0699
15.9909
15.9078
15.8219
15.7338
15.6444
15.5543
15.4642
15.3745
15.2857
15.1982
15.1122
15.0282
14.9462
14.8665
14.7891
14.7143
14.6421
14.5725
14.5055
14.4412
14.3796
14.3205
14.264
14.2101
14.1586
14.1095
14.0628
14.0182
13.9759
13.9356
13.8973
13.8609
13.8264
13.7936
13.7624
13.7328
13.7047
13.678
13.6527
13.6286
13.6057
13.584
13.5632
13.5435
13.5247
13.5068
13.4896
13.4733
13.4576
13.4426
13.4283
13.4145
13.4012
13.3884
13.3761
13.3643
13.3528
13.3417
13.3309
13.3205
13.3104
13.3005
13.2909
13.2815
13.2723
13.2633
13.2546
13.246
13.2376
13.2293
13.2212
13.2132
13.2054
13.1977
13.1901
13.1827
13.1754
13.1682
13.1612
13.1543
13.1475
13.1409
13.1344
13.128
13.1218
13.1158
13.1099
13.1042
13.0987
13.0934
13.0883
13.0834
13.0787
13.0742
13.07
13.066
13.0623
13.0589
13.0557
13.0528
13.0501
13.0478
13.0457
13.0438
13.0422
13.0409
13.0397
13.0387
13.0379
13.0371
13.0362
13.0353
13.0342
13.0327
13.0308
13.0283
13.0252
13.0213
13.0167
13.0112
13.0049
12.9977
12.9897
12.9809
12.9712
12.9607
12.9495
0.925846
2.62391
4.16952
5.53366
6.74287
7.82269
8.79422
9.67339
10.472
11.1987
11.8595
12.4589
13.0005
13.4873
13.9219
14.3071
14.6455
14.9398
15.1929
15.4074
15.5863
15.7322
15.848
15.9362
15.9995
16.0402
16.0608
16.0634
16.0503
16.0232
15.984
15.9344
15.876
15.8101
15.7382
15.6613
15.5804
15.4967
15.4108
15.3236
15.2358
15.1478
15.0603
14.9736
14.8881
14.8042
14.7221
14.642
14.5641
14.4886
14.4155
14.3449
14.2769
14.2115
14.1487
14.0885
14.0308
13.9756
13.923
13.8727
13.8247
13.7791
13.7356
13.6943
13.655
13.6176
13.5822
13.5485
13.5165
13.4861
13.4573
13.4299
13.4039
13.3793
13.3558
13.3336
13.3124
13.2922
13.2731
13.2548
13.2374
13.2208
13.2049
13.1897
13.1752
13.1613
13.148
13.1351
13.1228
13.1109
13.0995
13.0884
13.0777
13.0673
13.0572
13.0475
13.038
13.0287
13.0197
13.0109
13.0023
12.9939
12.9856
12.9776
12.9696
12.9619
12.9542
12.9467
12.9394
12.9322
12.9251
12.9181
12.9112
12.9045
12.8979
12.8915
12.8852
12.879
12.8729
12.8671
12.8613
12.8558
12.8504
12.8452
12.8401
12.8353
12.8307
12.8263
12.8221
12.8182
12.8145
12.8111
12.8079
12.8049
12.8023
12.7999
12.7978
12.7959
12.7943
12.7929
12.7918
12.7908
12.79
12.7893
12.7887
12.788
12.7872
12.7862
12.7849
12.7831
12.7808
12.7778
12.774
12.7695
12.7642
12.758
12.751
12.7432
12.7345
12.7251
12.7148
12.7038
0.899425
2.55375
4.06426
5.40067
6.58685
7.64626
8.59877
9.45977
10.2409
10.9509
11.5959
12.1808
12.709
13.1838
13.6078
13.9837
14.3141
14.6017
14.8492
15.0592
15.2345
15.3777
15.4915
15.5784
15.641
15.6816
15.7025
15.7058
15.6936
15.6679
15.6302
15.5824
15.5259
15.4621
15.3922
15.3175
15.239
15.1575
15.0739
14.9891
14.9035
14.8178
14.7325
14.648
14.5647
14.4829
14.4028
14.3247
14.2487
14.1751
14.1038
14.035
13.9686
13.9048
13.8436
13.7848
13.7286
13.6748
13.6234
13.5744
13.5277
13.4832
13.4409
13.4006
13.3623
13.3259
13.2914
13.2586
13.2275
13.1979
13.1699
13.1433
13.118
13.0941
13.0713
13.0497
13.0291
13.0096
12.991
12.9733
12.9565
12.9404
12.9251
12.9104
12.8964
12.8829
12.87
12.8577
12.8458
12.8343
12.8233
12.8126
12.8024
12.7924
12.7827
12.7734
12.7642
12.7554
12.7467
12.7383
12.7301
12.722
12.7141
12.7064
12.6989
12.6914
12.6842
12.677
12.67
12.6631
12.6564
12.6498
12.6432
12.6369
12.6306
12.6245
12.6185
12.6126
12.6069
12.6014
12.596
12.5907
12.5856
12.5807
12.576
12.5715
12.5672
12.5631
12.5592
12.5556
12.5522
12.549
12.5461
12.5434
12.5411
12.5389
12.537
12.5354
12.5341
12.5329
12.532
12.5313
12.5307
12.5302
12.5297
12.5292
12.5286
12.5277
12.5265
12.5249
12.5227
12.5198
12.5162
12.5119
12.5068
12.5008
12.494
12.4863
12.4779
12.4686
12.4586
12.4478
12.4364
0.873036
2.48269
3.95647
5.26332
6.42477
7.46235
8.39477
9.2368
9.9999
10.6927
11.3217
11.8916
12.4062
12.8686
13.2817
13.6481
13.9703
14.2509
14.4925
14.6978
14.8693
15.0097
15.1214
15.2069
15.2687
15.3091
15.3303
15.3343
15.3231
15.2986
15.2626
15.2165
15.162
15.1002
15.0326
14.9601
14.8839
14.8048
14.7236
14.6411
14.5579
14.4745
14.3915
14.3093
14.2282
14.1486
14.0707
13.9946
13.9207
13.849
13.7795
13.7125
13.6479
13.5858
13.5262
13.469
13.4142
13.3619
13.3119
13.2642
13.2188
13.1755
13.1343
13.0951
13.0579
13.0226
12.989
12.9571
12.9269
12.8982
12.871
12.8452
12.8207
12.7975
12.7754
12.7545
12.7346
12.7157
12.6978
12.6807
12.6644
12.6489
12.634
12.6199
12.6064
12.5934
12.581
12.5692
12.5577
12.5467
12.5362
12.5259
12.5161
12.5065
12.4973
12.4883
12.4796
12.4711
12.4629
12.4549
12.447
12.4393
12.4318
12.4245
12.4173
12.4103
12.4034
12.3966
12.3899
12.3834
12.377
12.3707
12.3646
12.3586
12.3527
12.3469
12.3412
12.3357
12.3303
12.3251
12.3201
12.3151
12.3104
12.3058
12.3014
12.2972
12.2932
12.2894
12.2859
12.2825
12.2794
12.2765
12.2739
12.2715
12.2694
12.2676
12.266
12.2646
12.2635
12.2626
12.2619
12.2614
12.261
12.2607
12.2604
12.2601
12.2596
12.2589
12.2579
12.2564
12.2544
12.2517
12.2483
12.2442
12.2392
12.2334
12.2268
12.2194
12.2112
12.2022
12.1924
12.1819
12.1707
12.1588
0.846601
2.41071
3.84628
5.12186
6.25696
7.27137
8.18263
9.0049
9.74935
10.4246
11.0371
11.5917
12.0924
12.5423
12.9442
13.3007
13.6145
13.8879
14.1235
14.3239
14.4914
14.6287
14.7382
14.8223
14.8832
14.9233
14.9446
14.9493
14.9391
14.916
14.8815
14.8372
14.7846
14.725
14.6596
14.5895
14.5156
14.4389
14.3602
14.2801
14.1994
14.1185
14.0379
13.958
13.8792
13.8018
13.7261
13.6522
13.5804
13.5106
13.4432
13.378
13.3153
13.2549
13.1969
13.1414
13.0882
13.0373
12.9888
12.9424
12.8983
12.8563
12.8163
12.7783
12.7422
12.7079
12.6754
12.6445
12.6152
12.5874
12.5611
12.5361
12.5124
12.4899
12.4686
12.4484
12.4292
12.4109
12.3936
12.3771
12.3614
12.3465
12.3323
12.3187
12.3057
12.2933
12.2814
12.27
12.259
12.2485
12.2384
12.2286
12.2192
12.2101
12.2013
12.1927
12.1845
12.1764
12.1686
12.1609
12.1535
12.1462
12.1391
12.1321
12.1253
12.1187
12.1122
12.1058
12.0995
12.0933
12.0873
12.0814
12.0756
12.07
12.0644
12.059
12.0537
12.0485
12.0435
12.0387
12.0339
12.0294
12.0249
12.0207
12.0166
12.0128
12.0091
12.0056
12.0024
11.9994
11.9966
11.994
11.9917
11.9896
11.9877
11.9862
11.9848
11.9837
11.9829
11.9822
11.9818
11.9815
11.9813
11.9812
11.9812
11.981
11.9808
11.9803
11.9794
11.9781
11.9762
11.9737
11.9705
11.9666
11.9619
11.9563
11.95
11.9428
11.9348
11.9261
11.9166
11.9064
11.8954
11.8839
0.820056
2.33778
3.73376
4.97651
6.08375
7.07369
7.96275
8.76445
9.48965
10.1468
10.7425
11.2816
11.768
12.2051
12.5955
12.9421
13.2471
13.5131
13.7425
13.9377
14.1012
14.2353
14.3424
14.4249
14.4849
14.5246
14.5461
14.5513
14.5421
14.5203
14.4874
14.4449
14.3943
14.3369
14.2738
14.206
14.1346
14.0604
13.9842
13.9066
13.8284
13.75
13.6719
13.5944
13.5181
13.443
13.3695
13.2979
13.2282
13.1605
13.0951
13.0319
12.971
12.9125
12.8562
12.8024
12.7508
12.7015
12.6544
12.6095
12.5667
12.526
12.4873
12.4505
12.4155
12.3823
12.3508
12.321
12.2926
12.2658
12.2403
12.2162
12.1934
12.1717
12.1512
12.1317
12.1132
12.0956
12.079
12.0631
12.048
12.0337
12.02
12.007
11.9946
11.9827
11.9713
11.9604
11.95
11.94
11.9303
11.921
11.9121
11.9034
11.8951
11.887
11.8791
11.8715
11.8641
11.8569
11.8498
11.843
11.8363
11.8297
11.8233
11.817
11.8109
11.8049
11.799
11.7933
11.7876
11.7821
11.7767
11.7714
11.7662
11.7612
11.7563
11.7515
11.7468
11.7423
11.7379
11.7337
11.7297
11.7258
11.7221
11.7185
11.7152
11.7121
11.7091
11.7064
11.7039
11.7017
11.6997
11.6979
11.6963
11.695
11.694
11.6932
11.6926
11.6922
11.692
11.6919
11.692
11.6921
11.6923
11.6924
11.6923
11.692
11.6913
11.6902
11.6886
11.6863
11.6833
11.6796
11.6751
11.6698
11.6637
11.6568
11.6491
11.6406
11.6314
11.6215
11.6109
11.5997
11.5879
0.793354
2.26388
3.61902
4.82748
5.90543
6.86965
7.73549
8.51583
9.22116
9.85983
10.4383
10.9615
11.4334
11.8574
12.2362
12.5725
12.8686
13.1269
13.3499
13.5398
13.6991
13.8299
13.9345
14.0152
14.0742
14.1135
14.1351
14.1409
14.1326
14.1121
14.0807
14.0401
13.9916
13.9363
13.8755
13.8102
13.7413
13.6696
13.596
13.5211
13.4454
13.3696
13.294
13.219
13.1451
13.0725
13.0014
12.932
12.8645
12.799
12.7357
12.6745
12.6156
12.5589
12.5045
12.4523
12.4024
12.3547
12.3092
12.2657
12.2244
12.185
12.1476
12.112
12.0783
12.0462
12.0158
11.987
11.9597