/*--------------------------------*- C++ -*----------------------------------*\
| =========                 |                                                 |
| \\      /  F ield         | OpenFOAM: The Open Source CFD Toolbox           |
|  \\    /   O peration     | Version:  2512                                  |
|   \\  /    A nd           | Website:  www.openfoam.com                      |
|    \\/     M anipulation  |                                                 |
\*---------------------------------------------------------------------------*/
FoamFile
{
    version     2.0;
    format      ascii;
    arch        "LSB;label=32;scalar=64";
    class       surfaceScalarField;
    location    "0.1";
    object      phi;
}
// * * * * * * * * * * * * * * * * * * * * * * * * * * * * * * * * * * * * * //

dimensions      [1 0 -1 0 0 0 0];

oriented        oriented;

internalField   nonuniform List<scalar> 
16431
(
0.00191983
0.00056848
0.00140827
0.000511819
0.00104437
0.000363817
0.000862437
0.000181488
0.000788813
7.30935e-05
0.000762194
2.60991e-05
0.000756365
5.32744e-06
0.000756687
-8.12227e-07
0.000756677
-4.78408e-07
0.000755964
2.24301e-07
0.000755414
6.17262e-08
0.000755179
-2.52521e-07
0.000755131
-4.40389e-07
0.000755235
-5.91676e-07
0.000755486
-7.38386e-07
0.000755863
-8.64495e-07
0.000756343
-9.67323e-07
0.000756909
-1.05258e-06
0.000757542
-1.12046e-06
0.00075823
-1.17599e-06
0.000758963
-1.21926e-06
0.000759736
-1.26048e-06
0.000760541
-1.29196e-06
0.000761372
-1.31832e-06
0.000762224
-1.33994e-06
0.000763095
-1.35768e-06
0.00076398
-1.37234e-06
0.000764877
-1.38451e-06
0.000765784
-1.39454e-06
0.0007667
-1.40285e-06
0.000767622
-1.40973e-06
0.00076855
-1.41542e-06
0.000769483
-1.42012e-06
0.00077042
-1.424e-06
0.00077136
-1.4272e-06
0.000772302
-1.42983e-06
0.000773246
-1.43199e-06
0.000774193
-1.43375e-06
0.00077514
-1.4352e-06
0.000776089
-1.43637e-06
0.000777039
-1.43732e-06
0.000777989
-1.43808e-06
0.00077894
-1.43868e-06
0.000779891
-1.43916e-06
0.000780843
-1.43952e-06
0.000781795
-1.4398e-06
0.000782747
-1.43999e-06
0.000783699
-1.44012e-06
0.000784651
-1.4402e-06
0.000785603
-1.44023e-06
0.000786556
-1.44022e-06
0.000787508
-1.44018e-06
0.000788459
-1.44011e-06
0.000789411
-1.44001e-06
0.000790363
-1.43989e-06
0.000791314
-1.43976e-06
0.000792265
-1.4396e-06
0.000793216
-1.43943e-06
0.000794167
-1.43925e-06
0.000795117
-1.43906e-06
0.000796067
-1.43885e-06
0.000797017
-1.43864e-06
0.000797967
-1.43842e-06
0.000798916
-1.43819e-06
0.000799865
-1.43795e-06
0.000800814
-1.4377e-06
0.000801762
-1.43745e-06
0.00080271
-1.43719e-06
0.000803658
-1.43692e-06
0.000804605
-1.43665e-06
0.000805552
-1.43637e-06
0.000806499
-1.43609e-06
0.000807445
-1.4358e-06
0.000808391
-1.4355e-06
0.000809336
-1.4352e-06
0.000810281
-1.4349e-06
0.000811226
-1.43459e-06
0.00081217
-1.43428e-06
0.000813114
-1.43395e-06
0.000814058
-1.43363e-06
0.000815001
-1.4333e-06
0.000815944
-1.43296e-06
0.000816886
-1.43262e-06
0.000817828
-1.43228e-06
0.000818769
-1.43193e-06
0.00081971
-1.43158e-06
0.000820651
-1.43122e-06
0.000821591
-1.43085e-06
0.00082253
-1.43049e-06
0.00082347
-1.43012e-06
0.000824408
-1.42974e-06
0.000825346
-1.42936e-06
0.000826284
-1.42897e-06
0.000827221
-1.42858e-06
0.000828158
-1.42818e-06
0.000829094
-1.42778e-06
0.00083003
-1.42737e-06
0.000830965
-1.42696e-06
0.0008319
-1.42655e-06
0.000832834
-1.42612e-06
0.000833768
-1.4257e-06
0.000834701
-1.42527e-06
0.000835633
-1.42483e-06
0.000836565
-1.42439e-06
0.000837497
-1.42394e-06
0.000838428
-1.42349e-06
0.000839358
-1.42303e-06
0.000840288
-1.42257e-06
0.000841217
-1.4221e-06
0.000842145
-1.42162e-06
0.000843073
-1.42114e-06
0.000844001
-1.42065e-06
0.000844928
-1.42016e-06
0.000845854
-1.41965e-06
0.000846779
-1.41915e-06
0.000847704
-1.41863e-06
0.000848628
-1.4181e-06
0.000849552
-1.41757e-06
0.000850475
-1.41703e-06
0.000851397
-1.41648e-06
0.000852319
-1.41592e-06
0.000853239
-1.41535e-06
0.00085416
-1.41478e-06
0.000855079
-1.41418e-06
0.000855998
-1.41358e-06
0.000856916
-1.41296e-06
0.000857833
-1.41233e-06
0.000858749
-1.41168e-06
0.000859665
-1.41101e-06
0.00086058
-1.41031e-06
0.000861493
-1.4096e-06
0.000862406
-1.40884e-06
0.000863319
-1.40806e-06
0.00086423
-1.40723e-06
0.00086514
-1.40635e-06
0.000866049
-1.40539e-06
0.000866957
-1.40437e-06
0.000867863
-1.40321e-06
0.000868768
-1.40196e-06
0.000869672
-1.40048e-06
0.000870574
-1.39871e-06
0.000871473
-1.39704e-06
0.000872369
-1.39324e-06
0.000873265
-1.39352e-06
0.000874148
-1.38025e-06
0.000875043
-1.39308e-06
0.000875888
-1.34294e-06
0.000876771
-1.38129e-06
-1.1101e-06
0.00254284
0.000514779
0.0024216
0.000633981
0.00222008
0.000566153
0.00204941
0.000352789
0.00194457
0.000178526
0.00188665
8.46584e-05
0.00185766
3.50121e-05
0.00184359
1.39739e-05
0.00183532
8.53292e-06
0.00182944
6.8534e-06
0.00182519
5.06133e-06
0.00182212
3.55889e-06
0.00181988
2.54507e-06
0.00181826
1.78208e-06
0.00181711
1.15597e-06
0.00181634
6.5138e-07
0.00181588
2.46808e-07
0.00181565
-8.14942e-08
0.00181561
-3.2967e-07
0.00181572
-5.38047e-07
0.00181595
-7.04269e-07
0.00181629
-8.49194e-07
0.00181671
-9.65243e-07
0.0018172
-1.06057e-06
0.00181775
-1.13886e-06
0.00181834
-1.20315e-06
0.00181897
-1.25637e-06
0.00181963
-1.30051e-06
0.00182032
-1.337e-06
0.00182103
-1.36726e-06
0.00182176
-1.39239e-06
0.0018225
-1.41324e-06
0.00182326
-1.43057e-06
0.00182403
-1.44498e-06
0.0018248
-1.45696e-06
0.00182558
-1.46693e-06
0.00182637
-1.47523e-06
0.00182716
-1.48214e-06
0.00182796
-1.4879e-06
0.00182876
-1.4927e-06
0.00182956
-1.4967e-06
0.00183036
-1.50004e-06
0.00183117
-1.50283e-06
0.00183198
-1.50516e-06
0.00183279
-1.5071e-06
0.0018336
-1.50873e-06
0.00183441
-1.5101e-06
0.00183522
-1.51124e-06
0.00183603
-1.5122e-06
0.00183684
-1.51301e-06
0.00183765
-1.51368e-06
0.00183847
-1.51425e-06
0.00183928
-1.51472e-06
0.00184009
-1.51512e-06
0.0018409
-1.51546e-06
0.00184172
-1.51574e-06
0.00184253
-1.51597e-06
0.00184334
-1.51617e-06
0.00184415
-1.51633e-06
0.00184496
-1.51647e-06
0.00184578
-1.51658e-06
0.00184659
-1.51667e-06
0.0018474
-1.51675e-06
0.00184821
-1.51681e-06
0.00184902
-1.51686e-06
0.00184983
-1.51689e-06
0.00185064
-1.51692e-06
0.00185145
-1.51693e-06
0.00185226
-1.51694e-06
0.00185307
-1.51694e-06
0.00185388
-1.51694e-06
0.00185469
-1.51693e-06
0.00185549
-1.51692e-06
0.0018563
-1.5169e-06
0.00185711
-1.51688e-06
0.00185792
-1.51685e-06
0.00185872
-1.51682e-06
0.00185953
-1.51679e-06
0.00186033
-1.51675e-06
0.00186114
-1.51671e-06
0.00186194
-1.51667e-06
0.00186275
-1.51663e-06
0.00186355
-1.51658e-06
0.00186436
-1.51653e-06
0.00186516
-1.51648e-06
0.00186596
-1.51642e-06
0.00186676
-1.51637e-06
0.00186757
-1.51631e-06
0.00186837
-1.51626e-06
0.00186917
-1.5162e-06
0.00186997
-1.51613e-06
0.00187077
-1.51607e-06
0.00187157
-1.516e-06
0.00187237
-1.51593e-06
0.00187317
-1.51586e-06
0.00187396
-1.51579e-06
0.00187476
-1.51571e-06
0.00187556
-1.51564e-06
0.00187636
-1.51556e-06
0.00187715
-1.51547e-06
0.00187795
-1.51539e-06
0.00187874
-1.51531e-06
0.00187954
-1.51522e-06
0.00188033
-1.51513e-06
0.00188112
-1.51503e-06
0.00188192
-1.51493e-06
0.00188271
-1.51483e-06
0.0018835
-1.51472e-06
0.00188429
-1.51461e-06
0.00188508
-1.5145e-06
0.00188587
-1.51438e-06
0.00188666
-1.51426e-06
0.00188745
-1.51413e-06
0.00188824
-1.514e-06
0.00188903
-1.51386e-06
0.00188981
-1.51372e-06
0.0018906
-1.51356e-06
0.00189138
-1.5134e-06
0.00189217
-1.51323e-06
0.00189295
-1.51306e-06
0.00189374
-1.51287e-06
0.00189452
-1.51267e-06
0.0018953
-1.51246e-06
0.00189608
-1.51224e-06
0.00189686
-1.512e-06
0.00189764
-1.51175e-06
0.00189842
-1.51147e-06
0.0018992
-1.51117e-06
0.00189998
-1.51084e-06
0.00190076
-1.51049e-06
0.00190153
-1.51009e-06
0.00190231
-1.50965e-06
0.00190308
-1.50915e-06
0.00190386
-1.50859e-06
0.00190463
-1.50795e-06
0.0019054
-1.50719e-06
0.00190617
-1.50632e-06
0.00190694
-1.50524e-06
0.00190771
-1.504e-06
0.00190848
-1.50238e-06
0.00190924
-1.50047e-06
0.00191001
-1.49801e-06
0.00191077
-1.49447e-06
0.00191153
-1.49142e-06
0.00191229
-1.48029e-06
0.00191304
-1.48727e-06
0.00191378
-1.42597e-06
0.00191454
-1.48872e-06
0.00191522
-1.21014e-06
-9.73674e-07
0.00261141
0.000392127
0.00267234
0.000573572
0.00265084
0.000588145
0.00257798
0.000426073
0.00250413
0.000252804
0.00244528
0.000143942
0.00240368
7.70595e-05
0.0023768
4.1323e-05
0.00235975
2.60596e-05
0.00234848
1.85899e-05
0.0023407
1.33219e-05
0.00233514
9.5918e-06
0.00233108
7.08342e-06
0.00232806
5.27472e-06
0.00232581
3.88343e-06
0.00232413
2.7997e-06
0.0023229
1.95021e-06
0.00232202
1.28069e-06
0.00232141
7.48438e-07
0.00232103
3.1791e-07
0.00232082
-1.31565e-08
0.00232076
-3.15505e-07
0.00232081
-5.46649e-07
0.00232096
-7.36909e-07
0.00232119
-8.9347e-07
0.00232149
-1.02245e-06
0.00232183
-1.12888e-06
0.00232222
-1.21702e-06
0.00232265
-1.28989e-06
0.00232311
-1.35036e-06
0.00232359
-1.40056e-06
0.00232409
-1.44223e-06
0.00232461
-1.47688e-06
0.00232514
-1.5057e-06
0.00232569
-1.52965e-06
0.00232624
-1.5496e-06
0.00232681
-1.56621e-06
0.00232738
-1.58004e-06
0.00232795
-1.59158e-06
0.00232853
-1.60119e-06
0.00232912
-1.60921e-06
0.0023297
-1.61592e-06
0.00233029
-1.62151e-06
0.00233089
-1.62619e-06
0.00233148
-1.6301e-06
0.00233207
-1.63337e-06
0.00233267
-1.63612e-06
0.00233327
-1.63842e-06
0.00233387
-1.64035e-06
0.00233446
-1.64197e-06
0.00233506
-1.64333e-06
0.00233566
-1.64448e-06
0.00233626
-1.64544e-06
0.00233686
-1.64625e-06
0.00233746
-1.64693e-06
0.00233806
-1.64751e-06
0.00233866
-1.64799e-06
0.00233926
-1.6484e-06
0.00233986
-1.64875e-06
0.00234046
-1.64904e-06
0.00234106
-1.64928e-06
0.00234166
-1.64948e-06
0.00234225
-1.64965e-06
0.00234285
-1.6498e-06
0.00234345
-1.64991e-06
0.00234405
-1.65e-06
0.00234465
-1.65008e-06
0.00234524
-1.65014e-06
0.00234584
-1.65019e-06
0.00234644
-1.65022e-06
0.00234703
-1.65024e-06
0.00234763
-1.65025e-06
0.00234823
-1.65025e-06
0.00234882
-1.65025e-06
0.00234942
-1.65024e-06
0.00235001
-1.65022e-06
0.0023506
-1.6502e-06
0.0023512
-1.65018e-06
0.00235179
-1.65014e-06
0.00235238
-1.65011e-06
0.00235298
-1.65007e-06
0.00235357
-1.65002e-06
0.00235416
-1.64997e-06
0.00235475
-1.64992e-06
0.00235534
-1.64986e-06
0.00235593
-1.6498e-06
0.00235652
-1.64974e-06
0.00235711
-1.64968e-06
0.0023577
-1.64961e-06
0.00235829
-1.64954e-06
0.00235888
-1.64947e-06
0.00235947
-1.6494e-06
0.00236005
-1.64932e-06
0.00236064
-1.64924e-06
0.00236123
-1.64916e-06
0.00236181
-1.64907e-06
0.0023624
-1.64898e-06
0.00236298
-1.64889e-06
0.00236357
-1.64879e-06
0.00236415
-1.64869e-06
0.00236473
-1.6486e-06
0.00236531
-1.6485e-06
0.0023659
-1.64839e-06
0.00236648
-1.64828e-06
0.00236706
-1.64816e-06
0.00236764
-1.64804e-06
0.00236822
-1.64792e-06
0.0023688
-1.64779e-06
0.00236938
-1.64766e-06
0.00236996
-1.64752e-06
0.00237053
-1.64737e-06
0.00237111
-1.64722e-06
0.00237169
-1.64707e-06
0.00237226
-1.64691e-06
0.00237284
-1.64674e-06
0.00237341
-1.64656e-06
0.00237398
-1.64637e-06
0.00237456
-1.64617e-06
0.00237513
-1.64596e-06
0.0023757
-1.64574e-06
0.00237627
-1.64551e-06
0.00237684
-1.64526e-06
0.00237741
-1.645e-06
0.00237798
-1.64473e-06
0.00237855
-1.64443e-06
0.00237912
-1.64411e-06
0.00237969
-1.64376e-06
0.00238025
-1.64338e-06
0.00238082
-1.64297e-06
0.00238138
-1.64251e-06
0.00238195
-1.64201e-06
0.00238251
-1.64145e-06
0.00238307
-1.64081e-06
0.00238364
-1.64009e-06
0.0023842
-1.63926e-06
0.00238476
-1.63828e-06
0.00238532
-1.63713e-06
0.00238587
-1.63575e-06
0.00238643
-1.63408e-06
0.00238699
-1.63201e-06
0.00238754
-1.62941e-06
0.00238809
-1.62606e-06
0.00238865
-1.62175e-06
0.00238919
-1.61617e-06
0.00238974
-1.60484e-06
0.00239028
-1.60741e-06
0.00239082
-1.53915e-06
0.00239135
-1.60494e-06
0.00239187
-1.31152e-06
0.00239249
-1.21209e-06
-9.21712e-07
0.00258383
0.000297065
0.00267957
0.000478323
0.00273603
0.000532171
0.00272985
0.000432718
0.00268915
0.000293973
0.00264184
0.00019172
0.00260015
0.000119226
0.00256897
7.29786e-05
0.00254779
4.77201e-05
0.0025336
3.32631e-05
0.00252379
2.36096e-05
0.00251681
1.70555e-05
0.00251172
1.26523e-05
0.00250793
9.53592e-06
0.00250509
7.209e-06
0.00250293
5.43133e-06
0.00250131
4.05323e-06
0.00250009
2.97489e-06
0.0024992
2.11874e-06
0.00249857
1.4323e-06
0.00249814
8.88655e-07
0.00249788
4.28289e-07
0.00249775
6.19287e-08
0.00249773
-2.406e-07
0.0024978
-4.87755e-07
0.00249795
-6.90533e-07
0.00249815
-8.58039e-07
0.00249841
-9.96715e-07
0.00249871
-1.11128e-06
0.00249904
-1.20626e-06
0.0024994
-1.28505e-06
0.00249979
-1.35045e-06
0.00250019
-1.4048e-06
0.00250062
-1.45e-06
0.00250105
-1.48758e-06
0.0025015
-1.51888e-06
0.00250195
-1.54494e-06
0.00250241
-1.56664e-06
0.00250288
-1.58474e-06
0.00250336
-1.59983e-06
0.00250383
-1.61243e-06
0.00250432
-1.62295e-06
0.0025048
-1.63173e-06
0.00250529
-1.63907e-06
0.00250578
-1.64521e-06
0.00250627
-1.65035e-06
0.00250676
-1.65466e-06
0.00250725
-1.65827e-06
0.00250775
-1.6613e-06
0.00250824
-1.66384e-06
0.00250874
-1.66598e-06
0.00250924
-1.66778e-06
0.00250973
-1.66929e-06
0.00251023
-1.67056e-06
0.00251073
-1.67163e-06
0.00251122
-1.67254e-06
0.00251172
-1.6733e-06
0.00251221
-1.67395e-06
0.00251271
-1.67449e-06
0.00251321
-1.67495e-06
0.0025137
-1.67534e-06
0.0025142
-1.67567e-06
0.0025147
-1.67594e-06
0.00251519
-1.67617e-06
0.00251569
-1.67636e-06
0.00251618
-1.67652e-06
0.00251668
-1.67665e-06
0.00251717
-1.67676e-06
0.00251766
-1.67684e-06
0.00251816
-1.6769e-06
0.00251865
-1.67695e-06
0.00251914
-1.67699e-06
0.00251964
-1.67701e-06
0.00252013
-1.67702e-06
0.00252062
-1.67702e-06
0.00252111
-1.67702e-06
0.0025216
-1.677e-06
0.0025221
-1.67698e-06
0.00252259
-1.67695e-06
0.00252308
-1.67691e-06
0.00252357
-1.67687e-06
0.00252405
-1.67683e-06
0.00252454
-1.67677e-06
0.00252503
-1.67672e-06
0.00252552
-1.67666e-06
0.00252601
-1.67659e-06
0.00252649
-1.67652e-06
0.00252698
-1.67645e-06
0.00252747
-1.67638e-06
0.00252795
-1.6763e-06
0.00252844
-1.67622e-06
0.00252892
-1.67614e-06
0.00252941
-1.67605e-06
0.00252989
-1.67596e-06
0.00253037
-1.67586e-06
0.00253086
-1.67576e-06
0.00253134
-1.67566e-06
0.00253182
-1.67555e-06
0.0025323
-1.67544e-06
0.00253278
-1.67533e-06
0.00253326
-1.67521e-06
0.00253374
-1.67509e-06
0.00253422
-1.67497e-06
0.0025347
-1.67484e-06
0.00253518
-1.67471e-06
0.00253566
-1.67457e-06
0.00253613
-1.67442e-06
0.00253661
-1.67427e-06
0.00253709
-1.67411e-06
0.00253756
-1.67395e-06
0.00253803
-1.67378e-06
0.00253851
-1.67361e-06
0.00253898
-1.67342e-06
0.00253946
-1.67323e-06
0.00253993
-1.67304e-06
0.0025404
-1.67282e-06
0.00254087
-1.6726e-06
0.00254134
-1.67237e-06
0.00254181
-1.67212e-06
0.00254228
-1.67187e-06
0.00254275
-1.67159e-06
0.00254322
-1.6713e-06
0.00254368
-1.67099e-06
0.00254415
-1.67066e-06
0.00254461
-1.67031e-06
0.00254508
-1.66993e-06
0.00254554
-1.66952e-06
0.00254601
-1.66907e-06
0.00254647
-1.66858e-06
0.00254693
-1.66803e-06
0.00254739
-1.66744e-06
0.00254785
-1.66676e-06
0.00254831
-1.66599e-06
0.00254877
-1.66512e-06
0.00254923
-1.66411e-06
0.00254969
-1.66293e-06
0.00255014
-1.66151e-06
0.0025506
-1.65983e-06
0.00255105
-1.65768e-06
0.00255151
-1.65524e-06
0.00255196
-1.65166e-06
0.00255241
-1.64814e-06
0.00255286
-1.64132e-06
0.0025533
-1.63687e-06
0.00255374
-1.61824e-06
0.00255419
-1.6252e-06
0.00255461
-1.542e-06
0.00255504
-1.60558e-06
0.00255548
-1.32475e-06
0.00255595
-1.2654e-06
0.00255646
-1.04631e-06
-1.03011e-06
0.00255673
0.000229107
0.00264146
0.000394077
0.00271374
0.000460365
0.00273597
0.000410967
0.00271763
0.000312791
0.00268395
0.000225881
0.00264903
0.000154623
0.00262017
0.000102317
0.00259926
6.91097e-05
0.00258472
4.82837e-05
0.00257446
3.43509e-05
0.00256706
2.49296e-05
0.00256164
1.85515e-05
0.0025576
1.40552e-05
0.00255455
1.0739e-05
0.00255223
8.22799e-06
0.00255047
6.29338e-06
0.00254914
4.783e-06
0.00254815
3.58767e-06
0.00254743
2.63222e-06
0.00254693
1.86743e-06
0.0025466
1.23763e-06
0.00254641
7.28956e-07
0.00254634
3.11642e-07
0.00254636
-2.93612e-08
0.00254646
-3.10274e-07
0.00254662
-5.41223e-07
0.00254683
-7.32419e-07
0.00254709
-8.9036e-07
0.00254738
-1.02133e-06
0.0025477
-1.12996e-06
0.00254805
-1.22013e-06
0.00254842
-1.29508e-06
0.0025488
-1.35738e-06
0.0025492
-1.4092e-06
0.00254961
-1.45233e-06
0.00255003
-1.48826e-06
0.00255045
-1.51818e-06
0.00255089
-1.54314e-06
0.00255133
-1.56394e-06
0.00255177
-1.58131e-06
0.00255222
-1.59581e-06
0.00255267
-1.60792e-06
0.00255313
-1.61804e-06
0.00255358
-1.6265e-06
0.00255404
-1.63359e-06
0.0025545
-1.63953e-06
0.00255496
-1.6445e-06
0.00255542
-1.64866e-06
0.00255588
-1.65217e-06
0.00255634
-1.65511e-06
0.00255681
-1.65758e-06
0.00255727
-1.65966e-06
0.00255773
-1.66141e-06
0.00255819
-1.66289e-06
0.00255866
-1.66414e-06
0.00255912
-1.66519e-06
0.00255958
-1.66608e-06
0.00256005
-1.66683e-06
0.00256051
-1.66746e-06
0.00256097
-1.668e-06
0.00256144
-1.66845e-06
0.0025619
-1.66883e-06
0.00256236
-1.66915e-06
0.00256282
-1.66942e-06
0.00256328
-1.66964e-06
0.00256375
-1.66983e-06
0.00256421
-1.66998e-06
0.00256467
-1.6701e-06
0.00256513
-1.6702e-06
0.00256559
-1.67027e-06
0.00256605
-1.67033e-06
0.00256651
-1.67037e-06
0.00256697
-1.6704e-06
0.00256743
-1.67041e-06
0.00256788
-1.67042e-06
0.00256834
-1.67041e-06
0.0025688
-1.67039e-06
0.00256926
-1.67037e-06
0.00256971
-1.67033e-06
0.00257017
-1.67029e-06
0.00257063
-1.67025e-06
0.00257108
-1.67019e-06
0.00257154
-1.67013e-06
0.00257199
-1.67007e-06
0.00257245
-1.67e-06
0.0025729
-1.66992e-06
0.00257335
-1.66984e-06
0.00257381
-1.66976e-06
0.00257426
-1.66967e-06
0.00257471
-1.66958e-06
0.00257516
-1.66949e-06
0.00257561
-1.66939e-06
0.00257606
-1.66929e-06
0.00257651
-1.66918e-06
0.00257696
-1.66907e-06
0.00257741
-1.66895e-06
0.00257786
-1.66883e-06
0.00257831
-1.66871e-06
0.00257876
-1.66857e-06
0.0025792
-1.66844e-06
0.00257965
-1.66831e-06
0.0025801
-1.66817e-06
0.00258054
-1.66802e-06
0.00258099
-1.66787e-06
0.00258143
-1.66771e-06
0.00258187
-1.66754e-06
0.00258232
-1.66737e-06
0.00258276
-1.66719e-06
0.0025832
-1.667e-06
0.00258364
-1.66681e-06
0.00258408
-1.66661e-06
0.00258452
-1.6664e-06
0.00258496
-1.66618e-06
0.0025854
-1.66595e-06
0.00258584
-1.66571e-06
0.00258628
-1.66546e-06
0.00258672
-1.66519e-06
0.00258715
-1.66491e-06
0.00258759
-1.66461e-06
0.00258802
-1.6643e-06
0.00258846
-1.66396e-06
0.00258889
-1.66361e-06
0.00258933
-1.66323e-06
0.00258976
-1.66282e-06
0.00259019
-1.66238e-06
0.00259062
-1.66191e-06
0.00259105
-1.66139e-06
0.00259148
-1.66082e-06
0.00259191
-1.66019e-06
0.00259234
-1.6595e-06
0.00259277
-1.65871e-06
0.00259319
-1.65782e-06
0.00259362
-1.65679e-06
0.00259404
-1.6556e-06
0.00259447
-1.65421e-06
0.00259489
-1.65252e-06
0.00259531
-1.65054e-06
0.00259573
-1.64795e-06
0.00259615
-1.64517e-06
0.00259657
-1.64057e-06
0.00259699
-1.63691e-06
0.0025974
-1.62729e-06
0.00259782
-1.62424e-06
0.00259822
-1.5989e-06
0.00259863
-1.60677e-06
0.00259904
-1.52146e-06
0.00259941
-1.55883e-06
0.00259984
-1.33089e-06
0.00260025
-1.25442e-06
0.00260075
-1.11796e-06
-9.90246e-07
0.00253859
0.000179285
0.00260664
0.000326516
0.00267243
0.000395053
0.00270279
0.000381087
0.00269795
0.000318112
0.00267635
0.000247956
0.00265019
0.000181258
0.00262652
0.000126473
0.00260819
8.79173e-05
0.00259482
6.213e-05
0.00258508
4.45748e-05
0.0025779
3.25833e-05
0.00257257
2.436e-05
0.00256857
1.8538e-05
0.00256553
1.42554e-05
0.00256322
1.10221e-05
0.00256146
8.53595e-06
0.00256012
6.59632e-06
0.00255912
5.06317e-06
0.0025584
3.83941e-06
0.00255788
2.85686e-06
0.00255754
2.05585e-06
0.00255735
1.40581e-06
0.00255726
8.74001e-07
0.00255727
4.37909e-07
0.00255736
7.99562e-08
0.00255751
-2.15011e-07
0.00255772
-4.59408e-07
0.00255797
-6.60948e-07
0.00255825
-8.28067e-07
0.00255856
-9.66568e-07
0.0025589
-1.08155e-06
0.00255926
-1.17709e-06
0.00255964
-1.2565e-06
0.00256003
-1.32256e-06
0.00256043
-1.37756e-06
0.00256084
-1.42335e-06
0.00256126
-1.4615e-06
0.00256168
-1.49331e-06
0.00256212
-1.51983e-06
0.00256255
-1.54197e-06
0.00256299
-1.56045e-06
0.00256343
-1.57589e-06
0.00256388
-1.58879e-06
0.00256433
-1.59958e-06
0.00256478
-1.6086e-06
0.00256523
-1.61617e-06
0.00256568
-1.6225e-06
0.00256613
-1.62781e-06
0.00256659
-1.63227e-06
0.00256704
-1.63602e-06
0.00256749
-1.63916e-06
0.00256795
-1.64181e-06
0.0025684
-1.64404e-06
0.00256886
-1.64592e-06
0.00256931
-1.6475e-06
0.00256977
-1.64884e-06
0.00257022
-1.64997e-06
0.00257068
-1.65093e-06
0.00257113
-1.65173e-06
0.00257159
-1.65241e-06
0.00257204
-1.65299e-06
0.0025725
-1.65347e-06
0.00257295
-1.65388e-06
0.00257341
-1.65422e-06
0.00257386
-1.65451e-06
0.00257431
-1.65475e-06
0.00257476
-1.65494e-06
0.00257522
-1.6551e-06
0.00257567
-1.65523e-06
0.00257612
-1.65534e-06
0.00257657
-1.65542e-06
0.00257702
-1.65548e-06
0.00257748
-1.65552e-06
0.00257793
-1.65554e-06
0.00257838
-1.65556e-06
0.00257883
-1.65556e-06
0.00257927
-1.65555e-06
0.00257972
-1.65552e-06
0.00258017
-1.65549e-06
0.00258062
-1.65545e-06
0.00258107
-1.6554e-06
0.00258152
-1.65534e-06
0.00258196
-1.65528e-06
0.00258241
-1.65521e-06
0.00258286
-1.65514e-06
0.0025833
-1.65505e-06
0.00258375
-1.65497e-06
0.00258419
-1.65488e-06
0.00258463
-1.65478e-06
0.00258508
-1.65468e-06
0.00258552
-1.65458e-06
0.00258596
-1.65447e-06
0.00258641
-1.65435e-06
0.00258685
-1.65423e-06
0.00258729
-1.65411e-06
0.00258773
-1.65398e-06
0.00258817
-1.65385e-06
0.00258861
-1.6537e-06
0.00258905
-1.65356e-06
0.00258949
-1.65341e-06
0.00258993
-1.65326e-06
0.00259036
-1.6531e-06
0.0025908
-1.65293e-06
0.00259124
-1.65276e-06
0.00259167
-1.65259e-06
0.00259211
-1.6524e-06
0.00259254
-1.6522e-06
0.00259298
-1.652e-06
0.00259341
-1.6518e-06
0.00259385
-1.65158e-06
0.00259428
-1.65135e-06
0.00259471
-1.65112e-06
0.00259514
-1.65087e-06
0.00259557
-1.65061e-06
0.002596
-1.65034e-06
0.00259643
-1.65005e-06
0.00259686
-1.64975e-06
0.00259729
-1.64943e-06
0.00259772
-1.6491e-06
0.00259814
-1.64874e-06
0.00259857
-1.64837e-06
0.002599
-1.64797e-06
0.00259942
-1.64754e-06
0.00259984
-1.64708e-06
0.00260027
-1.64658e-06
0.00260069
-1.64604e-06
0.00260111
-1.64545e-06
0.00260153
-1.64481e-06
0.00260196
-1.64409e-06
0.00260237
-1.6433e-06
0.00260279
-1.6424e-06
0.00260321
-1.64138e-06
0.00260363
-1.64021e-06
0.00260405
-1.63885e-06
0.00260446
-1.63725e-06
0.00260488
-1.6353e-06
0.00260529
-1.63303e-06
0.0026057
-1.62999e-06
0.00260612
-1.62678e-06
0.00260653
-1.62129e-06
0.00260693
-1.61736e-06
0.00260734
-1.60568e-06
0.00260775
-1.60268e-06
0.00260815
-1.57339e-06
0.00260854
-1.57803e-06
0.00260894
-1.49749e-06
0.00260932
-1.50649e-06
0.00260974
-1.33283e-06
0.00261014
-1.2316e-06
0.00261059
-1.14563e-06
0.00261104
-1.0576e-06
-8.70952e-07
0.00252616
0.000141891
0.00258047
0.000272694
0.00263546
0.000340545
0.00266627
0.000350749
0.00266957
0.000315299
0.00265751
0.000260495
0.00263944
0.000199806
0.0026213
0.000145089
0.00260619
0.000103506
0.00259456
7.42426e-05
0.00258575
5.38661e-05
0.00257908
3.97256e-05
0.00257405
2.98771e-05
0.00257022
2.28437e-05
0.0025673
1.76575e-05
0.00256506
1.37387e-05
0.00256335
1.07238e-05
0.00256205
8.37018e-06
0.00256109
6.50978e-06
0.00256038
5.02464e-06
0.00255989
3.83069e-06
0.00255956
2.8609e-06
0.00255937
2.07246e-06
0.00255929
1.42763e-06
0.00255931
8.99101e-07
0.0025594
4.64703e-07
0.00255956
1.06718e-07
0.00255977
-1.89055e-07
0.00256002
-4.33211e-07
0.0025603
-6.35777e-07
0.00256062
-8.03657e-07
0.00256096
-9.43082e-07
0.00256131
-1.05896e-06
0.00256169
-1.15524e-06
0.00256208
-1.23534e-06
0.00256248
-1.30202e-06
0.00256289
-1.35755e-06
0.00256331
-1.4038e-06
0.00256373
-1.44238e-06
0.00256416
-1.47454e-06
0.0025646
-1.50137e-06
0.00256504
-1.52378e-06
0.00256548
-1.54249e-06
0.00256592
-1.55813e-06
0.00256637
-1.5712e-06
0.00256682
-1.58215e-06
0.00256727
-1.59131e-06
0.00256772
-1.59898e-06
0.00256817
-1.60541e-06
0.00256862
-1.61082e-06
0.00256907
-1.61535e-06
0.00256953
-1.61916e-06
0.00256998
-1.62236e-06
0.00257043
-1.62506e-06
0.00257089
-1.62733e-06
0.00257134
-1.62924e-06
0.00257179
-1.63086e-06
0.00257225
-1.63223e-06
0.0025727
-1.63338e-06
0.00257315
-1.63435e-06
0.0025736
-1.63517e-06
0.00257406
-1.63587e-06
0.00257451
-1.63646e-06
0.00257496
-1.63695e-06
0.00257541
-1.63737e-06
0.00257587
-1.63771e-06
0.00257632
-1.638e-06
0.00257677
-1.63824e-06
0.00257722
-1.63844e-06
0.00257767
-1.6386e-06
0.00257812
-1.63873e-06
0.00257857
-1.63883e-06
0.00257902
-1.63891e-06
0.00257947
-1.63896e-06
0.00257992
-1.639e-06
0.00258037
-1.63902e-06
0.00258082
-1.63903e-06
0.00258126
-1.63902e-06
0.00258171
-1.639e-06
0.00258216
-1.63897e-06
0.0025826
-1.63893e-06
0.00258305
-1.63888e-06
0.0025835
-1.63882e-06
0.00258394
-1.63875e-06
0.00258439
-1.63868e-06
0.00258483
-1.63859e-06
0.00258527
-1.63851e-06
0.00258572
-1.63841e-06
0.00258616
-1.63831e-06
0.0025866
-1.63821e-06
0.00258704
-1.6381e-06
0.00258749
-1.63798e-06
0.00258793
-1.63786e-06
0.00258837
-1.63773e-06
0.00258881
-1.6376e-06
0.00258925
-1.63747e-06
0.00258969
-1.63732e-06
0.00259013
-1.63718e-06
0.00259056
-1.63702e-06
0.002591
-1.63686e-06
0.00259144
-1.6367e-06
0.00259187
-1.63653e-06
0.00259231
-1.63635e-06
0.00259275
-1.63617e-06
0.00259318
-1.63598e-06
0.00259361
-1.63578e-06
0.00259405
-1.63557e-06
0.00259448
-1.63536e-06
0.00259491
-1.63513e-06
0.00259535
-1.6349e-06
0.00259578
-1.63466e-06
0.00259621
-1.63441e-06
0.00259664
-1.63415e-06
0.00259707
-1.63387e-06
0.0025975
-1.63359e-06
0.00259793
-1.63328e-06
0.00259835
-1.63297e-06
0.00259878
-1.63263e-06
0.00259921
-1.63228e-06
0.00259963
-1.6319e-06
0.00260006
-1.63151e-06
0.00260048
-1.63109e-06
0.00260091
-1.63064e-06
0.00260133
-1.63016e-06
0.00260175
-1.62965e-06
0.00260218
-1.62909e-06
0.0026026
-1.62849e-06
0.00260302
-1.62783e-06
0.00260344
-1.62711e-06
0.00260386
-1.62631e-06
0.00260427
-1.62542e-06
0.00260469
-1.62442e-06
0.00260511
-1.62328e-06
0.00260552
-1.62196e-06
0.00260594
-1.62043e-06
0.00260635
-1.61863e-06
0.00260677
-1.61643e-06
0.00260718
-1.61387e-06
0.00260759
-1.61043e-06
0.002608
-1.60684e-06
0.00260841
-1.60069e-06
0.00260882
-1.59608e-06
0.00260922
-1.58309e-06
0.00260962
-1.57895e-06
0.00261003
-1.54861e-06
0.00261042
-1.54723e-06
0.00261082
-1.47491e-06
0.0026112
-1.46157e-06
0.00261162
-1.32737e-06
0.00261204
-1.22632e-06
0.00261246
-1.147e-06
0.0026129
-1.08036e-06
0.00261331
-9.02877e-07
-1.05731e-06
0.00251712
0.000113537
0.00256083
0.000229472
0.0026061
0.000295754
0.00263512
0.000322205
0.00264343
0.000307471
0.00263847
0.000265937
0.00262699
0.000211765
0.00261376
0.000158801
0.00260175
0.000115991
0.00259194
8.45354e-05
0.00258419
6.2096e-05
0.00257815
4.62393e-05
0.0025735
3.50119e-05
0.00256991
2.69063e-05
0.00256715
2.08969e-05
0.00256503
1.63417e-05
0.0025634
1.28294e-05
0.00256217
1.0083e-05
0.00256125
7.90992e-06
0.00256058
6.17405e-06
0.00256011
4.777e-06
0.0025598
3.64377e-06
0.00255963
2.72168e-06
0.00255957
1.96759e-06
0.0025596
1.3492e-06
0.0025597
8.40974e-07
0.00255986
4.22144e-07
0.00256008
7.60104e-08
0.00256033
-2.1034e-07
0.00256062
-4.47584e-07
0.00256094
-6.44139e-07
0.00256128
-8.0749e-07
0.00256164
-9.43098e-07
0.00256202
-1.05584e-06
0.00256241
-1.14963e-06
0.00256281
-1.22772e-06
0.00256322
-1.29274e-06
0.00256364
-1.3469e-06
0.00256407
-1.39206e-06
0.0025645
-1.42971e-06
0.00256493
-1.46115e-06
0.00256537
-1.48737e-06
0.00256581
-1.50928e-06
0.00256626
-1.52759e-06
0.0025667
-1.54289e-06
0.00256715
-1.55569e-06
0.0025676
-1.56642e-06
0.00256805
-1.57539e-06
0.0025685
-1.58291e-06
0.00256895
-1.58924e-06
0.00256941
-1.59453e-06
0.00256986
-1.59899e-06
0.00257031
-1.60273e-06
0.00257076
-1.60588e-06
0.00257122
-1.60853e-06
0.00257167
-1.61077e-06
0.00257212
-1.61266e-06
0.00257258
-1.61425e-06
0.00257303
-1.61559e-06
0.00257348
-1.61673e-06
0.00257394
-1.61769e-06
0.00257439
-1.6185e-06
0.00257484
-1.61918e-06
0.00257529
-1.61976e-06
0.00257575
-1.62024e-06
0.0025762
-1.62065e-06
0.00257665
-1.62099e-06
0.0025771
-1.62127e-06
0.00257755
-1.6215e-06
0.002578
-1.62169e-06
0.00257845
-1.62184e-06
0.0025789
-1.62197e-06
0.00257935
-1.62206e-06
0.0025798
-1.62213e-06
0.00258025
-1.62217e-06
0.00258069
-1.6222e-06
0.00258114
-1.62221e-06
0.00258159
-1.62221e-06
0.00258204
-1.62219e-06
0.00258248
-1.62216e-06
0.00258293
-1.62212e-06
0.00258338
-1.62207e-06
0.00258382
-1.622e-06
0.00258427
-1.62193e-06
0.00258471
-1.62185e-06
0.00258515
-1.62176e-06
0.0025856
-1.62167e-06
0.00258604
-1.62156e-06
0.00258648
-1.62146e-06
0.00258693
-1.62134e-06
0.00258737
-1.62122e-06
0.00258781
-1.6211e-06
0.00258825
-1.62097e-06
0.00258869
-1.62083e-06
0.00258913
-1.62068e-06
0.00258957
-1.62053e-06
0.00259001
-1.62038e-06
0.00259045
-1.62022e-06
0.00259088
-1.62005e-06
0.00259132
-1.61987e-06
0.00259176
-1.61969e-06
0.00259219
-1.61951e-06
0.00259263
-1.61931e-06
0.00259306
-1.61911e-06
0.0025935
-1.6189e-06
0.00259393
-1.61869e-06
0.00259437
-1.61846e-06
0.0025948
-1.61822e-06
0.00259523
-1.61797e-06
0.00259566
-1.61772e-06
0.00259609
-1.61746e-06
0.00259653
-1.61718e-06
0.00259696
-1.61689e-06
0.00259738
-1.61659e-06
0.00259781
-1.61627e-06
0.00259824
-1.61594e-06
0.00259867
-1.61559e-06
0.0025991
-1.61522e-06
0.00259952
-1.61483e-06
0.00259995
-1.61441e-06
0.00260037
-1.61398e-06
0.0026008
-1.61351e-06
0.00260122
-1.61302e-06
0.00260164
-1.61249e-06
0.00260207
-1.61192e-06
0.00260249
-1.61131e-06
0.00260291
-1.61065e-06
0.00260333
-1.60992e-06
0.00260375
-1.60912e-06
0.00260417
-1.60824e-06
0.00260458
-1.60726e-06
0.002605
-1.60615e-06
0.00260542
-1.60489e-06
0.00260583
-1.60343e-06
0.00260625
-1.60174e-06
0.00260666
-1.59975e-06
0.00260708
-1.59731e-06
0.00260749
-1.59448e-06
0.0026079
-1.59069e-06
0.00260831
-1.58663e-06
0.00260872
-1.57991e-06
0.00260912
-1.57457e-06
0.00260953
-1.561e-06
0.00260993
-1.55488e-06
0.00261034
-1.52507e-06
0.00261073
-1.51695e-06
0.00261113
-1.4539e-06
0.00261152
-1.4236e-06
0.00261194
-1.32032e-06
0.00261235
-1.2175e-06
0.00261277
-1.1476e-06
0.0026132
-1.08808e-06
0.00261369
-9.70682e-07
-9.71599e-07
0.00251038
9.19221e-05
0.00254584
0.000194495
0.00258329
0.000258783
0.00261001
0.000295964
0.0026214
0.000296563
0.00262157
0.000266242
0.00261522
0.000218601
0.00260606
0.000168434
0.00259683
0.000125707
0.00258875
9.30908e-05
0.00258208
6.9249e-05
0.00257672
5.20801e-05
0.00257249
3.97193e-05
0.00256919
3.06882e-05