/*--------------------------------*- C++ -*----------------------------------*\
| =========                 |                                                 |
| \\      /  F ield         | OpenFOAM: The Open Source CFD Toolbox           |
|  \\    /   O peration     | Version:  2512                                  |
|   \\  /    A nd           | Website:  www.openfoam.com                      |
|    \\/     M anipulation  |                                                 |
\*---------------------------------------------------------------------------*/
FoamFile
{
    version     2.0;
    format      ascii;
    arch        "LSB;label=32;scalar=64";
    class       surfaceScalarField;
    location    "0.1";
    object      phiB;
}
// * * * * * * * * * * * * * * * * * * * * * * * * * * * * * * * * * * * * * //

dimensions      [1 2 -2 0 0 -1 0];

oriented        oriented;

internalField   nonuniform List<scalar> 
16431
(
4.54042e-09
0.00192
5.42461e-09
0.00192
5.52704e-09
0.00192
5.60876e-09
0.00192
5.72638e-09
0.00192
5.81052e-09
0.00192
5.88867e-09
0.00192
5.99284e-09
0.00192
6.11293e-09
0.00192
6.23152e-09
0.00192
6.34624e-09
0.00192
6.45865e-09
0.00192
6.56763e-09
0.00192
6.67145e-09
0.00192
6.76936e-09
0.00192
6.86109e-09
0.00192
6.94654e-09
0.00192
7.02569e-09
0.00192
7.0986e-09
0.00192
7.16546e-09
0.00192
7.22651e-09
0.00192
7.28199e-09
0.00192
7.33215e-09
0.00192
7.37731e-09
0.00192
7.41774e-09
0.00192
7.45377e-09
0.00192
7.48571e-09
0.00192
7.51385e-09
0.00192
7.53849e-09
0.00192
7.5599e-09
0.00192
7.57837e-09
0.00192
7.59415e-09
0.00192
7.60748e-09
0.00192
7.61862e-09
0.00192
7.62777e-09
0.00192
7.63516e-09
0.00192
7.64096e-09
0.00192
7.64537e-09
0.00192
7.64855e-09
0.00192
7.65064e-09
0.00192
7.65179e-09
0.00192
7.65213e-09
0.00192
7.65178e-09
0.00192
7.65083e-09
0.00192
7.64939e-09
0.00192
7.64754e-09
0.00192
7.64536e-09
0.00192
7.6429e-09
0.00192
7.64025e-09
0.00192
7.63745e-09
0.00192
7.63454e-09
0.00192
7.63157e-09
0.00192
7.62858e-09
0.00192
7.62559e-09
0.00192
7.62264e-09
0.00192
7.61974e-09
0.00192
7.61691e-09
0.00192
7.61418e-09
0.00192
7.61155e-09
0.00192
7.60904e-09
0.00192
7.60666e-09
0.00192
7.6044e-09
0.00192
7.60228e-09
0.00192
7.6003e-09
0.00192
7.59845e-09
0.00192
7.59674e-09
0.00192
7.59518e-09
0.00192
7.59376e-09
0.00192
7.59247e-09
0.00192
7.59132e-09
0.00192
7.59029e-09
0.00192
7.5894e-09
0.00192
7.58862e-09
0.00192
7.58797e-09
0.00192
7.58744e-09
0.00192
7.58701e-09
0.00192
7.5867e-09
0.00192
7.58649e-09
0.00192
7.58637e-09
0.00192
7.58635e-09
0.00192
7.58642e-09
0.00192
7.58657e-09
0.00192
7.5868e-09
0.00192
7.58711e-09
0.00192
7.58749e-09
0.00192
7.58793e-09
0.00192
7.58844e-09
0.00192
7.58901e-09
0.00192
7.58963e-09
0.00192
7.5903e-09
0.00192
7.59103e-09
0.00192
7.5918e-09
0.00192
7.59261e-09
0.00192
7.59346e-09
0.00192
7.59435e-09
0.00192
7.59527e-09
0.00192
7.59622e-09
0.00192
7.5972e-09
0.00192
7.5982e-09
0.00192
7.59923e-09
0.00192
7.60027e-09
0.00192
7.60134e-09
0.00192
7.60242e-09
0.00192
7.60351e-09
0.00192
7.60461e-09
0.00192
7.60572e-09
0.00192
7.60684e-09
0.00192
7.60797e-09
0.00192
7.6091e-09
0.00192
7.61022e-09
0.00192
7.61135e-09
0.00192
7.61248e-09
0.00192
7.61361e-09
0.00192
7.61474e-09
0.00192
7.61585e-09
0.00192
7.61696e-09
0.00192
7.61806e-09
0.00192
7.61915e-09
0.00192
7.62023e-09
0.00192
7.62129e-09
0.00192
7.62235e-09
0.00192
7.62339e-09
0.00192
7.62441e-09
0.00192
7.62542e-09
0.00192
7.62641e-09
0.00192
7.62738e-09
0.00192
7.62833e-09
0.00192
7.62926e-09
0.00192
7.63018e-09
0.00192
7.63108e-09
0.00192
7.63197e-09
0.00192
7.63284e-09
0.00192
7.6337e-09
0.00192
7.63455e-09
0.00192
7.63538e-09
0.00192
7.6362e-09
0.00192
7.63701e-09
0.00192
7.63782e-09
0.00192
7.63862e-09
0.00192
7.63943e-09
0.00192
7.64024e-09
0.00192
7.64104e-09
0.00192
7.64187e-09
0.00192
7.64265e-09
0.00192
7.64356e-09
0.00192
7.64421e-09
0.00192
7.64519e-09
0.00192
7.64574e-09
0.00192
0.00192
5.36993e-09
0.00192
8.11564e-09
0.00192
9.89022e-09
0.00192
1.09662e-08
0.00192
1.16312e-08
0.00192
1.19901e-08
0.00192
1.21999e-08
0.00192
1.23889e-08
0.00192
1.25853e-08
0.00192
1.27775e-08
0.00192
1.29621e-08
0.00192
1.31405e-08
0.00192
1.33114e-08
0.00192
1.34728e-08
0.00192
1.36238e-08
0.00192
1.37642e-08
0.00192
1.38941e-08
0.00192
1.40137e-08
0.00192
1.41232e-08
0.00192
1.42231e-08
0.00192
1.43138e-08
0.00192
1.43957e-08
0.00192
1.44693e-08
0.00192
1.45352e-08
0.00192
1.45938e-08
0.00192
1.46456e-08
0.00192
1.46911e-08
0.00192
1.47309e-08
0.00192
1.47653e-08
0.00192
1.47948e-08
0.00192
1.48198e-08
0.00192
1.48408e-08
0.00192
1.4858e-08
0.00192
1.4872e-08
0.00192
1.48829e-08
0.00192
1.48912e-08
0.00192
1.48972e-08
0.00192
1.4901e-08
0.00192
1.49029e-08
0.00192
1.49033e-08
0.00192
1.49022e-08
0.00192
1.48999e-08
0.00192
1.48966e-08
0.00192
1.48923e-08
0.00192
1.48874e-08
0.00192
1.48818e-08
0.00192
1.48757e-08
0.00192
1.48691e-08
0.00192
1.48623e-08
0.00192
1.48553e-08
0.00192
1.48481e-08
0.00192
1.48408e-08
0.00192
1.48334e-08
0.00192
1.4826e-08
0.00192
1.48187e-08
0.00192
1.48115e-08
0.00192
1.48043e-08
0.00192
1.47973e-08
0.00192
1.47904e-08
0.00192
1.47837e-08
0.00192
1.47772e-08
0.00192
1.47709e-08
0.00192
1.47647e-08
0.00192
1.47588e-08
0.00192
1.4753e-08
0.00192
1.47475e-08
0.00192
1.47421e-08
0.00192
1.4737e-08
0.00192
1.4732e-08
0.00192
1.47272e-08
0.00192
1.47227e-08
0.00192
1.47183e-08
0.00192
1.47141e-08
0.00192
1.471e-08
0.00192
1.47062e-08
0.00192
1.47025e-08
0.00192
1.46989e-08
0.00192
1.46955e-08
0.00192
1.46922e-08
0.00192
1.46891e-08
0.00192
1.46861e-08
0.00192
1.46832e-08
0.00192
1.46805e-08
0.00192
1.46778e-08
0.00192
1.46753e-08
0.00192
1.46728e-08
0.00192
1.46704e-08
0.00192
1.46682e-08
0.00192
1.4666e-08
0.00192
1.46638e-08
0.00192
1.46618e-08
0.00192
1.46598e-08
0.00192
1.46579e-08
0.00192
1.4656e-08
0.00192
1.46542e-08
0.00192
1.46525e-08
0.00192
1.46507e-08
0.00192
1.46491e-08
0.00192
1.46474e-08
0.00192
1.46458e-08
0.00192
1.46442e-08
0.00192
1.46427e-08
0.00192
1.46412e-08
0.00192
1.46396e-08
0.00192
1.46381e-08
0.00192
1.46367e-08
0.00192
1.46352e-08
0.00192
1.46337e-08
0.00192
1.46323e-08
0.00192
1.46308e-08
0.00192
1.46294e-08
0.00192
1.46279e-08
0.00192
1.46265e-08
0.00192
1.4625e-08
0.00192
1.46236e-08
0.00192
1.46221e-08
0.00192
1.46206e-08
0.00192
1.46191e-08
0.00192
1.46176e-08
0.00192
1.46161e-08
0.00192
1.46145e-08
0.00192
1.46129e-08
0.00192
1.46114e-08
0.00192
1.46097e-08
0.00192
1.46081e-08
0.00192
1.46064e-08
0.00192
1.46047e-08
0.00192
1.4603e-08
0.00192
1.46013e-08
0.00192
1.45995e-08
0.00192
1.45978e-08
0.00192
1.4596e-08
0.00192
1.45942e-08
0.00192
1.45923e-08
0.00192
1.45905e-08
0.00192
1.45886e-08
0.00192
1.45868e-08
0.00192
1.45849e-08
0.00192
1.4583e-08
0.00192
1.45811e-08
0.00192
1.45793e-08
0.00192
1.45774e-08
0.00192
1.45756e-08
0.00192
1.45738e-08
0.00192
1.4572e-08
0.00192
1.45701e-08
0.00192
1.45685e-08
0.00192
1.45668e-08
0.00192
1.45653e-08
0.00192
0.00192
5.347e-09
0.00191999
8.04202e-09
0.00191999
1.03819e-08
0.00192
1.20546e-08
0.00192
1.31762e-08
0.00192
1.3846e-08
0.00192
1.42468e-08
0.00192
1.45498e-08
0.00192
1.48197e-08
0.00192
1.50655e-08
0.00192
1.52923e-08
0.00192
1.55046e-08
0.00192
1.57031e-08
0.00192
1.58873e-08
0.00192
1.60574e-08
0.00192
1.62139e-08
0.00192
1.63574e-08
0.00192
1.64884e-08
0.00192
1.66076e-08
0.00192
1.67157e-08
0.00192
1.68133e-08
0.00192
1.69011e-08
0.00192
1.69796e-08
0.00192
1.70495e-08
0.00192
1.71114e-08
0.00192
1.7166e-08
0.00192
1.72137e-08
0.00192
1.72552e-08
0.00192
1.72909e-08
0.00192
1.73213e-08
0.00192
1.7347e-08
0.00192
1.73683e-08
0.00192
1.73857e-08
0.00192
1.73996e-08
0.00192
1.74103e-08
0.00192
1.74182e-08
0.00192
1.74236e-08
0.00192
1.74267e-08
0.00192
1.74279e-08
0.00192
1.74274e-08
0.00192
1.74254e-08
0.00192
1.74221e-08
0.00192
1.74177e-08
0.00192
1.74124e-08
0.00192
1.74062e-08
0.00192
1.73995e-08
0.00192
1.73921e-08
0.00192
1.73844e-08
0.00192
1.73763e-08
0.00192
1.73679e-08
0.00192
1.73594e-08
0.00192
1.73507e-08
0.00192
1.7342e-08
0.00192
1.73333e-08
0.00192
1.73246e-08
0.00192
1.7316e-08
0.00192
1.73075e-08
0.00192
1.72991e-08
0.00192
1.72908e-08
0.00192
1.72827e-08
0.00192
1.72748e-08
0.00192
1.7267e-08
0.00192
1.72594e-08
0.00192
1.72521e-08
0.00192
1.72449e-08
0.00192
1.72379e-08
0.00192
1.72311e-08
0.00192
1.72245e-08
0.00192
1.72182e-08
0.00192
1.7212e-08
0.00192
1.7206e-08
0.00192
1.72001e-08
0.00192
1.71945e-08
0.00192
1.7189e-08
0.00192
1.71837e-08
0.00192
1.71786e-08
0.00192
1.71736e-08
0.00192
1.71687e-08
0.00192
1.7164e-08
0.00192
1.71595e-08
0.00192
1.7155e-08
0.00192
1.71507e-08
0.00192
1.71465e-08
0.00192
1.71424e-08
0.00192
1.71384e-08
0.00192
1.71345e-08
0.00192
1.71307e-08
0.00192
1.7127e-08
0.00192
1.71233e-08
0.00192
1.71198e-08
0.00192
1.71163e-08
0.00192
1.71129e-08
0.00192
1.71095e-08
0.00192
1.71062e-08
0.00192
1.71029e-08
0.00192
1.70997e-08
0.00192
1.70966e-08
0.00192
1.70934e-08
0.00192
1.70904e-08
0.00192
1.70873e-08
0.00192
1.70843e-08
0.00192
1.70813e-08
0.00192
1.70783e-08
0.00192
1.70754e-08
0.00192
1.70724e-08
0.00192
1.70695e-08
0.00192
1.70666e-08
0.00192
1.70637e-08
0.00192
1.70608e-08
0.00192
1.70579e-08
0.00192
1.7055e-08
0.00192
1.70521e-08
0.00192
1.70492e-08
0.00192
1.70463e-08
0.00192
1.70434e-08
0.00192
1.70405e-08
0.00192
1.70376e-08
0.00192
1.70346e-08
0.00192
1.70317e-08
0.00192
1.70287e-08
0.00192
1.70257e-08
0.00192
1.70227e-08
0.00192
1.70197e-08
0.00192
1.70166e-08
0.00192
1.70135e-08
0.00192
1.70104e-08
0.00192
1.70073e-08
0.00192
1.70041e-08
0.00192
1.7001e-08
0.00192
1.69978e-08
0.00192
1.69945e-08
0.00192
1.69913e-08
0.00192
1.69881e-08
0.00192
1.69848e-08
0.00192
1.69815e-08
0.00192
1.69782e-08
0.00192
1.69749e-08
0.00192
1.69716e-08
0.00192
1.69683e-08
0.00192
1.6965e-08
0.00192
1.69617e-08
0.00192
1.69584e-08
0.00192
1.69552e-08
0.00192
1.6952e-08
0.00192
1.69487e-08
0.00192
1.69456e-08
0.00192
1.69424e-08
0.00192
1.69395e-08
0.00192
1.69368e-08
0.00192
1.69343e-08
0.00192
0.00192
5.01671e-09
0.00191999
7.18633e-09
0.00191999
9.3865e-09
0.00191999
1.11835e-08
0.00192
1.25426e-08
0.00192
1.34687e-08
0.00192
1.40843e-08
0.00192
1.45436e-08
0.00192
1.4922e-08
0.00192
1.52455e-08
0.00192
1.55304e-08
0.00192
1.57876e-08
0.00192
1.60216e-08
0.00192
1.62347e-08
0.00192
1.64286e-08
0.00192
1.6605e-08
0.00192
1.67651e-08
0.00192
1.69103e-08
0.00192
1.70416e-08
0.00192
1.71599e-08
0.00192
1.72663e-08
0.00192
1.73616e-08
0.00192
1.74465e-08
0.00192
1.75219e-08
0.00192
1.75885e-08
0.00192
1.76471e-08
0.00192
1.76982e-08
0.00192
1.77426e-08
0.00192
1.77807e-08
0.00192
1.78132e-08
0.00192
1.78406e-08
0.00192
1.78634e-08
0.00192
1.78819e-08
0.00192
1.78968e-08
0.00192
1.79082e-08
0.00192
1.79167e-08
0.00192
1.79225e-08
0.00192
1.7926e-08
0.00192
1.79274e-08
0.00192
1.7927e-08
0.00192
1.79251e-08
0.00192
1.79217e-08
0.00192
1.79173e-08
0.00192
1.79118e-08
0.00192
1.79055e-08
0.00192
1.78984e-08
0.00192
1.78908e-08
0.00192
1.78828e-08
0.00192
1.78744e-08
0.00192
1.78657e-08
0.00192
1.78568e-08
0.00192
1.78478e-08
0.00192
1.78387e-08
0.00192
1.78295e-08
0.00192
1.78204e-08
0.00192
1.78114e-08
0.00192
1.78024e-08
0.00192
1.77936e-08
0.00192
1.77849e-08
0.00192
1.77763e-08
0.00192
1.77679e-08
0.00192
1.77597e-08
0.00192
1.77517e-08
0.00192
1.77438e-08
0.00192
1.77362e-08
0.00192
1.77287e-08
0.00192
1.77215e-08
0.00192
1.77144e-08
0.00192
1.77075e-08
0.00192
1.77009e-08
0.00192
1.76944e-08
0.00192
1.76881e-08
0.00192
1.76819e-08
0.00192
1.7676e-08
0.00192
1.76702e-08
0.00192
1.76645e-08
0.00192
1.7659e-08
0.00192
1.76537e-08
0.00192
1.76485e-08
0.00192
1.76435e-08
0.00192
1.76385e-08
0.00192
1.76337e-08
0.00192
1.7629e-08
0.00192
1.76244e-08
0.00192
1.76199e-08
0.00192
1.76155e-08
0.00192
1.76112e-08
0.00192
1.7607e-08
0.00192
1.76029e-08
0.00192
1.75988e-08
0.00192
1.75948e-08
0.00192
1.75909e-08
0.00192
1.75871e-08
0.00192
1.75833e-08
0.00192
1.75795e-08
0.00192
1.75758e-08
0.00192
1.75721e-08
0.00192
1.75685e-08
0.00192
1.75649e-08
0.00192
1.75614e-08
0.00192
1.75579e-08
0.00192
1.75544e-08
0.00192
1.75509e-08
0.00192
1.75474e-08
0.00192
1.7544e-08
0.00192
1.75406e-08
0.00192
1.75372e-08
0.00192
1.75338e-08
0.00192
1.75304e-08
0.00192
1.7527e-08
0.00192
1.75236e-08
0.00192
1.75202e-08
0.00192
1.75168e-08
0.00192
1.75134e-08
0.00192
1.751e-08
0.00192
1.75066e-08
0.00192
1.75032e-08
0.00192
1.74997e-08
0.00192
1.74963e-08
0.00192
1.74928e-08
0.00192
1.74893e-08
0.00192
1.74858e-08
0.00192
1.74823e-08
0.00192
1.74787e-08
0.00192
1.74752e-08
0.00192
1.74716e-08
0.00192
1.74679e-08
0.00192
1.74643e-08
0.00192
1.74606e-08
0.00192
1.74569e-08
0.00192
1.74532e-08
0.00192
1.74495e-08
0.00192
1.74458e-08
0.00192
1.7442e-08
0.00192
1.74382e-08
0.00192
1.74344e-08
0.00192
1.74306e-08
0.00192
1.74268e-08
0.00192
1.74231e-08
0.00192
1.74193e-08
0.00192
1.74155e-08
0.00192
1.74118e-08
0.00192
1.7408e-08
0.00192
1.74044e-08
0.00192
1.74006e-08
0.00192
1.73971e-08
0.00192
1.73935e-08
0.00192
1.73902e-08
0.00192
1.73872e-08
0.00192
1.7384e-08
0.00192
1.73811e-08
0.00192
0.00192
4.70266e-09
0.00191999
6.38245e-09
0.00191999
8.22359e-09
0.00191999
9.90112e-09
0.00191999
1.1324e-08
0.00192
1.24133e-08
0.00192
1.32102e-08
0.00192
1.38219e-08
0.00192
1.43152e-08
0.00192
1.47238e-08
0.00192
1.50728e-08
0.00192
1.53793e-08
0.00192
1.56521e-08
0.00192
1.58965e-08
0.00192
1.6116e-08
0.00192
1.63138e-08
0.00192
1.64919e-08
0.00192
1.66522e-08
0.00192
1.67964e-08
0.00192
1.69258e-08
0.00192
1.70416e-08
0.00192
1.7145e-08
0.00192
1.7237e-08
0.00192
1.73184e-08
0.00192
1.73903e-08
0.00192
1.74533e-08
0.00192
1.75084e-08
0.00192
1.75561e-08
0.00192
1.75971e-08
0.00192
1.76322e-08
0.00192
1.76617e-08
0.00192
1.76863e-08
0.00192
1.77065e-08
0.00192
1.77227e-08
0.00192
1.77354e-08
0.00192
1.77449e-08
0.00192
1.77516e-08
0.00192
1.77558e-08
0.00192
1.77579e-08
0.00192
1.7758e-08
0.00192
1.77565e-08
0.00192
1.77536e-08
0.00192
1.77494e-08
0.00192
1.77442e-08
0.00192
1.77381e-08
0.00192
1.77313e-08
0.00192
1.77238e-08
0.00192
1.77159e-08
0.00192
1.77076e-08
0.00192
1.7699e-08
0.00192
1.76901e-08
0.00192
1.76812e-08
0.00192
1.76721e-08
0.00192
1.7663e-08
0.00192
1.76539e-08
0.00192
1.76448e-08
0.00192
1.76358e-08
0.00192
1.7627e-08
0.00192
1.76182e-08
0.00192
1.76096e-08
0.00192
1.76012e-08
0.00192
1.75929e-08
0.00192
1.75848e-08
0.00192
1.75769e-08
0.00192
1.75692e-08
0.00192
1.75617e-08
0.00192
1.75544e-08
0.00192
1.75473e-08
0.00192
1.75403e-08
0.00192
1.75336e-08
0.00192
1.7527e-08
0.00192
1.75206e-08
0.00192
1.75144e-08
0.00192
1.75084e-08
0.00192
1.75025e-08
0.00192
1.74968e-08
0.00192
1.74912e-08
0.00192
1.74858e-08
0.00192
1.74805e-08
0.00192
1.74754e-08
0.00192
1.74704e-08
0.00192
1.74655e-08
0.00192
1.74607e-08
0.00192
1.7456e-08
0.00192
1.74514e-08
0.00192
1.7447e-08
0.00192
1.74426e-08
0.00192
1.74383e-08
0.00192
1.74341e-08
0.00192
1.74299e-08
0.00192
1.74258e-08
0.00192
1.74218e-08
0.00192
1.74179e-08
0.00192
1.7414e-08
0.00192
1.74101e-08
0.00192
1.74064e-08
0.00192
1.74026e-08
0.00192
1.73989e-08
0.00192
1.73952e-08
0.00192
1.73916e-08
0.00192
1.7388e-08
0.00192
1.73844e-08
0.00192
1.73808e-08
0.00192
1.73773e-08
0.00192
1.73738e-08
0.00192
1.73703e-08
0.00192
1.73668e-08
0.00192
1.73633e-08
0.00192
1.73598e-08
0.00192
1.73563e-08
0.00192
1.73528e-08
0.00192
1.73493e-08
0.00192
1.73459e-08
0.00192
1.73424e-08
0.00192
1.73389e-08
0.00192
1.73354e-08
0.00192
1.73319e-08
0.00192
1.73283e-08
0.00192
1.73248e-08
0.00192
1.73212e-08
0.00192
1.73177e-08
0.00192
1.73141e-08
0.00192
1.73105e-08
0.00192
1.73068e-08
0.00192
1.73032e-08
0.00192
1.72995e-08
0.00192
1.72958e-08
0.00192
1.7292e-08
0.00192
1.72883e-08
0.00192
1.72845e-08
0.00192
1.72807e-08
0.00192
1.72769e-08
0.00192
1.72731e-08
0.00192
1.72692e-08
0.00192
1.72654e-08
0.00192
1.72615e-08
0.00192
1.72576e-08
0.00192
1.72537e-08
0.00192
1.72499e-08
0.00192
1.7246e-08
0.00192
1.72422e-08
0.00192
1.72384e-08
0.00192
1.72346e-08
0.00192
1.72308e-08
0.00192
1.72271e-08
0.00192
1.72236e-08
0.00192
1.722e-08
0.00192
1.72167e-08
0.00192
1.72136e-08
0.00192
1.72105e-08
0.00192
1.72073e-08
0.00192
0.00192
4.42233e-09
0.00191999
5.74834e-09
0.00191999
7.24537e-09
0.00191999
8.73261e-09
0.00191999
1.01214e-08
0.00191999
1.12897e-08
0.00192
1.22123e-08
0.00192
1.29461e-08
0.00192
1.35402e-08
0.00192
1.40281e-08
0.00192
1.44388e-08
0.00192
1.47935e-08
0.00192
1.51047e-08
0.00192
1.53801e-08
0.00192
1.56252e-08
0.00192
1.58442e-08
0.00192
1.60402e-08
0.00192
1.62158e-08
0.00192
1.63729e-08
0.00192
1.65133e-08
0.00192
1.66387e-08
0.00192
1.67502e-08
0.00192
1.68493e-08
0.00192
1.69368e-08
0.00192
1.7014e-08
0.00192
1.70816e-08
0.00192
1.71406e-08
0.00192
1.71918e-08
0.00192
1.72358e-08
0.00192
1.72734e-08
0.00192
1.73053e-08
0.00192
1.73318e-08
0.00192
1.73537e-08
0.00192
1.73715e-08
0.00192
1.73854e-08
0.00192
1.7396e-08
0.00192
1.74037e-08
0.00192
1.74088e-08
0.00192
1.74117e-08
0.00192
1.74125e-08
0.00192
1.74115e-08
0.00192
1.74091e-08
0.00192
1.74054e-08
0.00192
1.74006e-08
0.00192
1.73949e-08
0.00192
1.73884e-08
0.00192
1.73812e-08
0.00192
1.73736e-08
0.00192
1.73655e-08
0.00192
1.73571e-08
0.00192
1.73484e-08
0.00192
1.73396e-08
0.00192
1.73307e-08
0.00192
1.73217e-08
0.00192
1.73127e-08
0.00192
1.73038e-08
0.00192
1.72949e-08
0.00192
1.72862e-08
0.00192
1.72775e-08
0.00192
1.7269e-08
0.00192
1.72607e-08
0.00192
1.72525e-08
0.00192
1.72445e-08
0.00192
1.72367e-08
0.00192
1.7229e-08
0.00192
1.72216e-08
0.00192
1.72143e-08
0.00192
1.72073e-08
0.00192
1.72004e-08
0.00192
1.71937e-08
0.00192
1.71872e-08
0.00192
1.71808e-08
0.00192
1.71747e-08
0.00192
1.71687e-08
0.00192
1.71629e-08
0.00192
1.71572e-08
0.00192
1.71517e-08
0.00192
1.71463e-08
0.00192
1.71411e-08
0.00192
1.7136e-08
0.00192
1.7131e-08
0.00192
1.71262e-08
0.00192
1.71214e-08
0.00192
1.71168e-08
0.00192
1.71123e-08
0.00192
1.71078e-08
0.00192
1.71035e-08
0.00192
1.70992e-08
0.00192
1.7095e-08
0.00192
1.70909e-08
0.00192
1.70869e-08
0.00192
1.70829e-08
0.00192
1.7079e-08
0.00192
1.70751e-08
0.00192
1.70713e-08
0.00192
1.70676e-08
0.00192
1.70639e-08
0.00192
1.70602e-08
0.00192
1.70566e-08
0.00192
1.7053e-08
0.00192
1.70494e-08
0.00192
1.70458e-08
0.00192
1.70423e-08
0.00192
1.70388e-08
0.00192
1.70353e-08
0.00192
1.70318e-08
0.00192
1.70284e-08
0.00192
1.70249e-08
0.00192
1.70215e-08
0.00192
1.7018e-08
0.00192
1.70146e-08
0.00192
1.70112e-08
0.00192
1.70077e-08
0.00192
1.70043e-08
0.00192
1.70008e-08
0.00192
1.69973e-08
0.00192
1.69939e-08
0.00192
1.69904e-08
0.00192
1.69869e-08
0.00192
1.69833e-08
0.00192
1.69798e-08
0.00192
1.69762e-08
0.00192
1.69727e-08
0.00192
1.69691e-08
0.00192
1.69654e-08
0.00192
1.69618e-08
0.00192
1.69581e-08
0.00192
1.69544e-08
0.00192
1.69507e-08
0.00192
1.6947e-08
0.00192
1.69432e-08
0.00192
1.69394e-08
0.00192
1.69356e-08
0.00192
1.69318e-08
0.00192
1.6928e-08
0.00192
1.69242e-08
0.00192
1.69204e-08
0.00192
1.69165e-08
0.00192
1.69127e-08
0.00192
1.69089e-08
0.00192
1.69051e-08
0.00192
1.69014e-08
0.00192
1.68977e-08
0.00192
1.6894e-08
0.00192
1.68904e-08
0.00192
1.68869e-08
0.00192
1.68835e-08
0.00192
1.68804e-08
0.00192
1.68774e-08
0.00192
1.68743e-08
0.00192
1.68713e-08
0.00192
1.68684e-08
0.00192
0.00192
4.16768e-09
0.00191999
5.25132e-09
0.00191999
6.47893e-09
0.00191999
7.78042e-09
0.00191999
9.0895e-09
0.00191999
1.02746e-08
0.00191999
1.12687e-08
0.00192
1.20873e-08
0.00192
1.27597e-08
0.00192
1.33144e-08
0.00192
1.37797e-08
0.00192
1.41785e-08
0.00192
1.45255e-08
0.00192
1.48303e-08
0.00192
1.50997e-08
0.00192
1.53391e-08
0.00192
1.55524e-08
0.00192
1.57426e-08
0.00192
1.59122e-08
0.00192
1.60634e-08
0.00192
1.61979e-08
0.00192
1.63175e-08
0.00192
1.64234e-08
0.00192
1.65169e-08
0.00192
1.65992e-08
0.00192
1.66713e-08
0.00192
1.67342e-08
0.00192
1.67888e-08
0.00192
1.68358e-08
0.00192
1.6876e-08
0.00192
1.691e-08
0.00192
1.69386e-08
0.00192
1.69622e-08
0.00192
1.69814e-08
0.00192
1.69967e-08
0.00192
1.70084e-08
0.00192
1.70171e-08
0.00192
1.70231e-08
0.00192
1.70267e-08
0.00192
1.70282e-08
0.00192
1.70279e-08
0.00192
1.7026e-08
0.00192
1.70228e-08
0.00192
1.70185e-08
0.00192
1.70131e-08
0.00192
1.7007e-08
0.00192
1.70001e-08
0.00192
1.69927e-08
0.00192
1.69849e-08
0.00192
1.69768e-08
0.00192
1.69683e-08
0.00192
1.69597e-08
0.00192
1.6951e-08
0.00192
1.69422e-08
0.00192
1.69334e-08
0.00192
1.69246e-08
0.00192
1.69159e-08
0.00192
1.69073e-08
0.00192
1.68988e-08
0.00192
1.68904e-08
0.00192
1.68822e-08
0.00192
1.68741e-08
0.00192
1.68662e-08
0.00192
1.68585e-08
0.00192
1.68509e-08
0.00192
1.68436e-08
0.00192
1.68364e-08
0.00192
1.68295e-08
0.00192
1.68227e-08
0.00192
1.68161e-08
0.00192
1.68097e-08
0.00192
1.68034e-08
0.00192
1.67974e-08
0.00192
1.67915e-08
0.00192
1.67857e-08
0.00192
1.67801e-08
0.00192
1.67747e-08
0.00192
1.67694e-08
0.00192
1.67642e-08
0.00192
1.67592e-08
0.00192
1.67543e-08
0.00192
1.67495e-08
0.00192
1.67449e-08
0.00192
1.67403e-08
0.00192
1.67358e-08
0.00192
1.67315e-08
0.00192
1.67272e-08
0.00192
1.6723e-08
0.00192
1.67189e-08
0.00192
1.67149e-08
0.00192
1.67109e-08
0.00192
1.6707e-08
0.00192
1.67031e-08
0.00192
1.66994e-08
0.00192
1.66956e-08
0.00192
1.66919e-08
0.00192
1.66883e-08
0.00192
1.66847e-08
0.00192
1.66811e-08
0.00192
1.66776e-08
0.00192
1.66741e-08
0.00192
1.66706e-08
0.00192
1.66671e-08
0.00192
1.66637e-08
0.00192
1.66603e-08
0.00192
1.66569e-08
0.00192
1.66535e-08
0.00192
1.66501e-08
0.00192
1.66467e-08
0.00192
1.66433e-08
0.00192
1.66399e-08
0.00192
1.66366e-08
0.00192
1.66332e-08
0.00192
1.66298e-08
0.00192
1.66264e-08
0.00192
1.6623e-08
0.00192
1.66196e-08
0.00192
1.66162e-08
0.00192
1.66127e-08
0.00192
1.66093e-08
0.00192
1.66058e-08
0.00192
1.66023e-08
0.00192
1.65988e-08
0.00192
1.65953e-08
0.00192
1.65917e-08
0.00192
1.65881e-08
0.00192
1.65845e-08
0.00192
1.65809e-08
0.00192
1.65772e-08
0.00192
1.65736e-08
0.00192
1.65699e-08
0.00192
1.65662e-08
0.00192
1.65625e-08
0.00192
1.65587e-08
0.00192
1.6555e-08
0.00192
1.65512e-08
0.00192
1.65475e-08
0.00192
1.65437e-08
0.00192
1.654e-08
0.00192
1.65363e-08
0.00192
1.65326e-08
0.00192
1.65289e-08
0.00192
1.65253e-08
0.00192
1.65217e-08
0.00192
1.65182e-08
0.00192
1.65149e-08
0.00192
1.65117e-08
0.00192
1.65087e-08
0.00192
1.65058e-08
0.00192
1.65028e-08
0.00192
1.65e-08
0.00192
1.64973e-08
0.00192
1.64945e-08
0.00192
0.00192
3.93613e-09
0.00191999
4.85226e-09
0.00191999
5.88078e-09
0.00191999
7.02234e-09
0.00191999
8.23453e-09
0.00191999
9.39529e-09
0.00191999
1.04177e-08
0.00191999
1.12872e-08
0.00192
1.20152e-08
0.00192
1.26221e-08
0.00192
1.31333e-08
0.00192
1.35707e-08
0.00192
1.39498e-08
0.00192
1.42814e-08
0.00192
1.45735e-08
0.00192
1.4832e-08
0.00192
1.50615e-08
0.00192
1.52656e-08
0.00192
1.54471e-08
0.00192
1.56085e-08
0.00192
1.57519e-08
0.00192
1.5879e-08
0.00192
1.59915e-08
0.00192
1.60908e-08
0.00192
1.6178e-08
0.00192
1.62545e-08
0.00192
1.63211e-08
0.00192
1.6379e-08
0.00192
1.64288e-08
0.00192
1.64715e-08
0.00192
1.65077e-08
0.00192
1.65382e-08
0.00192
1.65634e-08
0.00192
1.65841e-08
0.00192
1.66006e-08
0.00192
1.66135e-08
0.00192
1.66232e-08
0.00192
1.66301e-08
0.00192
1.66345e-08
0.00192
1.66367e-08
0.00192
1.6637e-08
0.00192
1.66356e-08
0.00192
1.66329e-08
0.00192
1.6629e-08
0.00192
1.6624e-08
0.00192
1.66182e-08
0.00192
1.66117e-08
0.00192
1.66046e-08
0.00192
1.65971e-08
0.00192
1.65892e-08
0.00192
1.6581e-08
0.00192
1.65726e-08
0.00192
1.65641e-08
0.00192
1.65555e-08
0.00192
1.65468e-08
0.00192
1.65382e-08
0.00192
1.65297e-08
0.00192
1.65212e-08
0.00192
1.65128e-08
0.00192
1.65046e-08
0.00192
1.64965e-08
0.00192
1.64886e-08
0.00192
1.64808e-08
0.00192
1.64732e-08
0.00192
1.64658e-08
0.00192
1.64585e-08
0.00192
1.64515e-08
0.00192
1.64446e-08
0.00192
1.64379e-08
0.00192
1.64314e-08
0.00192
1.64251e-08
0.00192
1.6419e-08
0.00192
1.6413e-08
0.00192
1.64072e-08
0.00192
1.64015e-08
0.00192
1.6396e-08
0.00192
1.63907e-08
0.00192
1.63855e-08
0.00192
1.63804e-08
0.00192
1.63755e-08
0.00192
1.63707e-08
0.00192
1.6366e-08
0.00192
1.63614e-08
0.00192
1.63569e-08
0.00192
1.63525e-08
0.00192
1.63482e-08
0.00192
1.6344e-08
0.00192
1.63399e-08
0.00192
1.63359e-08
0.00192
1.63319e-08
0.00192
1.6328e-08
0.00192
1.63242e-08
0.00192
1.63204e-08
0.00192
1.63167e-08
0.00192
1.6313e-08
0.00192
1.63094e-08
0.00192
1.63058e-08
0.00192
1.63023e-08
0.00192
1.62988e-08
0.00192
1.62954e-08
0.00192
1.62919e-08
0.00192
1.62885e-08
0.00192
1.62851e-08
0.00192
1.62818e-08
0.00192
1.62784e-08
0.00192
1.62751e-08
0.00192
1.62717e-08
0.00192
1.62684e-08
0.00192
1.62651e-08
0.00192
1.62618e-08
0.00192
1.62585e-08
0.00192
1.62552e-08
0.00192
1.62519e-08
0.00192
1.62486e-08
0.00192
1.62453e-08
0.00192
1.62419e-08
0.00192
1.62386e-08
0.00192
1.62352e-08
0.00192
1.62319e-08
0.00192
1.62285e-08
0.00192
1.62251e-08
0.00192
1.62217e-08
0.00192
1.62182e-08
0.00192
1.62148e-08
0.00192
1.62113e-08
0.00192
1.62078e-08
0.00192
1.62042e-08
0.00192
1.62007e-08
0.00192
1.61971e-08
0.00192
1.61935e-08
0.00192
1.61899e-08
0.00192
1.61863e-08
0.00192
1.61827e-08
0.00192
1.6179e-08
0.00192
1.61753e-08
0.00192
1.61717e-08
0.00192
1.6168e-08
0.00192
1.61643e-08
0.00192
1.61607e-08
0.00192
1.6157e-08
0.00192
1.61534e-08
0.00192
1.61499e-08
0.00192
1.61463e-08
0.00192
1.61429e-08
0.00192
1.61396e-08
0.00192
1.61364e-08
0.00192
1.61333e-08
0.00192
1.61304e-08
0.00192
1.61277e-08
0.00192
1.61248e-08
0.00192
1.61222e-08
0.00192
1.61196e-08
0.00192
1.61167e-08
0.00192
0.00192
3.72666e-09
0.00191999
4.52411e-09
0.00191999
5.40654e-09
0.00191999
6.41517e-09
0.00191999
7.52744e-09
0.00191999
8.63934e-09
0.00191999
9.65897e-09
0.00191999
1.0552e-08
0.00192
1.13153e-08
0.00192
1.19607e-08
0.00192
1.25085e-08
0.00192
1.29783e-08
0.00192
1.33856e-08
0.00192
1.37412e-08
0.00192
1.40539e-08
0.00192
1.433e-08
0.00192
1.45745e-08
0.00192
1.47915e-08
0.00192
1.49842e-08
0.00192
1.51552e-08
0.00192
1.53069e-08
0.00192
1.54413e-08
0.00192
1.556e-08
0.00192
1.56647e-08
0.00192
1.57567e-08
0.00192
1.58373e-08
0.00192
1.59076e-08
0.00192
1.59685e-08
0.00192
1.60211e-08
0.00192
1.60662e-08
0.00192
1.61045e-08
0.00192
1.61367e-08
0.00192
1.61636e-08
0.00192
1.61857e-08
0.00192
1.62035e-08
0.00192
1.62174e-08
0.00192
1.62281e-08
0.00192
1.62358e-08
0.00192
1.62409e-08
0.00192
1.62438e-08
0.00192
1.62447e-08
0.00192
1.62439e-08
0.00192
1.62417e-08
0.00192
1.62382e-08
0.00192
1.62336e-08
0.00192
1.62282e-08
0.00192
1.6222e-08
0.00192
1.62152e-08
0.00192
1.62079e-08
0.00192
1.62003e-08
0.00192
1.61923e-08
0.00192
1.61842e-08
0.00192
1.61758e-08
0.00192
1.61674e-08
0.00192
1.6159e-08
0.00192
1.61506e-08
0.00192
1.61422e-08
0.00192
1.61338e-08
0.00192
1.61256e-08
0.00192
1.61175e-08
0.00192
1.61096e-08
0.00192
1.61018e-08
0.00192
1.60941e-08
0.00192
1.60866e-08
0.00192
1.60793e-08
0.00192
1.60722e-08
0.00192
1.60653e-08
0.00192
1.60585e-08
0.00192
1.6052e-08
0.00192
1.60456e-08
0.00192
1.60394e-08
0.00192
1.60333e-08
0.00192
1.60274e-08
0.00192
1.60217e-08
0.00192
1.60162e-08
0.00192
1.60108e-08
0.00192
1.60055e-08
0.00192
1.60004e-08
0.00192
1.59954e-08
0.00192
1.59905e-08
0.00192
1.59858e-08
0.00192
1.59812e-08
0.00192
1.59767e-08
0.00192
1.59723e-08
0.00192
1.5968e-08
0.00192
1.59638e-08
0.00192
1.59597e-08
0.00192
1.59556e-08
0.00192
1.59517e-08
0.00192
1.59478e-08
0.00192
1.5944e-08
0.00192
1.59402e-08
0.00192
1.59365e-08
0.00192
1.59329e-08
0.00192
1.59293e-08
0.00192
1.59258e-08
0.00192
1.59223e-08
0.00192
1.59188e-08
0.00192
1.59154e-08
0.00192
1.5912e-08
0.00192
1.59086e-08
0.00192
1.59053e-08
0.00192
1.5902e-08
0.00192
1.58987e-08
0.00192
1.58954e-08
0.00192
1.58922e-08
0.00192
1.58889e-08
0.00192
1.58857e-08
0.00192
1.58824e-08
0.00192
1.58792e-08
0.00192
1.5876e-08
0.00192
1.58727e-08
0.00192
1.58695e-08
0.00192
1.58663e-08
0.00192
1.5863e-08
0.00192
1.58598e-08
0.00192
1.58565e-08
0.00192
1.58532e-08
0.00192
1.58499e-08
0.00192
1.58466e-08
0.00192
1.58433e-08
0.00192
1.58399e-08
0.00192
1.58366e-08
0.00192
1.58332e-08
0.00192
1.58298e-08
0.00192
1.58264e-08
0.00192
1.58229e-08
0.00192
1.58194e-08
0.00192
1.58159e-08
0.00192
1.58124e-08
0.00192
1.58089e-08
0.00192
1.58053e-08
0.00192
1.58018e-08
0.00192
1.57982e-08
0.00192
1.57946e-08
0.00192
1.5791e-08
0.00192
1.57874e-08
0.00192
1.57838e-08
0.00192
1.57803e-08
0.00192
1.57767e-08
0.00192
1.57732e-08
0.00192
1.57698e-08
0.00192
1.57663e-08
0.00192
1.5763e-08
0.00192
1.57598e-08
0.00192
1.57567e-08
0.00192
1.57538e-08
0.00192
1.5751e-08
0.00192
1.57484e-08
0.00192
1.57457e-08
0.00192
1.57432e-08
0.00192
1.57407e-08
0.00192
1.5738e-08
0.00192
1.57354e-08
0.00192
0.00192
3.53768e-09
0.00191999
4.24849e-09
0.00191998
5.02243e-09
0.00191999
5.92124e-09
0.00191999
6.93753e-09
0.00191999
7.98748e-09
0.00191999
8.98325e-09
0.00191999
9.87928e-09
0.00191999
1.06611e-08
0.00192
1.13325e-08
0.00192
1.19079e-08
0.00192
1.24041e-08
0.00192
1.28351e-08
0.00192
1.32118e-08
0.00192
1.35427e-08
0.00192
1.38347e-08
0.00192
1.4093e-08
0.00192
1.43219e-08
0.00192
1.45249e-08
0.00192
1.47049e-08
0.00192
1.48644e-08
0.00192
1.50056e-08
0.00192
1.51302e-08
0.00192
1.524e-08
0.00192
1.53365e-08
0.00192
1.5421e-08
0.00192
1.54946e-08
0.00192
1.55585e-08
0.00192
1.56137e-08
0.00192
1.56611e-08
0.00192
1.57014e-08
0.00192
1.57354e-08
0.00192
1.57638e-08
0.00192
1.57872e-08
0.00192
1.58061e-08
0.00192
1.58212e-08
0.00192
1.58328e-08
0.00192
1.58413e-08
0.00192
1.58471e-08
0.00192
1.58507e-08
0.00192
1.58521e-08
0.00192
1.58519e-08
0.00192
1.58501e-08
0.00192
1.5847e-08
0.00192
1.58429e-08
0.00192
1.58378e-08
0.00192
1.58319e-08
0.00192
1.58255e-08
0.00192
1.58185e-08
0.00192
1.58111e-08
0.00192
1.58034e-08
0.00192
1.57954e-08
0.00192
1.57873e-08
0.00192
1.57791e-08
0.00192
1.57709e-08
0.00192
1.57626e-08
0.00192
1.57544e-08
0.00192
1.57462e-08
0.00192
1.57381e-08
0.00192
1.57302e-08
0.00192
1.57224e-08
0.00192
1.57147e-08
0.00192
1.57072e-08
0.00192
1.56999e-08
0.00192
1.56927e-08
0.00192
1.56857e-08
0.00192
1.56789e-08
0.00192
1.56722e-08
0.00192
1.56658e-08
0.00192
1.56595e-08
0.00192
1.56534e-08
0.00192
1.56474e-08
0.00192
1.56417e-08
0.00192
1.5636e-08
0.00192
1.56306e-08
0.00192
1.56253e-08
0.00192
1.56201e-08
0.00192
1.56151e-08
0.00192
1.56102e-08
0.00192
1.56054e-08
0.00192
1.56008e-08
0.00192
1.55963e-08
0.00192
1.55918e-08
0.00192
1.55875e-08
0.00192
1.55833e-08
0.00192
1.55792e-08
0.00192
1.55751e-08
0.00192
1.55712e-08
0.00192
1.55673e-08
0.00192
1.55635e-08
0.00192