/*--------------------------------*- C++ -*----------------------------------*\
| =========                 |                                                 |
| \\      /  F ield         | OpenFOAM: The Open Source CFD Toolbox           |
|  \\    /   O peration     | Version:  2512                                  |
|   \\  /    A nd           | Website:  www.openfoam.com                      |
|    \\/     M anipulation  |                                                 |
\*---------------------------------------------------------------------------*/
FoamFile
{
    version     2.0;
    format      ascii;
    arch        "LSB;label=32;scalar=64";
    class       volVectorField;
    location    "0.1";
    object      U;
}
// * * * * * * * * * * * * * * * * * * * * * * * * * * * * * * * * * * * * * //

dimensions      [0 1 -1 0 0 0 0];

internalField   nonuniform List<vector> 
8333
(
(0.050225 0.00351778 1.2905e-20)
(0.040385 0.00253184 6.44782e-21)
(0.0282397 0.00122874 2.26459e-20)
(0.0221272 0.000344447 5.67478e-20)
(0.0195993 3.91032e-05 1.1883e-19)
(0.0185481 -2.82936e-05 -1.3432e-19)
(0.0182271 -4.17217e-05 -2.02365e-19)
(0.0181959 -3.1055e-05 -4.07184e-19)
(0.0182142 -1.57501e-05 -5.66722e-19)
(0.0182082 -9.29368e-06 -5.52509e-19)
(0.0181925 -8.88654e-06 -3.67297e-19)
(0.0181831 -8.79915e-06 -2.77393e-19)
(0.0181802 -8.32887e-06 1.2664e-19)
(0.0181813 -8.03562e-06 -5.33302e-19)
(0.0181858 -7.96257e-06 1.23585e-18)
(0.0181935 -7.9836e-06 -2.40949e-18)
(0.0182039 -8.05714e-06 5.20033e-18)
(0.0182166 -8.07228e-06 -1.47967e-17)
(0.0182311 -7.81032e-06 -5.00025e-18)
(0.0182471 -7.6533e-06 -5.92985e-18)
(0.0182642 -7.54374e-06 3.2821e-18)
(0.0182824 -7.43348e-06 -1.49047e-17)
(0.0183014 -7.40334e-06 -5.43715e-18)
(0.0183211 -7.38916e-06 -6.07092e-18)
(0.0183414 -7.3808e-06 2.96077e-18)
(0.0183622 -7.37804e-06 -1.44855e-17)
(0.0183833 -7.37871e-06 -6.60082e-18)
(0.0184048 -7.38133e-06 -3.63563e-18)
(0.0184265 -7.38431e-06 -1.92295e-18)
(0.0184485 -7.38694e-06 -9.80149e-19)
(0.0184706 -7.38894e-06 -1.70436e-19)
(0.0184929 -7.39025e-06 -6.24391e-19)
(0.0185153 -7.39108e-06 1.17473e-18)
(0.0185378 -7.39149e-06 -2.38401e-18)
(0.0185604 -7.3915e-06 5.00588e-18)
(0.018583 -7.39123e-06 -1.36526e-17)
(0.0186058 -7.39076e-06 -6.21491e-18)
(0.0186285 -7.39009e-06 -3.50889e-18)
(0.0186513 -7.38928e-06 -1.80526e-18)
(0.0186742 -7.38836e-06 -1.00337e-18)
(0.018697 -7.38735e-06 -2.02447e-19)
(0.0187199 -7.38627e-06 -1.5701e-19)
(0.0187428 -7.38514e-06 -6.09282e-20)
(0.0187657 -7.38398e-06 1.14468e-19)
(0.0187886 -7.38279e-06 2.44328e-19)
(0.0188115 -7.38153e-06 1.95793e-19)
(0.0188344 -7.38025e-06 2.43356e-19)
(0.0188573 -7.37896e-06 -6.22841e-21)
(0.0188803 -7.37763e-06 2.16334e-19)
(0.0189032 -7.37625e-06 -6.20011e-21)
(0.0189261 -7.37485e-06 -1.21672e-20)
(0.018949 -7.37343e-06 1.02246e-19)
(0.018972 -7.37197e-06 3.01769e-19)
(0.0189949 -7.37048e-06 -2.18359e-21)
(0.0190178 -7.36897e-06 7.41808e-19)
(0.0190407 -7.36744e-06 -1.19647e-18)
(0.0190636 -7.36588e-06 2.6569e-18)
(0.0190865 -7.36428e-06 -5.08218e-18)
(0.0191094 -7.36265e-06 1.38479e-17)
(0.0191323 -7.361e-06 6.54661e-18)
(0.0191552 -7.35932e-06 3.80757e-18)
(0.019178 -7.35761e-06 2.16153e-18)
(0.0192009 -7.35586e-06 1.09556e-18)
(0.0192238 -7.35408e-06 5.04405e-19)
(0.0192466 -7.35226e-06 2.0642e-19)
(0.0192694 -7.35043e-06 1.3892e-19)
(0.0192923 -7.34856e-06 -2.92656e-21)
(0.0193151 -7.34666e-06 1.76612e-19)
(0.0193379 -7.34474e-06 -8.19387e-20)
(0.0193607 -7.3428e-06 1.25398e-19)
(0.0193836 -7.34082e-06 1.2879e-19)
(0.0194063 -7.33881e-06 -2.06896e-20)
(0.0194291 -7.33679e-06 -1.2265e-19)
(0.0194519 -7.33473e-06 -1.16042e-19)
(0.0194747 -7.33264e-06 -5.54387e-20)
(0.0194974 -7.33051e-06 1.89999e-21)
(0.0195202 -7.32835e-06 3.70874e-20)
(0.0195429 -7.32618e-06 5.16552e-20)
(0.0195657 -7.32397e-06 6.27031e-20)
(0.0195884 -7.32172e-06 4.84087e-20)
(0.0196111 -7.31944e-06 9.32218e-20)
(0.0196338 -7.31714e-06 -8.65549e-21)
(0.0196565 -7.31482e-06 1.836e-19)
(0.0196792 -7.31246e-06 -7.9668e-20)
(0.0197018 -7.31007e-06 1.39285e-19)
(0.0197245 -7.30766e-06 1.36517e-19)
(0.0197472 -7.30522e-06 -2.22596e-20)
(0.0197698 -7.30273e-06 -1.24937e-19)
(0.0197924 -7.30022e-06 -1.14529e-19)
(0.019815 -7.2977e-06 -5.1452e-20)
(0.0198376 -7.29513e-06 6.32008e-21)
(0.0198602 -7.29252e-06 4.02661e-20)
(0.0198828 -7.2899e-06 5.58111e-20)
(0.0199054 -7.28724e-06 5.97365e-20)
(0.019928 -7.28457e-06 6.59231e-20)
(0.0199505 -7.28186e-06 5.02972e-20)
(0.019973 -7.27912e-06 9.36324e-20)
(0.0199956 -7.27635e-06 -7.10419e-21)
(0.0200181 -7.27355e-06 1.83936e-19)
(0.0200406 -7.27071e-06 -7.97506e-20)
(0.0200631 -7.26786e-06 1.41252e-19)
(0.0200855 -7.26495e-06 1.37202e-19)
(0.020108 -7.26201e-06 -2.39554e-20)
(0.0201304 -7.25904e-06 -1.26443e-19)
(0.0201529 -7.25604e-06 -1.14964e-19)
(0.0201753 -7.25301e-06 -5.14073e-20)
(0.0201977 -7.24994e-06 6.2662e-21)
(0.0202201 -7.24683e-06 3.99786e-20)
(0.0202425 -7.2437e-06 5.46417e-20)
(0.0202648 -7.24053e-06 5.92453e-20)
(0.0202872 -7.23733e-06 6.00393e-20)
(0.0203095 -7.23411e-06 5.91226e-20)
(0.0203318 -7.23084e-06 5.87448e-20)
(0.0203541 -7.22752e-06 5.64628e-20)
(0.0203764 -7.22417e-06 5.79733e-20)
(0.0203987 -7.22077e-06 5.25961e-20)
(0.020421 -7.21733e-06 5.34515e-20)
(0.0204432 -7.21386e-06 4.78577e-20)
(0.0204654 -7.21033e-06 3.81233e-20)
(0.0204876 -7.20676e-06 3.1575e-20)
(0.0205098 -7.20315e-06 3.15959e-20)
(0.020532 -7.19949e-06 3.65571e-20)
(0.0205542 -7.19581e-06 4.25727e-20)
(0.0205763 -7.19206e-06 4.761e-20)
(0.0205985 -7.18825e-06 5.10796e-20)
(0.0206206 -7.18438e-06 5.32788e-20)
(0.0206427 -7.18045e-06 5.46955e-20)
(0.0206647 -7.17644e-06 5.55507e-20)
(0.0206868 -7.17235e-06 5.59133e-20)
(0.0207088 -7.16814e-06 5.61983e-20)
(0.0207308 -7.16384e-06 5.65863e-20)
(0.0207528 -7.1594e-06 5.56208e-20)
(0.0207748 -7.15481e-06 6.04036e-20)
(0.0207967 -7.15003e-06 4.08387e-20)
(0.0208187 -7.14505e-06 1.10885e-19)
(0.0208406 -7.13975e-06 -1.17946e-19)
(0.0208624 -7.13418e-06 5.35057e-19)
(0.0208843 -7.12809e-06 -1.10159e-18)
(0.0209061 -7.12161e-06 2.51508e-18)
(0.0209279 -7.11438e-06 -5.11317e-18)
(0.0209496 -7.10534e-06 1.41774e-17)
(0.0209713 -7.09875e-06 6.59087e-18)
(0.0209929 -7.07669e-06 3.66363e-18)
(0.0210145 -7.08868e-06 1.96946e-18)
(0.0210357 -7.00616e-06 9.50998e-19)
(0.0210577 -7.09692e-06 4.20443e-19)
(0.0210773 -6.85893e-06 1.8625e-19)
(0.0211002 -6.98626e-06 9.72557e-20)
(0.0211159 -5.74176e-06 6.76303e-20)
(0.0595082 0.00566274 7.34773e-20)
(0.0614265 0.00607081 -1.64566e-20)
(0.0561191 0.00490906 -2.97575e-21)
(0.0510806 0.00273516 6.66422e-21)
(0.0479467 0.00120566 4.32432e-19)
(0.0460524 0.00047511 -6.05125e-19)
(0.0450238 0.000135861 -9.35765e-19)
(0.0445459 1.83159e-05 -1.81046e-18)
(0.0443202 8.58988e-06 -2.53758e-18)
(0.0441687 1.40772e-05 -2.65484e-18)
(0.0440499 1.04272e-05 -1.92638e-18)
(0.0439629 5.3434e-06 -1.6317e-18)
(0.0439009 1.99689e-06 3.28045e-19)
(0.0438557 -6.35619e-07 -2.38977e-18)
(0.0438231 -2.99721e-06 4.0747e-18)
(0.0438005 -4.9545e-06 -6.6492e-18)
(0.043786 -6.49712e-06 9.79554e-18)
(0.0437781 -7.80524e-06 -1.4042e-17)
(0.0437751 -9.14805e-06 -5.84028e-18)
(0.043776 -1.01845e-05 -1.50379e-17)
(0.0437803 -1.09723e-05 4.09229e-18)
(0.0437873 -1.18463e-05 -1.72042e-17)
(0.0437965 -1.24527e-05 -7.88067e-18)
(0.0438076 -1.29237e-05 -1.56206e-17)
(0.0438201 -1.33001e-05 2.72077e-18)
(0.0438339 -1.36042e-05 -1.50062e-17)
(0.0438487 -1.38526e-05 -1.19232e-17)
(0.0438643 -1.40565e-05 -9.16924e-18)
(0.0438806 -1.42238e-05 -6.02954e-18)
(0.0438975 -1.4362e-05 -3.82683e-18)
(0.0439149 -1.44768e-05 -7.49106e-19)
(0.0439326 -1.45719e-05 -2.75072e-18)
(0.0439507 -1.46509e-05 3.82191e-18)
(0.0439691 -1.47165e-05 -6.499e-18)
(0.0439876 -1.47709e-05 9.05544e-18)
(0.0440064 -1.4816e-05 -1.17909e-17)
(0.0440253 -1.48534e-05 -1.02023e-17)
(0.0440444 -1.48844e-05 -8.60539e-18)
(0.0440635 -1.49101e-05 -5.43564e-18)
(0.0440827 -1.49313e-05 -3.94896e-18)
(0.0441021 -1.49488e-05 -1.00073e-18)
(0.0441214 -1.49633e-05 -8.29986e-19)
(0.0441408 -1.49752e-05 -4.38594e-19)
(0.0441603 -1.49849e-05 2.15488e-19)
(0.0441798 -1.49928e-05 8.90679e-19)
(0.0441993 -1.49991e-05 7.05589e-19)
(0.0442188 -1.50043e-05 1.10725e-18)
(0.0442384 -1.50084e-05 -1.49793e-19)
(0.0442579 -1.50116e-05 8.40752e-19)
(0.0442775 -1.50141e-05 -6.94484e-20)
(0.0442971 -1.5016e-05 -1.36515e-19)
(0.0443167 -1.50173e-05 1.79397e-19)
(0.0443363 -1.50182e-05 1.23073e-18)
(0.0443559 -1.50187e-05 -2.00382e-19)
(0.0443755 -1.50188e-05 3.16544e-18)
(0.044395 -1.50187e-05 -4.20745e-18)
(0.0444146 -1.50184e-05 7.41755e-18)
(0.0444342 -1.50178e-05 -9.29351e-18)
(0.0444538 -1.50171e-05 1.16692e-17)
(0.0444734 -1.50162e-05 1.09593e-17)
(0.0444929 -1.50151e-05 9.45215e-18)
(0.0445125 -1.5014e-05 6.87116e-18)
(0.0445321 -1.50127e-05 4.11616e-18)
(0.0445516 -1.50114e-05 2.12392e-18)
(0.0445712 -1.50099e-05 8.50269e-19)
(0.0445907 -1.50084e-05 5.96047e-19)
(0.0446102 -1.50068e-05 -2.08046e-19)
(0.0446298 -1.50051e-05 7.00307e-19)
(0.0446493 -1.50034e-05 -4.93479e-19)
(0.0446688 -1.50015e-05 3.07525e-19)
(0.0446883 -1.49997e-05 3.7766e-19)
(0.0447078 -1.49977e-05 -1.47895e-19)
(0.0447273 -1.49958e-05 -6.43346e-19)
(0.0447468 -1.49937e-05 -7.28733e-19)
(0.0447662 -1.49917e-05 -5.15423e-19)
(0.0447857 -1.49896e-05 -2.51309e-19)
(0.0448051 -1.49874e-05 -6.11759e-20)
(0.0448246 -1.49852e-05 2.53622e-20)
(0.044844 -1.4983e-05 1.05065e-19)
(0.0448634 -1.49807e-05 8.60253e-21)
(0.0448828 -1.49784e-05 2.93886e-19)
(0.0449023 -1.4976e-05 -2.9661e-19)
(0.0449216 -1.49736e-05 7.00675e-19)
(0.044941 -1.49711e-05 -5.17985e-19)
(0.0449604 -1.49686e-05 3.42892e-19)
(0.0449798 -1.49661e-05 4.04296e-19)
(0.0449991 -1.49635e-05 -1.65832e-19)
(0.0450185 -1.49609e-05 -6.74111e-19)
(0.0450378 -1.49583e-05 -7.43551e-19)
(0.0450571 -1.49557e-05 -5.13833e-19)
(0.0450764 -1.4953e-05 -2.41894e-19)
(0.0450957 -1.49502e-05 -5.5887e-20)
(0.045115 -1.49474e-05 4.30674e-20)
(0.0451343 -1.49446e-05 7.18942e-20)
(0.0451535 -1.49417e-05 1.22234e-19)
(0.0451728 -1.49388e-05 1.72944e-20)
(0.045192 -1.49359e-05 2.93489e-19)
(0.0452112 -1.49329e-05 -2.91319e-19)
(0.0452304 -1.49299e-05 7.01079e-19)
(0.0452496 -1.49268e-05 -5.21055e-19)
(0.0452688 -1.49237e-05 3.48429e-19)
(0.045288 -1.49206e-05 4.11761e-19)
(0.0453072 -1.49174e-05 -1.70604e-19)
(0.0453263 -1.49142e-05 -6.80424e-19)
(0.0453454 -1.49109e-05 -7.44484e-19)
(0.0453646 -1.49076e-05 -5.11052e-19)
(0.0453837 -1.49042e-05 -2.38912e-19)
(0.0454028 -1.49008e-05 -5.33066e-20)
(0.0454218 -1.48973e-05 4.0994e-20)
(0.0454409 -1.48938e-05 7.88131e-20)
(0.04546 -1.48902e-05 9.18963e-20)
(0.045479 -1.48865e-05 9.30671e-20)
(0.045498 -1.48828e-05 9.55664e-20)
(0.045517 -1.4879e-05 8.80693e-20)
(0.045536 -1.48752e-05 9.68156e-20)
(0.045555 -1.48713e-05 8.38638e-20)
(0.045574 -1.48673e-05 8.5974e-20)
(0.0455929 -1.48632e-05 8.5299e-20)
(0.0456118 -1.48591e-05 7.09427e-20)
(0.0456308 -1.48549e-05 5.36188e-20)
(0.0456497 -1.48505e-05 4.65306e-20)
(0.0456685 -1.48461e-05 5.20295e-20)
(0.0456874 -1.48415e-05 6.24395e-20)
(0.0457063 -1.48368e-05 7.22686e-20)
(0.0457251 -1.48319e-05 7.92713e-20)
(0.0457439 -1.48269e-05 8.36021e-20)
(0.0457627 -1.48217e-05 8.64341e-20)
(0.0457815 -1.48163e-05 8.82489e-20)
(0.0458003 -1.48107e-05 8.88747e-20)
(0.045819 -1.48048e-05 8.91931e-20)
(0.0458377 -1.47986e-05 9.12534e-20)
(0.0458564 -1.4792e-05 8.36087e-20)
(0.0458751 -1.4785e-05 1.15974e-19)
(0.0458938 -1.47775e-05 -2.64223e-21)
(0.0459124 -1.47693e-05 3.85537e-19)
(0.0459311 -1.47602e-05 -7.37411e-19)
(0.0459497 -1.47502e-05 2.06614e-18)
(0.0459682 -1.47386e-05 -3.89009e-18)
(0.0459868 -1.47257e-05 6.70726e-18)
(0.0460053 -1.47099e-05 -9.23034e-18)
(0.0460238 -1.46909e-05 1.22662e-17)
(0.0460422 -1.46711e-05 1.08454e-17)
(0.0460605 -1.46319e-05 8.79342e-18)
(0.0460792 -1.46247e-05 5.99852e-18)
(0.0460966 -1.44908e-05 3.40105e-18)
(0.0461166 -1.46099e-05 1.64589e-18)
(0.0461312 -1.40244e-05 7.16059e-19)
(0.0461545 -1.45701e-05 3.09445e-19)
(0.0461644 -1.15965e-05 1.57744e-19)
(0.04619 -9.50335e-06 1.08004e-19)
(0.0597658 0.00368564 4.10853e-19)
(0.0647143 0.00520107 -3.55033e-19)
(0.0648194 0.00512542 1.69978e-19)
(0.0631021 0.00350085 -3.14328e-19)
(0.0613264 0.00193914 2.50563e-19)
(0.059677 0.00100924 -3.05793e-18)
(0.0583721 0.000475805 -3.92323e-18)
(0.057538 0.000221241 -6.92505e-18)
(0.0570537 0.000135235 -8.08727e-18)
(0.0567406 0.000100787 -7.69782e-18)
(0.0565187 7.36218e-05 -5.64621e-18)
(0.0563618 5.30643e-05 -4.22999e-18)
(0.0562497 3.91342e-05 -6.64388e-19)
(0.0561668 2.88908e-05 -3.32159e-18)
(0.0561046 2.08356e-05 3.79341e-18)
(0.0560582 1.45569e-05 -5.54952e-18)
(0.0560239 9.71408e-06 6.93714e-18)
(0.0559988 5.73532e-06 -9.58834e-18)
(0.0559812 2.07068e-06 -2.00959e-18)
(0.0559696 -9.32411e-07 -1.18996e-17)
(0.0559626 -3.34277e-06 1.8521e-18)
(0.0559594 -5.0403e-06 -1.34795e-17)
(0.0559595 -6.4683e-06 -4.68462e-18)
(0.0559621 -7.69659e-06 -1.26378e-17)
(0.0559668 -8.72622e-06 -6.84491e-20)
(0.0559731 -9.57707e-06 -1.1392e-17)
(0.0559809 -1.02839e-05 -8.55642e-18)
(0.0559898 -1.08723e-05 -7.49541e-18)
(0.0559997 -1.136e-05 -5.67908e-18)
(0.0560104 -1.17648e-05 -4.34017e-18)
(0.0560217 -1.21008e-05 -8.67542e-19)
(0.0560336 -1.23796e-05 -3.32141e-18)
(0.056046 -1.26113e-05 3.5808e-18)
(0.0560587 -1.2804e-05 -5.2786e-18)
(0.0560717 -1.29642e-05 6.03938e-18)
(0.056085 -1.30975e-05 -7.71811e-18)
(0.0560985 -1.32085e-05 -6.31148e-18)
(0.0561121 -1.33009e-05 -7.04438e-18)
(0.0561259 -1.3378e-05 -4.24229e-18)
(0.0561399 -1.34424e-05 -5.31523e-18)
(0.0561539 -1.34961e-05 -1.18833e-19)
(0.056168 -1.3541e-05 -2.10195e-18)
(0.0561822 -1.35786e-05 -7.66258e-20)
(0.0561965 -1.36101e-05 1.25502e-18)
(0.0562108 -1.36366e-05 2.60752e-18)
(0.0562251 -1.36588e-05 1.81791e-18)
(0.0562395 -1.36775e-05 2.98301e-18)
(0.0562539 -1.36933e-05 -5.4593e-19)
(0.0562683 -1.37066e-05 2.43651e-18)
(0.0562827 -1.3718e-05 -9.25756e-19)
(0.0562971 -1.37276e-05 4.55357e-19)
(0.0563116 -1.37357e-05 1.20696e-18)
(0.056326 -1.37427e-05 3.11067e-18)
(0.0563405 -1.37486e-05 6.18572e-19)
(0.056355 -1.37538e-05 5.34562e-18)
(0.0563694 -1.37582e-05 -4.51896e-18)
(0.0563839 -1.37621e-05 7.70528e-18)
(0.0563983 -1.37655e-05 -6.92373e-18)
(0.0564128 -1.37684e-05 7.54248e-18)
(0.0564272 -1.3771e-05 8.23102e-18)
(0.0564417 -1.37732e-05 9.0219e-18)
(0.0564561 -1.37753e-05 7.9857e-18)
(0.0564706 -1.37771e-05 5.53631e-18)
(0.056485 -1.37787e-05 3.28026e-18)
(0.0564994 -1.37802e-05 1.29848e-18)
(0.0565138 -1.37815e-05 1.28751e-18)
(0.0565283 -1.37827e-05 -8.03181e-19)
(0.0565427 -1.37838e-05 1.84801e-18)
(0.0565571 -1.37848e-05 -1.68489e-18)
(0.0565714 -1.37858e-05 1.3407e-18)
(0.0565858 -1.37866e-05 -2.76343e-20)
(0.0566002 -1.37875e-05 -1.22829e-18)
(0.0566146 -1.37883e-05 -2.119e-18)
(0.0566289 -1.3789e-05 -2.16783e-18)
(0.0566433 -1.37897e-05 -1.5776e-18)
(0.0566576 -1.37904e-05 -8.73472e-19)
(0.0566719 -1.3791e-05 -3.46751e-19)
(0.0566863 -1.37916e-05 -1.02718e-19)
(0.0567006 -1.37922e-05 1.49099e-19)
(0.0567149 -1.37928e-05 -1.50955e-19)
(0.0567292 -1.37933e-05 7.0906e-19)
(0.0567435 -1.37939e-05 -1.00956e-18)
(0.0567577 -1.37943e-05 1.85189e-18)
(0.056772 -1.37948e-05 -1.78235e-18)
(0.0567862 -1.37953e-05 1.41591e-18)
(0.0568005 -1.37958e-05 3.00429e-20)
(0.0568147 -1.37962e-05 -1.29115e-18)
(0.0568289 -1.37967e-05 -2.22656e-18)
(0.0568431 -1.37971e-05 -2.23567e-18)
(0.0568573 -1.37975e-05 -1.59593e-18)
(0.0568715 -1.3798e-05 -8.61824e-19)
(0.0568857 -1.37984e-05 -3.4431e-19)
(0.0568999 -1.37987e-05 -5.2913e-20)
(0.056914 -1.37991e-05 3.35397e-20)
(0.0569282 -1.37995e-05 1.99808e-19)
(0.0569423 -1.37998e-05 -1.25382e-19)
(0.0569564 -1.38002e-05 7.06082e-19)
(0.0569705 -1.38005e-05 -9.9575e-19)
(0.0569846 -1.38008e-05 1.85014e-18)
(0.0569987 -1.38011e-05 -1.78687e-18)
(0.0570127 -1.38014e-05 1.41029e-18)
(0.0570268 -1.38017e-05 8.23234e-20)
(0.0570408 -1.38019e-05 -1.28242e-18)
(0.0570549 -1.38022e-05 -2.2359e-18)
(0.0570689 -1.38024e-05 -2.23473e-18)
(0.0570829 -1.38025e-05 -1.58539e-18)
(0.0570969 -1.38027e-05 -8.50765e-19)
(0.0571108 -1.38028e-05 -3.33345e-19)
(0.0571248 -1.38029e-05 -5.65988e-20)
(0.0571387 -1.38029e-05 6.17447e-20)
(0.0571527 -1.3803e-05 1.08861e-19)
(0.0571666 -1.3803e-05 1.15403e-19)
(0.0571805 -1.38029e-05 1.315e-19)
(0.0571944 -1.38028e-05 1.05054e-19)
(0.0572083 -1.38027e-05 1.40309e-19)
(0.0572221 -1.38025e-05 1.07606e-19)
(0.057236 -1.38022e-05 1.08183e-19)
(0.0572498 -1.38019e-05 1.24846e-19)
(0.0572636 -1.38014e-05 1.11578e-19)
(0.0572774 -1.38009e-05 7.76465e-20)
(0.0572912 -1.38003e-05 5.56838e-20)
(0.057305 -1.37996e-05 5.99814e-20)
(0.0573187 -1.37988e-05 7.59486e-20)
(0.0573324 -1.37979e-05 9.22111e-20)
(0.0573462 -1.37969e-05 1.03581e-19)
(0.0573599 -1.37956e-05 1.09937e-19)
(0.0573735 -1.37942e-05 1.14106e-19)
(0.0573872 -1.37925e-05 1.1715e-19)
(0.0574009 -1.37906e-05 1.17285e-19)
(0.0574145 -1.37884e-05 1.17602e-19)
(0.0574281 -1.37858e-05 1.21634e-19)
(0.0574417 -1.37827e-05 1.06068e-19)
(0.0574553 -1.37791e-05 1.65878e-19)
(0.0574688 -1.37748e-05 -3.2941e-20)
(0.0574824 -1.37696e-05 5.56842e-19)
(0.0574959 -1.37634e-05 -9.7011e-19)
(0.0575094 -1.37559e-05 2.39451e-18)
(0.0575228 -1.37465e-05 -3.79093e-18)
(0.0575363 -1.37353e-05 5.49216e-18)
(0.0575497 -1.37203e-05 -6.08393e-18)
(0.0575631 -1.37032e-05 7.81132e-18)
(0.0575764 -1.36771e-05 7.08892e-18)
(0.0575897 -1.36509e-05 6.92297e-18)
(0.0576031 -1.36021e-05 5.66227e-18)
(0.0576158 -1.35341e-05 3.73397e-18)
(0.0576301 -1.35414e-05 2.04749e-18)
(0.0576407 -1.30226e-05 9.85346e-19)
(0.0576569 -1.35835e-05 4.54206e-19)
(0.0576658 -1.13003e-05 2.33015e-19)
(0.0576815 -9.31348e-06 1.52529e-19)
(0.0576999 -7.81607e-06 1.26738e-19)
(0.0595718 0.00297193 1.39463e-18)
(0.0638283 0.00460064 -2.30567e-18)
(0.0659059 0.00497394 2.83509e-18)
(0.0661121 0.00385757 -5.00917e-18)
(0.0655138 0.0024704 -7.97587e-18)
(0.0643863 0.00150978 -1.5451e-17)
(0.0631558 0.000874919 -1.63407e-17)
(0.062228 0.000502807 -2.3787e-17)
(0.0616344 0.000320438 -1.86776e-17)
(0.0612359 0.00022372 -1.45799e-17)
(0.060954 0.000158953 -9.96432e-18)
(0.0607566 0.000114563 -6.64406e-18)
(0.0606161 8.48179e-05 -2.12577e-18)
(0.0605124 6.36714e-05 -3.03228e-18)
(0.0604341 4.77273e-05 1.58794e-18)
(0.0603749 3.54712e-05 -1.04845e-18)
(0.0603302 2.58696e-05 -1.52308e-18)
(0.0602965 1.82459e-05 6.10672e-18)
(0.0602716 1.23366e-05 5.34096e-18)
(0.0602535 7.42439e-06 -1.68017e-18)
(0.060241 3.3409e-06 -3.70935e-18)
(0.0602328 4.7656e-07 3.48815e-18)
(0.0602282 -2.01864e-06 3.21956e-18)
(0.0602265 -4.09821e-06 -2.23912e-18)
(0.0602273 -5.80573e-06 -5.38876e-18)
(0.06023 -7.22427e-06 5.00239e-18)
(0.0602343 -8.39943e-06 1.49736e-18)
(0.06024 -9.37284e-06 -1.61326e-18)
(0.0602467 -1.01775e-05 -2.61522e-18)
(0.0602544 -1.08453e-05 -2.89276e-18)
(0.0602628 -1.13998e-05 -5.17891e-19)
(0.0602718 -1.18605e-05 -2.3525e-18)
(0.0602813 -1.22436e-05 1.55714e-18)
(0.0602913 -1.25623e-05 -7.30325e-19)
(0.0603016 -1.28273e-05 -2.38939e-18)
(0.0603123 -1.30481e-05 7.44767e-18)
(0.0603231 -1.32321e-05 3.46794e-18)
(0.0603342 -1.33853e-05 -1.6028e-18)
(0.0603454 -1.35132e-05 -4.16998e-19)
(0.0603568 -1.36199e-05 -5.23405e-18)
(0.0603683 -1.3709e-05 2.65253e-18)
(0.0603799 -1.37834e-05 -5.68253e-18)
(0.0603915 -1.38456e-05 7.16139e-18)
(0.0604033 -1.38977e-05 5.5286e-18)
(0.060415 -1.39413e-05 5.58476e-18)
(0.0604269 -1.39778e-05 3.34863e-18)
(0.0604387 -1.40084e-05 4.92517e-18)
(0.0604506 -1.40341e-05 -1.12722e-18)
(0.0604625 -1.40557e-05 5.03055e-18)
(0.0604744 -1.4074e-05 -4.49656e-18)
(0.0604864 -1.40893e-05 7.71421e-18)
(0.0604983 -1.41022e-05 5.49799e-18)
(0.0605103 -1.41132e-05 6.01317e-18)
(0.0605223 -1.41224e-05 2.36055e-18)
(0.0605343 -1.41303e-05 6.49158e-18)
(0.0605462 -1.41369e-05 -3.03182e-18)
(0.0605582 -1.41426e-05 5.7704e-18)
(0.0605702 -1.41474e-05 -1.93207e-18)
(0.0605821 -1.41516e-05 -1.13718e-19)
(0.0605941 -1.41551e-05 3.00606e-18)
(0.0606061 -1.41581e-05 6.11935e-18)
(0.060618 -1.41607e-05 6.90172e-18)
(0.06063 -1.41629e-05 5.42591e-18)
(0.0606419 -1.41648e-05 3.60566e-18)
(0.0606539 -1.41664e-05 1.41422e-18)
(0.0606658 -1.41678e-05 1.88743e-18)
(0.0606778 -1.41691e-05 -1.39794e-18)
(0.0606897 -1.41701e-05 3.31605e-18)
(0.0607016 -1.4171e-05 -3.73437e-18)
(0.0607135 -1.41717e-05 5.17607e-18)
(0.0607254 -1.41724e-05 -7.06661e-18)
(0.0607373 -1.41729e-05 -5.22201e-18)
(0.0607492 -1.41733e-05 -4.66085e-18)
(0.0607611 -1.41737e-05 -3.84238e-18)
(0.0607729 -1.4174e-05 -2.58501e-18)
(0.0607848 -1.41743e-05 -1.38071e-18)
(0.0607966 -1.41744e-05 -5.22086e-19)
(0.0608085 -1.41746e-05 -1.32766e-19)
(0.0608203 -1.41747e-05 2.82462e-19)
(0.0608321 -1.41748e-05 -2.14361e-19)
(0.060844 -1.41748e-05 1.20569e-18)
(0.0608558 -1.41748e-05 -1.66857e-18)
(0.0608675 -1.41747e-05 3.34599e-18)
(0.0608793 -1.41746e-05 -3.91674e-18)
(0.0608911 -1.41745e-05 5.31515e-18)
(0.0609029 -1.41743e-05 -6.8971e-18)
(0.0609146 -1.41742e-05 -5.35805e-18)
(0.0609263 -1.4174e-05 -4.86215e-18)
(0.0609381 -1.41737e-05 -3.97227e-18)
(0.0609498 -1.41735e-05 -2.62928e-18)
(0.0609615 -1.41733e-05 -1.36956e-18)
(0.0609732 -1.4173e-05 -5.25144e-19)
(0.0609849 -1.41727e-05 -5.16293e-20)
(0.0609965 -1.41724e-05 8.8925e-20)
(0.0610082 -1.4172e-05 3.6611e-19)
(0.0610199 -1.41716e-05 -1.70199e-19)
(0.0610315 -1.41712e-05 1.19967e-18)
(0.0610431 -1.41708e-05 -1.64332e-18)
(0.0610547 -1.41703e-05 3.33591e-18)
(0.0610663 -1.41699e-05 -3.89524e-18)
(0.0610779 -1.41694e-05 5.21336e-18)
(0.0610895 -1.41689e-05 -6.83625e-18)
(0.061101 -1.41683e-05 -5.23971e-18)
(0.0611126 -1.41678e-05 -4.84169e-18)
(0.0611241 -1.41671e-05 -3.95962e-18)
(0.0611356 -1.41665e-05 -2.60935e-18)
(0.0611471 -1.41658e-05 -1.35046e-18)
(0.0611586 -1.41651e-05 -5.03542e-19)
(0.0611701 -1.41643e-05 -5.34429e-20)
(0.0611816 -1.41635e-05 1.35051e-19)
(0.061193 -1.41626e-05 2.22742e-19)
(0.0612045 -1.41617e-05 2.1744e-19)
(0.0612159 -1.41607e-05 2.82168e-19)
(0.0612273 -1.41597e-05 1.71827e-19)
(0.0612387 -1.41586e-05 3.2222e-19)
(0.0612501 -1.41574e-05 1.98162e-19)
(0.0612614 -1.41561e-05 2.01674e-19)
(0.0612728 -1.41548e-05 2.84106e-19)
(0.0612841 -1.41533e-05 2.64391e-19)
(0.0612954 -1.41518e-05 1.65137e-19)
(0.0613067 -1.41501e-05 9.37915e-20)
(0.061318 -1.41483e-05 1.03013e-19)
(0.0613293 -1.41464e-05 1.44251e-19)
(0.0613406 -1.41443e-05 1.85381e-19)
(0.0613518 -1.4142e-05 2.11733e-19)
(0.061363 -1.41395e-05 2.24174e-19)
(0.0613742 -1.41367e-05 2.32123e-19)
(0.0613854 -1.41336e-05 2.39622e-19)
(0.0613966 -1.41303e-05 2.36233e-19)
(0.0614077 -1.41265e-05 2.37814e-19)
(0.0614189 -1.41223e-05 2.41898e-19)
(0.06143 -1.41175e-05 2.2534e-19)
(0.0614411 -1.41121e-05 2.87805e-19)
(0.0614521 -1.41057e-05 9.59091e-20)
(0.0614632 -1.40984e-05 6.25044e-19)
(0.0614742 -1.40897e-05 -6.14795e-19)
(0.0614853 -1.40793e-05 1.73114e-18)
(0.0614962 -1.40667e-05 -1.58508e-18)
(0.0615072 -1.40511e-05 1.04389e-18)
(0.0615181 -1.40325e-05 2.66571e-18)
(0.0615291 -1.40069e-05 -7.41248e-18)
(0.0615399 -1.39778e-05 -2.45061e-18)
(0.0615507 -1.39319e-05 1.27149e-18)
(0.0615616 -1.38895e-05 2.78555e-18)
(0.0615721 -1.37606e-05 2.56132e-18)
(0.0615831 -1.38188e-05 1.7123e-18)
(0.0615928 -1.31343e-05 9.80145e-19)
(0.0616042 -1.38026e-05 5.50633e-19)
(0.0616133 -1.12186e-05 3.54676e-19)
(0.0616249 -1.08316e-05 2.74901e-19)
(0.0616378 -8.1841e-06 2.46395e-19)
(0.0616522 -1.00018e-05 2.38163e-19)
(0.0595567 0.00225086 9.64671e-19)
(0.06274 0.00374476 -1.24383e-18)
(0.065042 0.0042975 6.4075e-19)
(0.0658908 0.00368444 -7.20558e-19)
(0.0659483 0.00266436 -4.9976e-20)
(0.0652897 0.00183866 -3.89999e-18)
(0.0642891 0.00120692 -4.56684e-18)
(0.0634512 0.000771491 -7.47156e-18)
(0.0628811 0.000512163 -8.81584e-18)
(0.0624766 0.000356081 -8.78826e-18)
(0.0621815 0.000252396 -6.52011e-18)
(0.0619728 0.000182489 -5.18916e-18)
(0.0618236 0.000135449 -2.08538e-19)
(0.0617129 0.000102298 -3.98603e-18)
(0.0616291 7.7734e-05 5.12766e-18)
(0.0615655 5.90519e-05 -5.33554e-18)
(0.0615172 4.46569e-05 7.27748e-18)
(0.0614805 3.33708e-05 -8.86683e-18)
(0.061453 2.44058e-05 7.64245e-19)
(0.0614327 1.72756e-05 -1.13986e-17)
(0.0614183 1.15541e-05 1.18547e-18)
(0.0614084 6.7905e-06 -1.35653e-17)
(0.0614023 2.98144e-06 -2.67831e-18)
(0.0613993 -5.88089e-08 -1.22339e-17)
(0.0613987 -2.55692e-06 -1.56063e-18)
(0.0614003 -4.63323e-06 -1.10443e-17)
(0.0614034 -6.35768e-06 -7.2246e-18)
(0.061408 -7.79254e-06 -7.34627e-18)
(0.0614137 -8.9802e-06 -6.1121e-18)
(0.0614204 -9.96492e-06 -5.22645e-18)
(0.0614278 -1.07812e-05 -5.42802e-19)
(0.0614359 -1.14582e-05 -4.32316e-18)
(0.0614445 -1.20207e-05 4.23749e-18)
(0.0614536 -1.2488e-05 -5.06639e-18)
(0.061463 -1.28765e-05 5.33506e-18)
(0.0614728 -1.31999e-05 -6.00797e-18)
(0.0614828 -1.3469e-05 -4.45206e-18)
(0.061493 -1.36931e-05 -6.1023e-18)
(0.0615034 -1.38799e-05 -4.4097e-18)
(0.061514 -1.40356e-05 -5.61873e-18)
(0.0615246 -1.41655e-05 -5.47553e-19)
(0.0615354 -1.4274e-05 -1.87317e-18)
(0.0615462 -1.43645e-05 3.73044e-19)
(0.0615572 -1.44401e-05 1.70177e-18)
(0.0615681 -1.45033e-05 2.99552e-18)
(0.0615791 -1.45562e-05 2.27201e-18)
(0.0615902 -1.46006e-05 3.44218e-18)
(0.0616013 -1.46377e-05 1.98514e-19)
(0.0616124 -1.46687e-05 2.91862e-18)
(0.0616235 -1.46949e-05 -1.81631e-19)
(0.0616346 -1.47168e-05 1.2214e-18)
(0.0616458 -1.47352e-05 1.64439e-18)
(0.0616569 -1.47506e-05 3.8127e-18)
(0.0616681 -1.47636e-05 5.76178e-19)
(0.0616793 -1.47746e-05 6.51711e-18)
(0.0616905 -1.47838e-05 -4.33525e-18)
(0.0617016 -1.47915e-05 8.03307e-18)
(0.0617128 -1.4798e-05 -5.11414e-18)
(0.061724 -1.48035e-05 7.48715e-18)
(0.0617351 -1.48081e-05 7.50402e-18)
(0.0617463 -1.4812e-05 9.11451e-18)
(0.0617575 -1.48152e-05 9.03377e-18)
(0.0617686 -1.48179e-05 6.97189e-18)
(0.0617798 -1.48202e-05 4.69321e-18)
(0.0617909 -1.4822e-05 2.33518e-18)
(0.061802 -1.48235e-05 2.30617e-18)
(0.0618132 -1.48247e-05 -2.38228e-19)
(0.0618243 -1.48257e-05 2.70154e-18)
(0.0618354 -1.48264e-05 -9.95228e-19)
(0.0618465 -1.48269e-05 1.82768e-18)
(0.0618576 -1.48273e-05 7.61861e-19)
(0.0618687 -1.48276e-05 -3.6459e-19)
(0.0618798 -1.48277e-05 -1.42713e-18)
(0.0618909 -1.48277e-05 -1.68905e-18)
(0.0619019 -1.48276e-05 -1.16434e-18)
(0.061913 -1.48274e-05 -4.20318e-19)
(0.061924 -1.48272e-05 1.94374e-19)
(0.0619351 -1.48268e-05 4.75422e-19)
(0.0619461 -1.48264e-05 8.1274e-19)
(0.0619571 -1.48259e-05 4.19378e-19)
(0.0619681 -1.48254e-05 1.49663e-18)
(0.0619791 -1.48248e-05 -5.46466e-19)
(0.0619901 -1.48242e-05 2.67652e-18)
(0.0620011 -1.48235e-05 -1.12929e-18)
(0.0620121 -1.48228e-05 1.88786e-18)
(0.062023 -1.4822e-05 8.26845e-19)
(0.062034 -1.48212e-05 -4.11087e-19)
(0.0620449 -1.48203e-05 -1.55045e-18)
(0.0620559 -1.48195e-05 -1.76694e-18)
(0.0620668 -1.48186e-05 -1.18732e-18)
(0.0620777 -1.48176e-05 -3.98114e-19)
(0.0620886 -1.48166e-05 1.92452e-19)
(0.0620994 -1.48156e-05 5.50414e-19)
(0.0621103 -1.48146e-05 6.63867e-19)
(0.0621212 -1.48135e-05 8.91205e-19)
(0.062132 -1.48123e-05 4.67691e-19)
(0.0621429 -1.48112e-05 1.49364e-18)
(0.0621537 -1.481e-05 -5.24797e-19)
(0.0621645 -1.48088e-05 2.67935e-18)
(0.0621753 -1.48075e-05 -1.12916e-18)
(0.0621861 -1.48062e-05 1.8904e-18)
(0.0621968 -1.48048e-05 8.95477e-19)
(0.0622076 -1.48035e-05 -3.95219e-19)
(0.0622183 -1.4802e-05 -1.55684e-18)
(0.0622291 -1.48005e-05 -1.76374e-18)
(0.0622398 -1.4799e-05 -1.18326e-18)
(0.0622505 -1.47974e-05 -3.89692e-19)
(0.0622612 -1.47957e-05 2.20185e-19)
(0.0622719 -1.4794e-05 5.67099e-19)
(0.0622825 -1.47923e-05 6.89364e-19)
(0.0622932 -1.47904e-05 8.02298e-19)
(0.0623038 -1.47886e-05 7.10817e-19)
(0.0623144 -1.47866e-05 9.47689e-19)
(0.062325 -1.47846e-05 5.04615e-19)
(0.0623356 -1.47824e-05 1.13134e-18)
(0.0623462 -1.47802e-05 5.77197e-19)
(0.0623568 -1.47779e-05 6.9285e-19)
(0.0623673 -1.47754e-05 9.91166e-19)
(0.0623779 -1.47728e-05 8.74461e-19)
(0.0623884 -1.47701e-05 5.12598e-19)
(0.0623989 -1.47673e-05 2.7896e-19)
(0.0624094 -1.47643e-05 3.37318e-19)
(0.0624198 -1.47611e-05 4.88603e-19)
(0.0624303 -1.47578e-05 6.29384e-19)
(0.0624407 -1.47542e-05 7.1304e-19)
(0.0624511 -1.47504e-05 7.49347e-19)
(0.0624615 -1.47463e-05 7.70157e-19)
(0.0624719 -1.47418e-05 7.96432e-19)
(0.0624823 -1.47369e-05 7.78898e-19)
(0.0624927 -1.47315e-05 7.83248e-19)
(0.062503 -1.47256e-05 7.89213e-19)
(0.0625133 -1.47189e-05 7.66965e-19)
(0.0625236 -1.47114e-05 8.65296e-19)
(0.0625339 -1.47029e-05 5.64537e-19)
(0.0625441 -1.4693e-05 1.42076e-18)
(0.0625544 -1.46814e-05 -6.7874e-19)
(0.0625646 -1.46676e-05 3.6008e-18)
(0.0625748 -1.46515e-05 -3.54585e-18)
(0.0625849 -1.46305e-05 5.92712e-18)
(0.0625951 -1.46075e-05 -4.22838e-18)
(0.0626052 -1.45715e-05 6.83076e-18)
(0.0626152 -1.45403e-05 6.3406e-18)
(0.0626253 -1.44675e-05 7.1291e-18)
(0.0626352 -1.44372e-05 6.72759e-18)
(0.0626451 -1.4241e-05 5.09557e-18)
(0.062655 -1.43178e-05 3.27856e-18)
(0.0626645 -1.3565e-05 1.98775e-18)
(0.0626744 -1.40377e-05 1.28034e-18)
(0.0626835 -1.17511e-05 9.74483e-19)
(0.0626942 -1.13055e-05 8.42042e-19)
(0.0627051 -9.43536e-06 7.92019e-19)
(0.0627162 -8.7275e-06 7.76157e-19)
(0.0595839 0.00175493 1.75271e-19)
(0.062004 0.00308284 -9.59071e-20)
(0.0640176 0.00367249 2.35815e-19)
(0.0649128 0.00342677 -1.9069e-19)
(0.0652811 0.00275102 1.85902e-18)
(0.0649774 0.0020772 2.39689e-19)
(0.0642351 0.00147659 1.93919e-19)
(0.0635598 0.0010065 -1.4299e-18)
(0.0630784 0.000689461 -3.62199e-18)
(0.0627135 0.000483365 -5.02003e-18)
(0.0624343 0.000344677 -3.63459e-18)
(0.0622326 0.000250744 -3.3402e-18)
(0.0620867 0.000186872 2.65365e-18)
(0.0619772 0.000141835 -3.55384e-18)
(0.0618939 0.000108729 9.54669e-18)
(0.0618304 8.37436e-05 -6.29833e-18)
(0.061782 6.45339e-05 1.24856e-17)
(0.0617453 4.9562e-05 -9.464e-18)
(0.0617176 3.77478e-05 3.23095e-18)
(0.0616972 2.83145e-05 -1.57396e-17)
(0.0616825 2.07633e-05 3.38859e-18)
(0.0616724 1.45795e-05 -1.62921e-17)
(0.0616661 9.55169e-06 -1.53117e-18)
(0.0616628 5.42679e-06 -1.73104e-17)
(0.061662 2.02516e-06 -7.34867e-19)
(0.0616633 -7.79957e-07 -1.32246e-17)
(0.0616663 -3.09602e-06 -8.27771e-18)
(0.0616706 -4.99298e-06 -1.03408e-17)
(0.0616761 -6.55444e-06 -7.67265e-18)
(0.0616826 -7.84884e-06 -6.04896e-18)
(0.0616898 -8.92246e-06 5.39319e-19)
(0.0616977 -9.81419e-06 -5.4288e-18)
(0.0617061 -1.05555e-05 6.89032e-18)