/*--------------------------------*- C++ -*----------------------------------*\
| =========                 |                                                 |
| \\      /  F ield         | OpenFOAM: The Open Source CFD Toolbox           |
|  \\    /   O peration     | Version:  2512                                  |
|   \\  /    A nd           | Website:  www.openfoam.com                      |
|    \\/     M anipulation  |                                                 |
\*---------------------------------------------------------------------------*/
FoamFile
{
    version     2.0;
    format      ascii;
    arch        "LSB;label=32;scalar=64";
    class       volScalarField;
    location    "0.1";
    object      Uy;
}
// * * * * * * * * * * * * * * * * * * * * * * * * * * * * * * * * * * * * * //

dimensions      [0 1 -1 0 0 0 0];

internalField   nonuniform List<scalar> 
8333
(
0.00351778
0.00253184
0.00122874
0.000344447
3.91032e-05
-2.82936e-05
-4.17217e-05
-3.1055e-05
-1.57501e-05
-9.29368e-06
-8.88654e-06
-8.79915e-06
-8.32887e-06
-8.03562e-06
-7.96257e-06
-7.9836e-06
-8.05714e-06
-8.07228e-06
-7.81032e-06
-7.6533e-06
-7.54374e-06
-7.43348e-06
-7.40334e-06
-7.38916e-06
-7.3808e-06
-7.37804e-06
-7.37871e-06
-7.38133e-06
-7.38431e-06
-7.38694e-06
-7.38894e-06
-7.39025e-06
-7.39108e-06
-7.39149e-06
-7.3915e-06
-7.39123e-06
-7.39076e-06
-7.39009e-06
-7.38928e-06
-7.38836e-06
-7.38735e-06
-7.38627e-06
-7.38514e-06
-7.38398e-06
-7.38279e-06
-7.38153e-06
-7.38025e-06
-7.37896e-06
-7.37763e-06
-7.37625e-06
-7.37485e-06
-7.37343e-06
-7.37197e-06
-7.37048e-06
-7.36897e-06
-7.36744e-06
-7.36588e-06
-7.36428e-06
-7.36265e-06
-7.361e-06
-7.35932e-06
-7.35761e-06
-7.35586e-06
-7.35408e-06
-7.35226e-06
-7.35043e-06
-7.34856e-06
-7.34666e-06
-7.34474e-06
-7.3428e-06
-7.34082e-06
-7.33881e-06
-7.33679e-06
-7.33473e-06
-7.33264e-06
-7.33051e-06
-7.32835e-06
-7.32618e-06
-7.32397e-06
-7.32172e-06
-7.31944e-06
-7.31714e-06
-7.31482e-06
-7.31246e-06
-7.31007e-06
-7.30766e-06
-7.30522e-06
-7.30273e-06
-7.30022e-06
-7.2977e-06
-7.29513e-06
-7.29252e-06
-7.2899e-06
-7.28724e-06
-7.28457e-06
-7.28186e-06
-7.27912e-06
-7.27635e-06
-7.27355e-06
-7.27071e-06
-7.26786e-06
-7.26495e-06
-7.26201e-06
-7.25904e-06
-7.25604e-06
-7.25301e-06
-7.24994e-06
-7.24683e-06
-7.2437e-06
-7.24053e-06
-7.23733e-06
-7.23411e-06
-7.23084e-06
-7.22752e-06
-7.22417e-06
-7.22077e-06
-7.21733e-06
-7.21386e-06
-7.21033e-06
-7.20676e-06
-7.20315e-06
-7.19949e-06
-7.19581e-06
-7.19206e-06
-7.18825e-06
-7.18438e-06
-7.18045e-06
-7.17644e-06
-7.17235e-06
-7.16814e-06
-7.16384e-06
-7.1594e-06
-7.15481e-06
-7.15003e-06
-7.14505e-06
-7.13975e-06
-7.13418e-06
-7.12809e-06
-7.12161e-06
-7.11438e-06
-7.10534e-06
-7.09875e-06
-7.07669e-06
-7.08868e-06
-7.00616e-06
-7.09692e-06
-6.85893e-06
-6.98626e-06
-5.74176e-06
0.00566274
0.00607081
0.00490906
0.00273516
0.00120566
0.00047511
0.000135861
1.83159e-05
8.58988e-06
1.40772e-05
1.04272e-05
5.3434e-06
1.99689e-06
-6.35619e-07
-2.99721e-06
-4.9545e-06
-6.49712e-06
-7.80524e-06
-9.14805e-06
-1.01845e-05
-1.09723e-05
-1.18463e-05
-1.24527e-05
-1.29237e-05
-1.33001e-05
-1.36042e-05
-1.38526e-05
-1.40565e-05
-1.42238e-05
-1.4362e-05
-1.44768e-05
-1.45719e-05
-1.46509e-05
-1.47165e-05
-1.47709e-05
-1.4816e-05
-1.48534e-05
-1.48844e-05
-1.49101e-05
-1.49313e-05
-1.49488e-05
-1.49633e-05
-1.49752e-05
-1.49849e-05
-1.49928e-05
-1.49991e-05
-1.50043e-05
-1.50084e-05
-1.50116e-05
-1.50141e-05
-1.5016e-05
-1.50173e-05
-1.50182e-05
-1.50187e-05
-1.50188e-05
-1.50187e-05
-1.50184e-05
-1.50178e-05
-1.50171e-05
-1.50162e-05
-1.50151e-05
-1.5014e-05
-1.50127e-05
-1.50114e-05
-1.50099e-05
-1.50084e-05
-1.50068e-05
-1.50051e-05
-1.50034e-05
-1.50015e-05
-1.49997e-05
-1.49977e-05
-1.49958e-05
-1.49937e-05
-1.49917e-05
-1.49896e-05
-1.49874e-05
-1.49852e-05
-1.4983e-05
-1.49807e-05
-1.49784e-05
-1.4976e-05
-1.49736e-05
-1.49711e-05
-1.49686e-05
-1.49661e-05
-1.49635e-05
-1.49609e-05
-1.49583e-05
-1.49557e-05
-1.4953e-05
-1.49502e-05
-1.49474e-05
-1.49446e-05
-1.49417e-05
-1.49388e-05
-1.49359e-05
-1.49329e-05
-1.49299e-05
-1.49268e-05
-1.49237e-05
-1.49206e-05
-1.49174e-05
-1.49142e-05
-1.49109e-05
-1.49076e-05
-1.49042e-05
-1.49008e-05
-1.48973e-05
-1.48938e-05
-1.48902e-05
-1.48865e-05
-1.48828e-05
-1.4879e-05
-1.48752e-05
-1.48713e-05
-1.48673e-05
-1.48632e-05
-1.48591e-05
-1.48549e-05
-1.48505e-05
-1.48461e-05
-1.48415e-05
-1.48368e-05
-1.48319e-05
-1.48269e-05
-1.48217e-05
-1.48163e-05
-1.48107e-05
-1.48048e-05
-1.47986e-05
-1.4792e-05
-1.4785e-05
-1.47775e-05
-1.47693e-05
-1.47602e-05
-1.47502e-05
-1.47386e-05
-1.47257e-05
-1.47099e-05
-1.46909e-05
-1.46711e-05
-1.46319e-05
-1.46247e-05
-1.44908e-05
-1.46099e-05
-1.40244e-05
-1.45701e-05
-1.15965e-05
-9.50335e-06
0.00368564
0.00520107
0.00512542
0.00350085
0.00193914
0.00100924
0.000475805
0.000221241
0.000135235
0.000100787
7.36218e-05
5.30643e-05
3.91342e-05
2.88908e-05
2.08356e-05
1.45569e-05
9.71408e-06
5.73532e-06
2.07068e-06
-9.32411e-07
-3.34277e-06
-5.0403e-06
-6.4683e-06
-7.69659e-06
-8.72622e-06
-9.57707e-06
-1.02839e-05
-1.08723e-05
-1.136e-05
-1.17648e-05
-1.21008e-05
-1.23796e-05
-1.26113e-05
-1.2804e-05
-1.29642e-05
-1.30975e-05
-1.32085e-05
-1.33009e-05
-1.3378e-05
-1.34424e-05
-1.34961e-05
-1.3541e-05
-1.35786e-05
-1.36101e-05
-1.36366e-05
-1.36588e-05
-1.36775e-05
-1.36933e-05
-1.37066e-05
-1.3718e-05
-1.37276e-05
-1.37357e-05
-1.37427e-05
-1.37486e-05
-1.37538e-05
-1.37582e-05
-1.37621e-05
-1.37655e-05
-1.37684e-05
-1.3771e-05
-1.37732e-05
-1.37753e-05
-1.37771e-05
-1.37787e-05
-1.37802e-05
-1.37815e-05
-1.37827e-05
-1.37838e-05
-1.37848e-05
-1.37858e-05
-1.37866e-05
-1.37875e-05
-1.37883e-05
-1.3789e-05
-1.37897e-05
-1.37904e-05
-1.3791e-05
-1.37916e-05
-1.37922e-05
-1.37928e-05
-1.37933e-05
-1.37939e-05
-1.37943e-05
-1.37948e-05
-1.37953e-05
-1.37958e-05
-1.37962e-05
-1.37967e-05
-1.37971e-05
-1.37975e-05
-1.3798e-05
-1.37984e-05
-1.37987e-05
-1.37991e-05
-1.37995e-05
-1.37998e-05
-1.38002e-05
-1.38005e-05
-1.38008e-05
-1.38011e-05
-1.38014e-05
-1.38017e-05
-1.38019e-05
-1.38022e-05
-1.38024e-05
-1.38025e-05
-1.38027e-05
-1.38028e-05
-1.38029e-05
-1.38029e-05
-1.3803e-05
-1.3803e-05
-1.38029e-05
-1.38028e-05
-1.38027e-05
-1.38025e-05
-1.38022e-05
-1.38019e-05
-1.38014e-05
-1.38009e-05
-1.38003e-05
-1.37996e-05
-1.37988e-05
-1.37979e-05
-1.37969e-05
-1.37956e-05
-1.37942e-05
-1.37925e-05
-1.37906e-05
-1.37884e-05
-1.37858e-05
-1.37827e-05
-1.37791e-05
-1.37748e-05
-1.37696e-05
-1.37634e-05
-1.37559e-05
-1.37465e-05
-1.37353e-05
-1.37203e-05
-1.37032e-05
-1.36771e-05
-1.36509e-05
-1.36021e-05
-1.35341e-05
-1.35414e-05
-1.30226e-05
-1.35835e-05
-1.13003e-05
-9.31348e-06
-7.81607e-06
0.00297193
0.00460064
0.00497394
0.00385757
0.0024704
0.00150978
0.000874919
0.000502807
0.000320438
0.00022372
0.000158953
0.000114563
8.48179e-05
6.36714e-05
4.77273e-05
3.54712e-05
2.58696e-05
1.82459e-05
1.23366e-05
7.42439e-06
3.3409e-06
4.7656e-07
-2.01864e-06
-4.09821e-06
-5.80573e-06
-7.22427e-06
-8.39943e-06
-9.37284e-06
-1.01775e-05
-1.08453e-05
-1.13998e-05
-1.18605e-05
-1.22436e-05
-1.25623e-05
-1.28273e-05
-1.30481e-05
-1.32321e-05
-1.33853e-05
-1.35132e-05
-1.36199e-05
-1.3709e-05
-1.37834e-05
-1.38456e-05
-1.38977e-05
-1.39413e-05
-1.39778e-05
-1.40084e-05
-1.40341e-05
-1.40557e-05
-1.4074e-05
-1.40893e-05
-1.41022e-05
-1.41132e-05
-1.41224e-05
-1.41303e-05
-1.41369e-05
-1.41426e-05
-1.41474e-05
-1.41516e-05
-1.41551e-05
-1.41581e-05
-1.41607e-05
-1.41629e-05
-1.41648e-05
-1.41664e-05
-1.41678e-05
-1.41691e-05
-1.41701e-05
-1.4171e-05
-1.41717e-05
-1.41724e-05
-1.41729e-05
-1.41733e-05
-1.41737e-05
-1.4174e-05
-1.41743e-05
-1.41744e-05
-1.41746e-05
-1.41747e-05
-1.41748e-05
-1.41748e-05
-1.41748e-05
-1.41747e-05
-1.41746e-05
-1.41745e-05
-1.41743e-05
-1.41742e-05
-1.4174e-05
-1.41737e-05
-1.41735e-05
-1.41733e-05
-1.4173e-05
-1.41727e-05
-1.41724e-05
-1.4172e-05
-1.41716e-05
-1.41712e-05
-1.41708e-05
-1.41703e-05
-1.41699e-05
-1.41694e-05
-1.41689e-05
-1.41683e-05
-1.41678e-05
-1.41671e-05
-1.41665e-05
-1.41658e-05
-1.41651e-05
-1.41643e-05
-1.41635e-05
-1.41626e-05
-1.41617e-05
-1.41607e-05
-1.41597e-05
-1.41586e-05
-1.41574e-05
-1.41561e-05
-1.41548e-05
-1.41533e-05
-1.41518e-05
-1.41501e-05
-1.41483e-05
-1.41464e-05
-1.41443e-05
-1.4142e-05
-1.41395e-05
-1.41367e-05
-1.41336e-05
-1.41303e-05
-1.41265e-05
-1.41223e-05
-1.41175e-05
-1.41121e-05
-1.41057e-05
-1.40984e-05
-1.40897e-05
-1.40793e-05
-1.40667e-05
-1.40511e-05
-1.40325e-05
-1.40069e-05
-1.39778e-05
-1.39319e-05
-1.38895e-05
-1.37606e-05
-1.38188e-05
-1.31343e-05
-1.38026e-05
-1.12186e-05
-1.08316e-05
-8.1841e-06
-1.00018e-05
0.00225086
0.00374476
0.0042975
0.00368444
0.00266436
0.00183866
0.00120692
0.000771491
0.000512163
0.000356081
0.000252396
0.000182489
0.000135449
0.000102298
7.7734e-05
5.90519e-05
4.46569e-05
3.33708e-05
2.44058e-05
1.72756e-05
1.15541e-05
6.7905e-06
2.98144e-06
-5.88089e-08
-2.55692e-06
-4.63323e-06
-6.35768e-06
-7.79254e-06
-8.9802e-06
-9.96492e-06
-1.07812e-05
-1.14582e-05
-1.20207e-05
-1.2488e-05
-1.28765e-05
-1.31999e-05
-1.3469e-05
-1.36931e-05
-1.38799e-05
-1.40356e-05
-1.41655e-05
-1.4274e-05
-1.43645e-05
-1.44401e-05
-1.45033e-05
-1.45562e-05
-1.46006e-05
-1.46377e-05
-1.46687e-05
-1.46949e-05
-1.47168e-05
-1.47352e-05
-1.47506e-05
-1.47636e-05
-1.47746e-05
-1.47838e-05
-1.47915e-05
-1.4798e-05
-1.48035e-05
-1.48081e-05
-1.4812e-05
-1.48152e-05
-1.48179e-05
-1.48202e-05
-1.4822e-05
-1.48235e-05
-1.48247e-05
-1.48257e-05
-1.48264e-05
-1.48269e-05
-1.48273e-05
-1.48276e-05
-1.48277e-05
-1.48277e-05
-1.48276e-05
-1.48274e-05
-1.48272e-05
-1.48268e-05
-1.48264e-05
-1.48259e-05
-1.48254e-05
-1.48248e-05
-1.48242e-05
-1.48235e-05
-1.48228e-05
-1.4822e-05
-1.48212e-05
-1.48203e-05
-1.48195e-05
-1.48186e-05
-1.48176e-05
-1.48166e-05
-1.48156e-05
-1.48146e-05
-1.48135e-05
-1.48123e-05
-1.48112e-05
-1.481e-05
-1.48088e-05
-1.48075e-05
-1.48062e-05
-1.48048e-05
-1.48035e-05
-1.4802e-05
-1.48005e-05
-1.4799e-05
-1.47974e-05
-1.47957e-05
-1.4794e-05
-1.47923e-05
-1.47904e-05
-1.47886e-05
-1.47866e-05
-1.47846e-05
-1.47824e-05
-1.47802e-05
-1.47779e-05
-1.47754e-05
-1.47728e-05
-1.47701e-05
-1.47673e-05
-1.47643e-05
-1.47611e-05
-1.47578e-05
-1.47542e-05
-1.47504e-05
-1.47463e-05
-1.47418e-05
-1.47369e-05
-1.47315e-05
-1.47256e-05
-1.47189e-05
-1.47114e-05
-1.47029e-05
-1.4693e-05
-1.46814e-05
-1.46676e-05
-1.46515e-05
-1.46305e-05
-1.46075e-05
-1.45715e-05
-1.45403e-05
-1.44675e-05
-1.44372e-05
-1.4241e-05
-1.43178e-05
-1.3565e-05
-1.40377e-05
-1.17511e-05
-1.13055e-05
-9.43536e-06
-8.7275e-06
0.00175493
0.00308284
0.00367249
0.00342677
0.00275102
0.0020772
0.00147659
0.0010065
0.000689461
0.000483365
0.000344677
0.000250744
0.000186872
0.000141835
0.000108729
8.37436e-05
6.45339e-05
4.9562e-05
3.77478e-05
2.83145e-05
2.07633e-05
1.45795e-05
9.55169e-06
5.42679e-06
2.02516e-06
-7.79957e-07
-3.09602e-06
-4.99298e-06
-6.55444e-06
-7.84884e-06
-8.92246e-06
-9.81419e-06
-1.05555e-05
-1.11719e-05
-1.16846e-05
-1.21116e-05
-1.24673e-05
-1.27636e-05
-1.30109e-05
-1.3217e-05
-1.3389e-05
-1.35328e-05
-1.36528e-05
-1.37532e-05
-1.38371e-05
-1.39074e-05
-1.39663e-05
-1.40156e-05
-1.4057e-05
-1.40918e-05
-1.41211e-05
-1.41456e-05
-1.41663e-05
-1.41838e-05
-1.41985e-05
-1.42109e-05
-1.42214e-05
-1.42304e-05
-1.42379e-05
-1.42443e-05
-1.42497e-05
-1.42543e-05
-1.42581e-05
-1.42614e-05
-1.42642e-05
-1.42666e-05
-1.42685e-05
-1.42702e-05
-1.42715e-05
-1.42727e-05
-1.42736e-05
-1.42743e-05
-1.42749e-05
-1.42753e-05
-1.42756e-05
-1.42758e-05
-1.42759e-05
-1.42759e-05
-1.42758e-05
-1.42757e-05
-1.42755e-05
-1.42752e-05
-1.42749e-05
-1.42745e-05
-1.4274e-05
-1.42736e-05
-1.4273e-05
-1.42725e-05
-1.42719e-05
-1.42712e-05
-1.42706e-05
-1.42699e-05
-1.42691e-05
-1.42683e-05
-1.42675e-05
-1.42666e-05
-1.42657e-05
-1.42648e-05
-1.42638e-05
-1.42628e-05
-1.42618e-05
-1.42607e-05
-1.42596e-05
-1.42584e-05
-1.42572e-05
-1.42559e-05
-1.42546e-05
-1.42532e-05
-1.42517e-05
-1.42502e-05
-1.42486e-05
-1.4247e-05
-1.42452e-05
-1.42435e-05
-1.42416e-05
-1.42395e-05
-1.42374e-05
-1.42352e-05
-1.42328e-05
-1.42303e-05
-1.42276e-05
-1.42248e-05
-1.42217e-05
-1.42184e-05
-1.42148e-05
-1.4211e-05
-1.42068e-05
-1.42022e-05
-1.41972e-05
-1.41916e-05
-1.41854e-05
-1.41783e-05
-1.41703e-05
-1.41611e-05
-1.41503e-05
-1.41376e-05
-1.41221e-05
-1.4104e-05
-1.40798e-05
-1.40545e-05
-1.4011e-05
-1.39795e-05
-1.38858e-05
-1.38647e-05
-1.36226e-05
-1.36867e-05
-1.29698e-05
-1.31479e-05
-1.15098e-05
-1.05323e-05
-9.89716e-06
-8.5282e-06
-9.10314e-06
0.00138164
0.00256729
0.0031594
0.00316402
0.00275698
0.00222262
0.0016694
0.00119055
0.000838401
0.000596192
0.000429656
0.000315224
0.000236235
0.000180132
0.000138863
0.000107716
8.37674e-05
6.50754e-05
5.02919e-05
3.84788e-05
2.89764e-05
2.12371e-05
1.49505e-05
9.80841e-06
5.61803e-06
2.18894e-06
-6.22977e-07
-2.93202e-06
-4.85816e-06
-6.45962e-06
-7.78758e-06
-8.89021e-06
-9.80656e-06
-1.0568e-05
-1.12014e-05
-1.17288e-05
-1.21679e-05
-1.25336e-05
-1.28386e-05
-1.30929e-05
-1.3305e-05
-1.34822e-05
-1.363e-05
-1.37536e-05
-1.38569e-05
-1.39434e-05
-1.40158e-05
-1.40764e-05
-1.41272e-05
-1.41699e-05
-1.42057e-05
-1.42357e-05
-1.4261e-05
-1.42823e-05
-1.43002e-05
-1.43153e-05
-1.4328e-05
-1.43387e-05
-1.43478e-05
-1.43554e-05
-1.43618e-05
-1.43673e-05
-1.43718e-05
-1.43756e-05
-1.43788e-05
-1.43815e-05
-1.43837e-05
-1.43855e-05
-1.43869e-05
-1.43881e-05
-1.4389e-05
-1.43897e-05
-1.43902e-05
-1.43905e-05
-1.43907e-05
-1.43907e-05
-1.43906e-05
-1.43905e-05
-1.43902e-05
-1.43898e-05
-1.43894e-05
-1.43888e-05
-1.43882e-05
-1.43875e-05
-1.43868e-05
-1.4386e-05
-1.43851e-05
-1.43842e-05
-1.43833e-05
-1.43823e-05
-1.43813e-05
-1.43802e-05
-1.43791e-05
-1.43779e-05
-1.43767e-05
-1.43755e-05
-1.43742e-05
-1.43728e-05
-1.43714e-05
-1.43699e-05
-1.43685e-05
-1.43669e-05
-1.43653e-05
-1.43637e-05
-1.4362e-05
-1.43602e-05
-1.43584e-05
-1.43564e-05
-1.43544e-05
-1.43524e-05
-1.43503e-05
-1.4348e-05
-1.43457e-05
-1.43433e-05
-1.43408e-05
-1.43381e-05
-1.43354e-05
-1.43324e-05
-1.43293e-05
-1.43261e-05
-1.43227e-05
-1.4319e-05
-1.43152e-05
-1.43111e-05
-1.43068e-05
-1.4302e-05
-1.42969e-05
-1.42913e-05
-1.42853e-05
-1.42786e-05
-1.42711e-05
-1.42626e-05
-1.42531e-05
-1.42421e-05
-1.42293e-05
-1.42144e-05
-1.41962e-05
-1.41752e-05
-1.41468e-05
-1.41172e-05
-1.4066e-05
-1.40294e-05
-1.3921e-05
-1.38919e-05
-1.36296e-05
-1.36468e-05
-1.29842e-05
-1.2956e-05
-1.16296e-05
-1.07431e-05
-9.93604e-06
-9.47896e-06
-7.19756e-06
-1.07602e-05
0.00109993
0.00215554
0.00273597
0.0029086
0.00270624
0.0022955
0.0017979
0.00132856
0.000959322
0.000693258
0.000505811
0.000374673
0.000282632
0.000216579
0.000167775
0.000130861
0.000102441
8.02444e-05
6.27001e-05
4.87005e-05
3.74534e-05
2.83393e-05
2.09362e-05
1.48871e-05
9.92103e-06
5.82897e-06
2.44747e-06
-3.63237e-07
-2.69748e-06
-4.61667e-06
-6.20471e-06
-7.52309e-06
-8.61806e-06
-9.52822e-06
-1.02853e-05
-1.09155e-05
-1.14403e-05
-1.18775e-05
-1.2242e-05
-1.25458e-05
-1.27994e-05
-1.30111e-05
-1.31879e-05
-1.33358e-05
-1.34593e-05
-1.35627e-05
-1.36494e-05
-1.37219e-05
-1.37827e-05
-1.38337e-05
-1.38766e-05
-1.39126e-05
-1.39429e-05
-1.39684e-05
-1.39899e-05
-1.4008e-05
-1.40234e-05
-1.40363e-05
-1.40473e-05
-1.40565e-05
-1.40643e-05
-1.4071e-05
-1.40766e-05
-1.40813e-05
-1.40853e-05
-1.40887e-05
-1.40915e-05
-1.40938e-05
-1.40958e-05
-1.40974e-05
-1.40987e-05
-1.40997e-05
-1.41005e-05
-1.41012e-05
-1.41016e-05
-1.41019e-05
-1.41021e-05
-1.41021e-05
-1.4102e-05
-1.41018e-05
-1.41015e-05
-1.41012e-05
-1.41007e-05
-1.41002e-05
-1.40996e-05
-1.4099e-05
-1.40983e-05
-1.40975e-05
-1.40967e-05
-1.40959e-05
-1.4095e-05
-1.4094e-05
-1.4093e-05
-1.4092e-05
-1.40908e-05
-1.40897e-05
-1.40885e-05
-1.40873e-05
-1.40859e-05
-1.40846e-05
-1.40832e-05
-1.40818e-05
-1.40803e-05
-1.40787e-05
-1.40771e-05
-1.40754e-05
-1.40736e-05
-1.40717e-05
-1.40698e-05
-1.40678e-05
-1.40657e-05
-1.40635e-05
-1.40612e-05
-1.40589e-05
-1.40564e-05
-1.40538e-05
-1.4051e-05
-1.4048e-05
-1.40449e-05
-1.40416e-05
-1.40381e-05
-1.40345e-05
-1.40305e-05
-1.40262e-05
-1.40216e-05
-1.40167e-05
-1.40113e-05
-1.40054e-05
-1.39989e-05
-1.39918e-05
-1.39838e-05
-1.39748e-05
-1.39645e-05
-1.39527e-05
-1.39388e-05
-1.39225e-05
-1.39025e-05
-1.38792e-05
-1.3848e-05
-1.3815e-05
-1.37593e-05
-1.37171e-05
-1.36015e-05
-1.35589e-05
-1.32989e-05
-1.32599e-05
-1.2681e-05
-1.2483e-05
-1.14636e-05
-1.05989e-05
-9.86449e-06
-9.53095e-06
-7.89759e-06
-8.36641e-06
0.000885573
0.00182231
0.00238655
0.00267181
0.00262221
0.00231683
0.0018765
0.00142797
0.00105476
0.000774751
0.000572513
0.000428301
0.000325364
0.000250634
0.000195065
0.000152871
0.000120298
9.48088e-05
7.46295e-05
5.8502e-05
4.55117e-05
3.49659e-05
2.63724e-05
1.93363e-05
1.35638e-05
8.82231e-06
4.91947e-06
1.70367e-06
-9.40009e-07
-3.13109e-06
-4.95624e-06
-6.47369e-06
-7.73368e-06
-8.78092e-06
-9.6523e-06
-1.03778e-05
-1.09817e-05
-1.14851e-05
-1.1905e-05
-1.22551e-05
-1.25474e-05
-1.27912e-05
-1.29947e-05
-1.3165e-05
-1.33072e-05
-1.34262e-05
-1.35259e-05
-1.36093e-05
-1.36793e-05
-1.3738e-05
-1.37872e-05
-1.38285e-05
-1.38633e-05
-1.38925e-05
-1.39171e-05
-1.39378e-05
-1.39553e-05
-1.397e-05
-1.39824e-05
-1.39929e-05
-1.40018e-05
-1.40093e-05
-1.40155e-05
-1.40209e-05
-1.40253e-05
-1.40291e-05
-1.40322e-05
-1.40347e-05
-1.40368e-05
-1.40386e-05
-1.40399e-05
-1.4041e-05
-1.40418e-05
-1.40424e-05
-1.40428e-05
-1.4043e-05
-1.40431e-05
-1.4043e-05
-1.40428e-05
-1.40425e-05
-1.40421e-05
-1.40415e-05
-1.40409e-05
-1.40402e-05
-1.40394e-05
-1.40385e-05
-1.40376e-05
-1.40366e-05
-1.40356e-05
-1.40345e-05
-1.40334e-05
-1.40322e-05
-1.40309e-05
-1.40296e-05
-1.40283e-05
-1.40269e-05
-1.40254e-05
-1.40239e-05
-1.40223e-05
-1.40206e-05
-1.40189e-05
-1.40171e-05
-1.40153e-05
-1.40134e-05
-1.40115e-05
-1.40095e-05
-1.40073e-05
-1.40052e-05
-1.40029e-05
-1.40005e-05
-1.3998e-05
-1.39954e-05
-1.39927e-05
-1.39899e-05
-1.39869e-05
-1.39838e-05
-1.39806e-05
-1.39772e-05
-1.39735e-05
-1.39697e-05
-1.39656e-05
-1.39614e-05
-1.39568e-05
-1.39519e-05
-1.39466e-05
-1.3941e-05
-1.39348e-05
-1.39281e-05
-1.39208e-05
-1.39126e-05
-1.39036e-05
-1.38934e-05
-1.38818e-05
-1.38685e-05
-1.38529e-05
-1.38349e-05
-1.38128e-05
-1.37869e-05
-1.37527e-05
-1.37159e-05
-1.36561e-05
-1.3606e-05
-1.34871e-05
-1.34244e-05
-1.3172e-05
-1.30706e-05
-1.25665e-05
-1.22353e-05
-1.14603e-05
-1.05295e-05
-1.00576e-05
-9.29869e-06
-8.78504e-06
-8.27445e-06
-9.21298e-06
0.000721654
0.00155146
0.00209686
0.00245554
0.00251821
0.0023011
0.00191657
0.00149557
0.00112775
0.000841631
0.000629878
0.000475966
0.000364266
0.000282174
0.000220648
0.000173681
0.000137283
0.000108713
8.60464e-05
6.79045e-05
5.32795e-05
4.14178e-05
3.1762e-05
2.3869e-05
1.73966e-05
1.20734e-05
7.68292e-06
4.05173e-06
1.04016e-06
-1.46735e-06
-3.54422e-06
-5.2634e-06
-6.69145e-06
-7.87851e-06
-8.86642e-06
-9.68917e-06
-1.03741e-05
-1.09444e-05
-1.142e-05
-1.18163e-05
-1.21473e-05
-1.24234e-05
-1.26538e-05
-1.28462e-05
-1.30069e-05
-1.31415e-05
-1.32541e-05
-1.33482e-05
-1.34273e-05
-1.34937e-05
-1.35493e-05
-1.35959e-05
-1.36352e-05
-1.36683e-05
-1.36961e-05
-1.37195e-05
-1.37394e-05
-1.3756e-05
-1.37701e-05
-1.37819e-05
-1.3792e-05
-1.38006e-05
-1.38077e-05
-1.38137e-05
-1.38187e-05
-1.3823e-05
-1.38265e-05
-1.38295e-05
-1.38319e-05
-1.38339e-05
-1.38356e-05
-1.38369e-05
-1.38379e-05
-1.38387e-05
-1.38392e-05
-1.38396e-05
-1.38398e-05
-1.38398e-05
-1.38397e-05
-1.38394e-05
-1.3839e-05
-1.38386e-05
-1.3838e-05
-1.38374e-05
-1.38366e-05
-1.38358e-05
-1.38349e-05
-1.38339e-05
-1.38329e-05
-1.38318e-05
-1.38307e-05
-1.38295e-05
-1.38282e-05
-1.38269e-05
-1.38254e-05
-1.3824e-05
-1.38225e-05
-1.38209e-05
-1.38192e-05
-1.38175e-05
-1.38158e-05
-1.38139e-05
-1.38121e-05
-1.38101e-05
-1.38081e-05
-1.38059e-05
-1.38036e-05
-1.38013e-05
-1.3799e-05
-1.37966e-05
-1.3794e-05
-1.37912e-05
-1.37885e-05
-1.37855e-05
-1.37824e-05
-1.37792e-05
-1.37757e-05
-1.3772e-05
-1.37682e-05
-1.37641e-05
-1.37599e-05
-1.37553e-05
-1.37505e-05
-1.37454e-05
-1.37398e-05
-1.37339e-05
-1.37274e-05
-1.37204e-05
-1.37128e-05
-1.37041e-05
-1.36945e-05
-1.36837e-05
-1.36714e-05
-1.36572e-05
-1.36407e-05
-1.36213e-05
-1.35978e-05
-1.35701e-05
-1.35337e-05
-1.34933e-05
-1.34307e-05
-1.33735e-05
-1.32537e-05
-1.31735e-05
-1.29366e-05
-1.27932e-05
-1.23556e-05
-1.19676e-05
-1.13341e-05
-1.04896e-05
-1.00254e-05
-9.37779e-06
-8.93823e-06
-8.63639e-06
-7.33508e-06
-9.37329e-06
0.000595511
0.00133027
0.00185447
0.00225879
0.00240297
0.00225915
0.00192729
0.00153739
0.00118142
0.000895242
0.000678372
0.000517724
0.000399208
0.000310999
0.000244313
0.000193096
0.000153226
0.000121829
9.68655e-05
7.68533e-05
6.06994e-05
4.75832e-05
3.68852e-05
2.8122e-05
2.09215e-05
1.49936e-05
1.01023e-05
6.06054e-06
2.71906e-06
-4.19241e-08
-2.32893e-06
-4.22946e-06
-5.80954e-06
-7.12434e-06
-8.2184e-06
-9.12961e-06
-9.88798e-06
-1.05196e-05
-1.10461e-05
-1.14853e-05
-1.18516e-05
-1.21574e-05
-1.24134e-05
-1.26272e-05
-1.28056e-05
-1.29552e-05
-1.30803e-05
-1.31849e-05
-1.32724e-05
-1.3346e-05
-1.34077e-05
-1.34595e-05
-1.35029e-05
-1.35395e-05
-1.35703e-05
-1.35962e-05
-1.3618e-05
-1.36365e-05
-1.36521e-05
-1.36652e-05
-1.36762e-05
-1.36856e-05
-1.36936e-05
-1.37002e-05
-1.37058e-05
-1.37106e-05
-1.37145e-05
-1.37178e-05
-1.37205e-05
-1.37228e-05
-1.37246e-05
-1.3726e-05
-1.37271e-05
-1.3728e-05
-1.37286e-05
-1.3729e-05
-1.37292e-05
-1.37292e-05
-1.3729e-05
-1.37288e-05
-1.37284e-05
-1.37279e-05
-1.37273e-05
-1.37266e-05
-1.37258e-05
-1.37249e-05
-1.37238e-05
-1.37227e-05
-1.37216e-05
-1.37204e-05
-1.37192e-05
-1.37178e-05
-1.37164e-05
-1.3715e-05
-1.37135e-05
-1.3712e-05
-1.37104e-05
-1.37087e-05
-1.37068e-05
-1.37049e-05
-1.3703e-05
-1.37011e-05
-1.3699e-05
-1.36969e-05
-1.36948e-05
-1.36925e-05
-1.369e-05
-1.36874e-05
-1.36847e-05
-1.36821e-05
-1.36793e-05
-1.36762e-05
-1.36731e-05
-1.367e-05
-1.36666e-05
-1.3663e-05
-1.36593e-05
-1.36553e-05
-1.36511e-05
-1.36467e-05
-1.36421e-05
-1.36373e-05
-1.3632e-05
-1.36264e-05
-1.36202e-05
-1.36136e-05
-1.36062e-05
-1.35983e-05
-1.35897e-05
-1.35803e-05
-1.35699e-05
-1.35581e-05
-1.35444e-05
-1.3529e-05
-1.35109e-05
-1.34897e-05
-1.34637e-05
-1.34335e-05
-1.33941e-05
-1.33496e-05
-1.32841e-05
-1.32198e-05
-1.31e-05
-1.30026e-05
-1.2776e-05
-1.25924e-05
-1.22e-05
-1.17722e-05
-1.12418e-05
-1.04461e-05
-1.00572e-05
-9.35612e-06
-9.18731e-06
-8.41801e-06
-8.61605e-06
-7.47088e-06
-1.07949e-05
0.000497654
0.00114853
0.00164981
0.00208019
0.00228266
0.00219918
0.00191592
0.00155849
0.00121858
0.000936872
0.000718448
0.000553621
0.000430077
0.000336964
0.00026593
0.000211019
0.000168066
0.000134121
0.000107055
8.53077e-05
6.77206e-05
5.3424e-05
4.17547e-05
3.21971e-05
2.4347e-05
1.78862e-05
1.25559e-05
8.14926e-06
4.50066e-06
1.47296e-06
-1.04387e-06
-3.13584e-06
-4.87208e-06
-6.31649e-06
-7.51788e-06
-8.51772e-06
-9.35015e-06
-1.00441e-05
-1.06226e-05
-1.11051e-05
-1.15076e-05
-1.1843e-05
-1.21239e-05
-1.23585e-05
-1.25542e-05
-1.27182e-05
-1.28552e-05
-1.29701e-05
-1.30663e-05
-1.31467e-05
-1.32142e-05
-1.32712e-05
-1.33189e-05
-1.33588e-05
-1.33925e-05
-1.34209e-05
-1.34447e-05
-1.34648e-05
-1.34818e-05
-1.34963e-05
-1.35084e-05
-1.35185e-05
-1.35272e-05
-1.35344e-05
-1.35405e-05
-1.35455e-05
-1.35497e-05
-1.35531e-05
-1.35559e-05
-1.35581e-05
-1.35599e-05
-1.35614e-05
-1.35625e-05
-1.35633e-05
-1.35639e-05
-1.35643e-05
-1.35645e-05
-1.35645e-05
-1.35643e-05
-1.35639e-05
-1.35635e-05
-1.35629e-05
-1.35623e-05
-1.35615e-05
-1.35607e-05
-1.35597e-05
-1.35586e-05
-1.35574e-05
-1.35561e-05
-1.35547e-05
-1.35533e-05
-1.35518e-05
-1.35503e-05
-1.35487e-05
-1.35471e-05
-1.35454e-05
-1.35437e-05
-1.3542e-05
-1.35401e-05
-1.35381e-05
-1.3536e-05
-1.35337e-05
-1.35314e-05
-1.35291e-05
-1.35267e-05
-1.35243e-05
-1.35218e-05
-1.35191e-05
-1.35161e-05
-1.35132e-05
-1.35101e-05
-1.3507e-05
-1.35036e-05
-1.35001e-05
-1.34965e-05
-1.34926e-05
-1.34887e-05
-1.34845e-05
-1.34799e-05
-1.3475e-05
-1.34698e-05
-1.34643e-05
-1.34585e-05
-1.34524e-05
-1.34459e-05
-1.3439e-05
-1.34314e-05
-1.34232e-05
-1.34139e-05
-1.34039e-05
-1.33923e-05
-1.33802e-05
-1.33657e-05
-1.33493e-05
-1.33302e-05
-1.33079e-05
-1.32811e-05
-1.32496e-05
-1.32091e-05
-1.31628e-05
-1.30966e-05
-1.30272e-05
-1.29094e-05
-1.27998e-05
-1.25872e-05
-1.23832e-05
-1.20316e-05
-1.15978e-05
-1.11378e-05
-1.04105e-05
-1.00562e-05
-9.38889e-06
-9.25386e-06
-8.48977e-06
-8.77718e-06
-7.89187e-06
-8.24717e-06
0.000421006
0.000998324
0.00147564
0.00191825
0.00216147
0.00212724
0.00188803
0.00156297
0.00124169
0.000967748
0.000750642
0.000583847
0.000456901
0.000360037
0.000285455
0.000227404
0.000181757
0.000145537
0.000116565
9.32296e-05
7.4328e-05
5.89452e-05
4.63747e-05
3.60663e-05
2.75876e-05
2.0598e-05
1.48246e-05
1.00473e-05
6.08999e-06
2.811e-06
9.42705e-08
-2.16061e-06
-4.03459e-06
-5.5942e-06
-6.89244e-06
-7.97164e-06
-8.8719e-06
-9.62266e-06
-1.02477e-05
-1.07696e-05
-1.12048e-05
-1.1568e-05
-1.1871e-05
-1.21238e-05
-1.23357e-05
-1.25123e-05
-1.26598e-05
-1.27842e-05
-1.28881e-05
-1.29749e-05
-1.30475e-05
-1.31087e-05
-1.31603e-05
-1.32036e-05
-1.32402e-05
-1.3271e-05
-1.32967e-05
-1.33183e-05
-1.33366e-05
-1.3352e-05
-1.3365e-05
-1.33757e-05
-1.33847e-05
-1.33924e-05
-1.3399e-05
-1.34043e-05
-1.34089e-05
-1.34128e-05
-1.3416e-05
-1.34186e-05
-1.34207e-05
-1.34223e-05
-1.34235e-05
-1.34244e-05
-1.3425e-05
-1.34254e-05
-1.34256e-05
-1.34255e-05
-1.34253e-05
-1.34249e-05
-1.34242e-05
-1.34235e-05
-1.34226e-05
-1.34216e-05
-1.34206e-05
-1.34196e-05
-1.34186e-05
-1.34175e-05
-1.34163e-05
-1.3415e-05
-1.34135e-05
-1.3412e-05
-1.34104e-05
-1.34086e-05
-1.34068e-05
-1.34048e-05
-1.34027e-05
-1.34005e-05
-1.33985e-05
-1.33965e-05
-1.33943e-05
-1.33921e-05
-1.33897e-05
-1.33873e-05
-1.33845e-05
-1.33817e-05
-1.3379e-05
-1.33762e-05
-1.33735e-05
-1.33703e-05
-1.33669e-05
-1.33635e-05
-1.33601e-05
-1.33562e-05
-1.33523e-05
-1.33483e-05
-1.33438e-05
-1.33393e-05
-1.33348e-05
-1.33299e-05
-1.33247e-05
-1.33191e-05
-1.3313e-05
-1.33066e-05
-1.32996e-05
-1.32921e-05
-1.32841e-05
-1.32755e-05
-1.32656e-05
-1.3255e-05
-1.32429e-05
-1.32296e-05
-1.32146e-05
-1.31973e-05
-1.31772e-05
-1.31537e-05
-1.31255e-05
-1.30922e-05
-1.305e-05
-1.30008e-05
-1.29321e-05
-1.28561e-05
-1.2738e-05
-1.26176e-05
-1.24148e-05
-1.21966e-05
-1.18728e-05
-1.14483e-05
-1.10321e-05
-1.03823e-05
-1.0032e-05
-9.44754e-06
-9.22826e-06
-8.751e-06
-8.50346e-06
-8.6216e-06
-8.2174e-06
-9.34968e-06
0.000360314
0.000873549
0.00132637
0.00177144
0.00204215
0.00204775
0.00184795
0.00155419
0.00125292
0.000989075
0.000775562
0.000608672
0.000479767
0.000380211
0.000302839
0.000242188
0.000194232
0.000156017
0.000125347
0.000100584
8.04869e-05
6.41009e-05
5.06902e-05
3.96804e-05
3.06206e-05
2.31505e-05
1.69817e-05
1.1879e-05
7.65269e-06
4.14727e-06
1.23668e-06
-1.18403e-06
-3.19804e-06
-4.87252e-06
-6.26673e-06
-7.4263e-06
-8.393e-06
-9.199e-06
-9.86965e-06
-1.04297e-05
-1.08962e-05
-1.12862e-05
-1.1611e-05
-1.18822e-05
-1.21101e-05
-1.22994e-05
-1.2458e-05
-1.25912e-05
-1.27024e-05
-1.27953e-05
-1.28735e-05
-1.2939e-05
-1.29941e-05
-1.30405e-05
-1.30795e-05
-1.31121e-05
-1.31396e-05
-1.31628e-05
-1.31823e-05
-1.31985e-05
-1.32122e-05
-1.32237e-05
-1.32334e-05
-1.32416e-05
-1.32486e-05
-1.32544e-05
-1.32594e-05
-1.32638e-05
-1.32674e-05
-1.32703e-05
-1.32727e-05
-1.32746e-05
-1.32761e-05
-1.32772e-05
-1.32779e-05
-1.32783e-05
-1.32785e-05
-1.32784e-05
-1.32782e-05
-1.32777e-05
-1.3277e-05
-1.32763e-05
-1.32752e-05
-1.32741e-05
-1.32731e-05
-1.32721e-05
-1.32711e-05
-1.327e-05
-1.32687e-05
-1.32673e-05
-1.32658e-05
-1.32642e-05
-1.32625e-05
-1.32607e-05
-1.32588e-05
-1.32567e-05
-1.32546e-05
-1.32522e-05
-1.32504e-05
-1.32485e-05
-1.32462e-05
-1.32438e-05
-1.32412e-05
-1.32386e-05
-1.32356e-05
-1.32324e-05
-1.32295e-05
-1.32266e-05
-1.32235e-05
-1.32199e-05
-1.32162e-05
-1.32127e-05
-1.32091e-05
-1.32048e-05
-1.32005e-05
-1.31962e-05
-1.31914e-05
-1.31867e-05
-1.3182e-05
-1.31769e-05
-1.31715e-05
-1.31656e-05
-1.31593e-05
-1.31525e-05
-1.31449e-05
-1.31368e-05
-1.31281e-05
-1.31189e-05
-1.31085e-05
-1.30975e-05
-1.3085e-05
-1.30704e-05
-1.30545e-05
-1.30363e-05
-1.30151e-05
-1.29905e-05
-1.29609e-05
-1.29258e-05
-1.28821e-05
-1.28301e-05
-1.27609e-05
-1.2682e-05
-1.25669e-05
-1.24399e-05
-1.22456e-05
-1.20212e-05
-1.17194e-05
-1.13141e-05
-1.09304e-05
-1.03516e-05
-1.0008e-05
-9.4805e-06
-9.26666e-06
-8.79271e-06
-8.67653e-06
-8.52619e-06
-8.7971e-06
-6.90425e-06
-1.05686e-05
0.000311697
0.000769334
0.0011976
0.00163825
0.00192644
0.00196392
0.00179901
0.00153491
0.00125414
0.00100199
0.000793823
0.000628391
0.000498787
0.000397506
0.000318059
0.000255328
0.000205449
0.000165524
0.000133372
0.000107342
8.61663e-05
6.8871e-05
5.46996e-05
4.30553e-05
3.34665e-05
2.55534e-05
1.90112e-05
1.35936e-05
9.1014e-06
5.3731e-06
2.27835e-06
-2.92087e-07
-2.42935e-06
-4.20626e-06
-5.68518e-06
-6.9173e-06
-7.94351e-06
-8.79907e-06
-9.51177e-06
-1.01063e-05
-1.06023e-05
-1.10162e-05
-1.13618e-05
-1.16505e-05
-1.18918e-05
-1.20934e-05
-1.22621e-05
-1.2403e-05
-1.25211e-05
-1.26199e-05
-1.27033e-05
-1.27731e-05
-1.28314e-05
-1.28804e-05
-1.29214e-05
-1.2956e-05
-1.29852e-05
-1.30098e-05
-1.30304e-05
-1.30477e-05
-1.30625e-05
-1.30749e-05
-1.30853e-05
-1.30942e-05
-1.31016e-05
-1.31078e-05
-1.31131e-05
-1.31174e-05
-1.31209e-05
-1.31237e-05
-1.3126e-05
-1.31278e-05
-1.31294e-05
-1.31305e-05
-1.31311e-05
-1.31315e-05
-1.31317e-05
-1.31316e-05
-1.31313e-05
-1.31309e-05
-1.31303e-05
-1.31296e-05
-1.31287e-05
-1.31278e-05
-1.31269e-05
-1.31258e-05
-1.31245e-05
-1.31231e-05
-1.31216e-05
-1.312e-05
-1.31183e-05
-1.31166e-05
-1.31148e-05
-1.31129e-05
-1.31109e-05
-1.31088e-05
-1.31067e-05
-1.31046e-05
-1.31027e-05
-1.31003e-05
-1.30976e-05
-1.30948e-05
-1.30921e-05
-1.30892e-05
-1.30862e-05
-1.30832e-05
-1.30802e-05
-1.3077e-05
-1.30734e-05
-1.30698e-05
-1.30663e-05
-1.30627e-05
-1.30585e-05
-1.30542e-05
-1.30497e-05
-1.30451e-05
-1.30402e-05
-1.30354e-05
-1.30301e-05
-1.30243e-05
-1.30181e-05
-1.30116e-05
-1.30048e-05
-1.29972e-05
-1.29893e-05
-1.29809e-05
-1.29718e-05
-1.29619e-05
-1.29511e-05
-1.29391e-05
-1.29257e-05
-1.29107e-05
-1.28941e-05
-1.2875e-05
-1.28529e-05
-1.28271e-05