/*--------------------------------*- C++ -*----------------------------------*\
| =========                 |                                                 |
| \\      /  F ield         | OpenFOAM: The Open Source CFD Toolbox           |
|  \\    /   O peration     | Version:  2512                                  |
|   \\  /    A nd           | Website:  www.openfoam.com                      |
|    \\/     M anipulation  |                                                 |
\*---------------------------------------------------------------------------*/
FoamFile
{
    version     2.0;
    format      ascii;
    arch        "LSB;label=32;scalar=64";
    class       volScalarField;
    location    "0.1";
    object      Uz;
}
// * * * * * * * * * * * * * * * * * * * * * * * * * * * * * * * * * * * * * //

dimensions      [0 1 -1 0 0 0 0];

internalField   nonuniform List<scalar> 
8333
(
1.2905e-20
6.44782e-21
2.26459e-20
5.67478e-20
1.1883e-19
-1.3432e-19
-2.02365e-19
-4.07184e-19
-5.66722e-19
-5.52509e-19
-3.67297e-19
-2.77393e-19
1.2664e-19
-5.33302e-19
1.23585e-18
-2.40949e-18
5.20033e-18
-1.47967e-17
-5.00025e-18
-5.92985e-18
3.2821e-18
-1.49047e-17
-5.43715e-18
-6.07092e-18
2.96077e-18
-1.44855e-17
-6.60082e-18
-3.63563e-18
-1.92295e-18
-9.80149e-19
-1.70436e-19
-6.24391e-19
1.17473e-18
-2.38401e-18
5.00588e-18
-1.36526e-17
-6.21491e-18
-3.50889e-18
-1.80526e-18
-1.00337e-18
-2.02447e-19
-1.5701e-19
-6.09282e-20
1.14468e-19
2.44328e-19
1.95793e-19
2.43356e-19
-6.22841e-21
2.16334e-19
-6.20011e-21
-1.21672e-20
1.02246e-19
3.01769e-19
-2.18359e-21
7.41808e-19
-1.19647e-18
2.6569e-18
-5.08218e-18
1.38479e-17
6.54661e-18
3.80757e-18
2.16153e-18
1.09556e-18
5.04405e-19
2.0642e-19
1.3892e-19
-2.92656e-21
1.76612e-19
-8.19387e-20
1.25398e-19
1.2879e-19
-2.06896e-20
-1.2265e-19
-1.16042e-19
-5.54387e-20
1.89999e-21
3.70874e-20
5.16552e-20
6.27031e-20
4.84087e-20
9.32218e-20
-8.65549e-21
1.836e-19
-7.9668e-20
1.39285e-19
1.36517e-19
-2.22596e-20
-1.24937e-19
-1.14529e-19
-5.1452e-20
6.32008e-21
4.02661e-20
5.58111e-20
5.97365e-20
6.59231e-20
5.02972e-20
9.36324e-20
-7.10419e-21
1.83936e-19
-7.97506e-20
1.41252e-19
1.37202e-19
-2.39554e-20
-1.26443e-19
-1.14964e-19
-5.14073e-20
6.2662e-21
3.99786e-20
5.46417e-20
5.92453e-20
6.00393e-20
5.91226e-20
5.87448e-20
5.64628e-20
5.79733e-20
5.25961e-20
5.34515e-20
4.78577e-20
3.81233e-20
3.1575e-20
3.15959e-20
3.65571e-20
4.25727e-20
4.761e-20
5.10796e-20
5.32788e-20
5.46955e-20
5.55507e-20
5.59133e-20
5.61983e-20
5.65863e-20
5.56208e-20
6.04036e-20
4.08387e-20
1.10885e-19
-1.17946e-19
5.35057e-19
-1.10159e-18
2.51508e-18
-5.11317e-18
1.41774e-17
6.59087e-18
3.66363e-18
1.96946e-18
9.50998e-19
4.20443e-19
1.8625e-19
9.72557e-20
6.76303e-20
7.34773e-20
-1.64566e-20
-2.97575e-21
6.66422e-21
4.32432e-19
-6.05125e-19
-9.35765e-19
-1.81046e-18
-2.53758e-18
-2.65484e-18
-1.92638e-18
-1.6317e-18
3.28045e-19
-2.38977e-18
4.0747e-18
-6.6492e-18
9.79554e-18
-1.4042e-17
-5.84028e-18
-1.50379e-17
4.09229e-18
-1.72042e-17
-7.88067e-18
-1.56206e-17
2.72077e-18
-1.50062e-17
-1.19232e-17
-9.16924e-18
-6.02954e-18
-3.82683e-18
-7.49106e-19
-2.75072e-18
3.82191e-18
-6.499e-18
9.05544e-18
-1.17909e-17
-1.02023e-17
-8.60539e-18
-5.43564e-18
-3.94896e-18
-1.00073e-18
-8.29986e-19
-4.38594e-19
2.15488e-19
8.90679e-19
7.05589e-19
1.10725e-18
-1.49793e-19
8.40752e-19
-6.94484e-20
-1.36515e-19
1.79397e-19
1.23073e-18
-2.00382e-19
3.16544e-18
-4.20745e-18
7.41755e-18
-9.29351e-18
1.16692e-17
1.09593e-17
9.45215e-18
6.87116e-18
4.11616e-18
2.12392e-18
8.50269e-19
5.96047e-19
-2.08046e-19
7.00307e-19
-4.93479e-19
3.07525e-19
3.7766e-19
-1.47895e-19
-6.43346e-19
-7.28733e-19
-5.15423e-19
-2.51309e-19
-6.11759e-20
2.53622e-20
1.05065e-19
8.60253e-21
2.93886e-19
-2.9661e-19
7.00675e-19
-5.17985e-19
3.42892e-19
4.04296e-19
-1.65832e-19
-6.74111e-19
-7.43551e-19
-5.13833e-19
-2.41894e-19
-5.5887e-20
4.30674e-20
7.18942e-20
1.22234e-19
1.72944e-20
2.93489e-19
-2.91319e-19
7.01079e-19
-5.21055e-19
3.48429e-19
4.11761e-19
-1.70604e-19
-6.80424e-19
-7.44484e-19
-5.11052e-19
-2.38912e-19
-5.33066e-20
4.0994e-20
7.88131e-20
9.18963e-20
9.30671e-20
9.55664e-20
8.80693e-20
9.68156e-20
8.38638e-20
8.5974e-20
8.5299e-20
7.09427e-20
5.36188e-20
4.65306e-20
5.20295e-20
6.24395e-20
7.22686e-20
7.92713e-20
8.36021e-20
8.64341e-20
8.82489e-20
8.88747e-20
8.91931e-20
9.12534e-20
8.36087e-20
1.15974e-19
-2.64223e-21
3.85537e-19
-7.37411e-19
2.06614e-18
-3.89009e-18
6.70726e-18
-9.23034e-18
1.22662e-17
1.08454e-17
8.79342e-18
5.99852e-18
3.40105e-18
1.64589e-18
7.16059e-19
3.09445e-19
1.57744e-19
1.08004e-19
4.10853e-19
-3.55033e-19
1.69978e-19
-3.14328e-19
2.50563e-19
-3.05793e-18
-3.92323e-18
-6.92505e-18
-8.08727e-18
-7.69782e-18
-5.64621e-18
-4.22999e-18
-6.64388e-19
-3.32159e-18
3.79341e-18
-5.54952e-18
6.93714e-18
-9.58834e-18
-2.00959e-18
-1.18996e-17
1.8521e-18
-1.34795e-17
-4.68462e-18
-1.26378e-17
-6.84491e-20
-1.1392e-17
-8.55642e-18
-7.49541e-18
-5.67908e-18
-4.34017e-18
-8.67542e-19
-3.32141e-18
3.5808e-18
-5.2786e-18
6.03938e-18
-7.71811e-18
-6.31148e-18
-7.04438e-18
-4.24229e-18
-5.31523e-18
-1.18833e-19
-2.10195e-18
-7.66258e-20
1.25502e-18
2.60752e-18
1.81791e-18
2.98301e-18
-5.4593e-19
2.43651e-18
-9.25756e-19
4.55357e-19
1.20696e-18
3.11067e-18
6.18572e-19
5.34562e-18
-4.51896e-18
7.70528e-18
-6.92373e-18
7.54248e-18
8.23102e-18
9.0219e-18
7.9857e-18
5.53631e-18
3.28026e-18
1.29848e-18
1.28751e-18
-8.03181e-19
1.84801e-18
-1.68489e-18
1.3407e-18
-2.76343e-20
-1.22829e-18
-2.119e-18
-2.16783e-18
-1.5776e-18
-8.73472e-19
-3.46751e-19
-1.02718e-19
1.49099e-19
-1.50955e-19
7.0906e-19
-1.00956e-18
1.85189e-18
-1.78235e-18
1.41591e-18
3.00429e-20
-1.29115e-18
-2.22656e-18
-2.23567e-18
-1.59593e-18
-8.61824e-19
-3.4431e-19
-5.2913e-20
3.35397e-20
1.99808e-19
-1.25382e-19
7.06082e-19
-9.9575e-19
1.85014e-18
-1.78687e-18
1.41029e-18
8.23234e-20
-1.28242e-18
-2.2359e-18
-2.23473e-18
-1.58539e-18
-8.50765e-19
-3.33345e-19
-5.65988e-20
6.17447e-20
1.08861e-19
1.15403e-19
1.315e-19
1.05054e-19
1.40309e-19
1.07606e-19
1.08183e-19
1.24846e-19
1.11578e-19
7.76465e-20
5.56838e-20
5.99814e-20
7.59486e-20
9.22111e-20
1.03581e-19
1.09937e-19
1.14106e-19
1.1715e-19
1.17285e-19
1.17602e-19
1.21634e-19
1.06068e-19
1.65878e-19
-3.2941e-20
5.56842e-19
-9.7011e-19
2.39451e-18
-3.79093e-18
5.49216e-18
-6.08393e-18
7.81132e-18
7.08892e-18
6.92297e-18
5.66227e-18
3.73397e-18
2.04749e-18
9.85346e-19
4.54206e-19
2.33015e-19
1.52529e-19
1.26738e-19
1.39463e-18
-2.30567e-18
2.83509e-18
-5.00917e-18
-7.97587e-18
-1.5451e-17
-1.63407e-17
-2.3787e-17
-1.86776e-17
-1.45799e-17
-9.96432e-18
-6.64406e-18
-2.12577e-18
-3.03228e-18
1.58794e-18
-1.04845e-18
-1.52308e-18
6.10672e-18
5.34096e-18
-1.68017e-18
-3.70935e-18
3.48815e-18
3.21956e-18
-2.23912e-18
-5.38876e-18
5.00239e-18
1.49736e-18
-1.61326e-18
-2.61522e-18
-2.89276e-18
-5.17891e-19
-2.3525e-18
1.55714e-18
-7.30325e-19
-2.38939e-18
7.44767e-18
3.46794e-18
-1.6028e-18
-4.16998e-19
-5.23405e-18
2.65253e-18
-5.68253e-18
7.16139e-18
5.5286e-18
5.58476e-18
3.34863e-18
4.92517e-18
-1.12722e-18
5.03055e-18
-4.49656e-18
7.71421e-18
5.49799e-18
6.01317e-18
2.36055e-18
6.49158e-18
-3.03182e-18
5.7704e-18
-1.93207e-18
-1.13718e-19
3.00606e-18
6.11935e-18
6.90172e-18
5.42591e-18
3.60566e-18
1.41422e-18
1.88743e-18
-1.39794e-18
3.31605e-18
-3.73437e-18
5.17607e-18
-7.06661e-18
-5.22201e-18
-4.66085e-18
-3.84238e-18
-2.58501e-18
-1.38071e-18
-5.22086e-19
-1.32766e-19
2.82462e-19
-2.14361e-19
1.20569e-18
-1.66857e-18
3.34599e-18
-3.91674e-18
5.31515e-18
-6.8971e-18
-5.35805e-18
-4.86215e-18
-3.97227e-18
-2.62928e-18
-1.36956e-18
-5.25144e-19
-5.16293e-20
8.8925e-20
3.6611e-19
-1.70199e-19
1.19967e-18
-1.64332e-18
3.33591e-18
-3.89524e-18
5.21336e-18
-6.83625e-18
-5.23971e-18
-4.84169e-18
-3.95962e-18
-2.60935e-18
-1.35046e-18
-5.03542e-19
-5.34429e-20
1.35051e-19
2.22742e-19
2.1744e-19
2.82168e-19
1.71827e-19
3.2222e-19
1.98162e-19
2.01674e-19
2.84106e-19
2.64391e-19
1.65137e-19
9.37915e-20
1.03013e-19
1.44251e-19
1.85381e-19
2.11733e-19
2.24174e-19
2.32123e-19
2.39622e-19
2.36233e-19
2.37814e-19
2.41898e-19
2.2534e-19
2.87805e-19
9.59091e-20
6.25044e-19
-6.14795e-19
1.73114e-18
-1.58508e-18
1.04389e-18
2.66571e-18
-7.41248e-18
-2.45061e-18
1.27149e-18
2.78555e-18
2.56132e-18
1.7123e-18
9.80145e-19
5.50633e-19
3.54676e-19
2.74901e-19
2.46395e-19
2.38163e-19
9.64671e-19
-1.24383e-18
6.4075e-19
-7.20558e-19
-4.9976e-20
-3.89999e-18
-4.56684e-18
-7.47156e-18
-8.81584e-18
-8.78826e-18
-6.52011e-18
-5.18916e-18
-2.08538e-19
-3.98603e-18
5.12766e-18
-5.33554e-18
7.27748e-18
-8.86683e-18
7.64245e-19
-1.13986e-17
1.18547e-18
-1.35653e-17
-2.67831e-18
-1.22339e-17
-1.56063e-18
-1.10443e-17
-7.2246e-18
-7.34627e-18
-6.1121e-18
-5.22645e-18
-5.42802e-19
-4.32316e-18
4.23749e-18
-5.06639e-18
5.33506e-18
-6.00797e-18
-4.45206e-18
-6.1023e-18
-4.4097e-18
-5.61873e-18
-5.47553e-19
-1.87317e-18
3.73044e-19
1.70177e-18
2.99552e-18
2.27201e-18
3.44218e-18
1.98514e-19
2.91862e-18
-1.81631e-19
1.2214e-18
1.64439e-18
3.8127e-18
5.76178e-19
6.51711e-18
-4.33525e-18
8.03307e-18
-5.11414e-18
7.48715e-18
7.50402e-18
9.11451e-18
9.03377e-18
6.97189e-18
4.69321e-18
2.33518e-18
2.30617e-18
-2.38228e-19
2.70154e-18
-9.95228e-19
1.82768e-18
7.61861e-19
-3.6459e-19
-1.42713e-18
-1.68905e-18
-1.16434e-18
-4.20318e-19
1.94374e-19
4.75422e-19
8.1274e-19
4.19378e-19
1.49663e-18
-5.46466e-19
2.67652e-18
-1.12929e-18
1.88786e-18
8.26845e-19
-4.11087e-19
-1.55045e-18
-1.76694e-18
-1.18732e-18
-3.98114e-19
1.92452e-19
5.50414e-19
6.63867e-19
8.91205e-19
4.67691e-19
1.49364e-18
-5.24797e-19
2.67935e-18
-1.12916e-18
1.8904e-18
8.95477e-19
-3.95219e-19
-1.55684e-18
-1.76374e-18
-1.18326e-18
-3.89692e-19
2.20185e-19
5.67099e-19
6.89364e-19
8.02298e-19
7.10817e-19
9.47689e-19
5.04615e-19
1.13134e-18
5.77197e-19
6.9285e-19
9.91166e-19
8.74461e-19
5.12598e-19
2.7896e-19
3.37318e-19
4.88603e-19
6.29384e-19
7.1304e-19
7.49347e-19
7.70157e-19
7.96432e-19
7.78898e-19
7.83248e-19
7.89213e-19
7.66965e-19
8.65296e-19
5.64537e-19
1.42076e-18
-6.7874e-19
3.6008e-18
-3.54585e-18
5.92712e-18
-4.22838e-18
6.83076e-18
6.3406e-18
7.1291e-18
6.72759e-18
5.09557e-18
3.27856e-18
1.98775e-18
1.28034e-18
9.74483e-19
8.42042e-19
7.92019e-19
7.76157e-19
1.75271e-19
-9.59071e-20
2.35815e-19
-1.9069e-19
1.85902e-18
2.39689e-19
1.93919e-19
-1.4299e-18
-3.62199e-18
-5.02003e-18
-3.63459e-18
-3.3402e-18
2.65365e-18
-3.55384e-18
9.54669e-18
-6.29833e-18
1.24856e-17
-9.464e-18
3.23095e-18
-1.57396e-17
3.38859e-18
-1.62921e-17
-1.53117e-18
-1.73104e-17
-7.34867e-19
-1.32246e-17
-8.27771e-18
-1.03408e-17
-7.67265e-18
-6.04896e-18
5.39319e-19
-5.4288e-18
6.89032e-18
-6.52582e-18
8.48881e-18
-4.79232e-18
-4.80374e-18
-6.36633e-18
-6.26978e-18
-4.15012e-18
-1.43545e-18
7.08246e-19
1.94333e-18
2.56378e-18
2.75241e-18
2.82004e-18
2.85877e-18
2.82219e-18
2.90193e-18
2.79847e-18
3.0324e-18
2.49079e-18
3.88361e-18
5.59529e-19
7.05235e-18
-3.40775e-18
1.01083e-17
-4.04239e-18
9.97434e-18
1.04158e-17
1.18122e-17
1.13606e-17
9.10212e-18
6.76428e-18
4.49055e-18
4.18942e-18
2.20138e-18
4.13184e-18
2.00297e-18
2.95896e-18
3.41446e-18
2.74693e-18
1.77346e-18
1.27657e-18
1.50467e-18
1.96226e-18
2.41686e-18
2.58769e-18
2.87118e-18
2.56129e-18
3.36795e-18
1.90886e-18
4.08277e-18
1.89608e-18
2.97578e-18
3.45481e-18
2.7771e-18
1.67591e-18
1.23728e-18
1.49768e-18
2.0142e-18
2.41432e-18
2.66538e-18
2.76535e-18
2.96096e-18
2.63231e-18
3.3591e-18
1.92731e-18
4.08125e-18
1.90999e-18
3.01532e-18
3.50823e-18
2.78543e-18
1.68149e-18
1.24401e-18
1.47571e-18
2.00003e-18
2.46345e-18
2.74351e-18
2.75768e-18
2.96816e-18
2.63015e-18
3.39424e-18
1.89714e-18
4.15094e-18
1.87914e-18
2.95959e-18
3.5103e-18
2.78209e-18
1.64791e-18
1.07384e-18
1.41173e-18
1.95287e-18
2.4093e-18
2.67107e-18
2.78274e-18
2.83222e-18
2.91948e-18
2.86023e-18
2.86559e-18
2.87406e-18
2.86744e-18
2.9831e-18
2.63972e-18
3.6637e-18
1.0506e-18
6.48492e-18
-2.81672e-18
9.92151e-18
-4.08812e-18
1.00446e-17
1.06137e-17
1.15473e-17
1.06742e-17
8.38369e-18
5.99669e-18
4.3677e-18
3.48125e-18
3.12507e-18
2.93775e-18
2.8588e-18
2.83254e-18
2.80401e-18
-5.92467e-19
2.16917e-18
1.64251e-18
2.48917e-18
6.4324e-18
3.09855e-18
3.65676e-18
-1.51935e-18
-4.91196e-18
-5.8711e-18
-2.86337e-18
-6.69351e-19
7.33997e-18
1.37224e-18
1.62885e-17
-8.41678e-19
1.97035e-17
-4.40817e-18
1.14022e-17
-1.21953e-17
1.09608e-17
-1.20254e-17
5.13326e-18
-1.58045e-17
5.14528e-18
-1.02333e-17
-2.10318e-18
-9.45192e-18
-2.06079e-18
-2.6135e-18
3.98347e-18
-3.3374e-18
1.07096e-17
-3.21728e-18
1.3689e-17
1.44509e-18
8.03576e-19
-2.9973e-19
-1.89435e-18
3.06016e-18
2.85445e-18
7.97689e-18
8.03997e-18
7.92689e-18
6.86724e-18
7.69771e-18
6.6234e-18
9.79438e-18
7.26871e-18
1.00897e-17
9.25196e-18
7.85802e-18
7.98767e-18
5.53399e-18
1.06021e-17
3.99549e-18
1.37452e-17
4.08433e-18
1.55555e-17
1.4662e-17
1.54681e-17
1.51487e-17
1.35864e-17
1.21286e-17
1.03155e-17
1.0547e-17
8.07953e-18
1.12026e-17
7.50361e-18
1.03806e-17
9.36652e-18
8.02196e-18
7.14548e-18
6.83026e-18
7.39361e-18
8.04999e-18
8.71735e-18
8.8424e-18
9.26869e-18
8.86351e-18
9.92381e-18
7.9258e-18
1.12414e-17
7.4647e-18
1.04004e-17
9.3874e-18
8.17035e-18
6.91818e-18
6.76892e-18
7.37663e-18
8.19253e-18
8.7058e-18
8.95039e-18
9.10183e-18
9.40699e-18
8.99219e-18
9.84923e-18
7.90151e-18
1.11598e-17
7.50521e-18
1.05163e-17
9.46066e-18
8.17732e-18
6.98265e-18
6.76604e-18
7.30834e-18
8.09992e-18
8.77316e-18
9.19605e-18
9.08637e-18
9.5228e-18
8.66042e-18
1.05969e-17
6.6987e-18
1.2973e-17
5.62517e-18
1.15811e-17
9.43957e-18
6.91198e-18
4.82306e-18
4.22032e-18
5.53957e-18
7.08954e-18
8.20033e-18
8.87201e-18
9.14757e-18
9.21453e-18
9.43058e-18
9.28888e-18
9.27054e-18
9.25626e-18
9.34063e-18
9.44008e-18
9.23392e-18
9.96371e-18
7.93015e-18
1.21603e-17
5.05671e-18
1.453e-17
4.18219e-18
1.53629e-17
1.51345e-17
1.56802e-17
1.51922e-17
1.36013e-17
1.17478e-17
1.05246e-17
9.78606e-18
9.54175e-18
9.35674e-18
9.21564e-18
9.20088e-18
9.15458e-18
9.30073e-18
2.06897e-18
1.33912e-17
1.08653e-17
2.18636e-17
1.59177e-17
1.21544e-18
7.32058e-19
-1.59044e-17
-8.69514e-18
-2.63416e-18
4.78023e-18
1.04168e-17
2.04095e-17
1.63909e-17
3.08889e-17
1.48488e-17
3.51434e-17
1.03061e-17
2.80911e-17
1.80354e-18
3.10679e-17
-3.40348e-18
1.84185e-17
-5.09478e-18
2.34974e-17
-5.00931e-18
1.18607e-17
-1.428e-18
1.89965e-17
-1.86544e-18
1.06819e-17
6.14859e-18
2.164e-17
9.98009e-18
2.74906e-17
1.61787e-17
1.60292e-17
1.5688e-17
1.30665e-17
2.05112e-17
1.61194e-17
2.71316e-17
1.65259e-17
1.9386e-17
1.93312e-17
2.13864e-17
1.9986e-17
2.60373e-17
1.99749e-17
2.89253e-17
1.78107e-17
1.92636e-17
2.00708e-17
1.96914e-17
2.29818e-17
2.18733e-17
2.401e-17
2.72194e-17
1.72329e-17
2.13268e-17
2.46603e-17
2.64449e-17
2.64981e-17
2.62967e-17
2.52081e-17
2.57387e-17
2.25975e-17
2.79647e-17
2.06976e-17
2.9861e-17
1.7972e-17
1.88823e-17
2.00917e-17
2.07728e-17
2.19501e-17
2.29408e-17
2.37889e-17
2.37754e-17
2.47444e-17
2.41535e-17
2.57852e-17
2.26618e-17
2.8172e-17
2.09058e-17
2.98649e-17
1.79004e-17
1.94261e-17
1.93661e-17
2.06361e-17
2.21161e-17
2.34335e-17
2.39604e-17
2.38849e-17
2.43311e-17
2.47489e-17
2.44161e-17
2.52057e-17
2.25232e-17
2.78004e-17
2.11115e-17
3.00432e-17
1.79707e-17
1.95249e-17
1.96968e-17
2.04592e-17
2.19233e-17
2.30568e-17
2.39889e-17
2.47757e-17
2.43151e-17
2.51842e-17
2.33887e-17
2.677e-17
1.9945e-17
3.1614e-17
1.59341e-17
3.51547e-17
1.13796e-17
1.35689e-17
1.43439e-17
1.54261e-17
1.82432e-17
2.14046e-17
2.27739e-17
2.397e-17
2.45493e-17
2.45952e-17
2.49375e-17
2.45126e-17
2.45985e-17
2.42281e-17
2.48846e-17
2.49449e-17
2.48451e-17
2.53547e-17
2.4166e-17
2.62318e-17
2.33557e-17
2.53053e-17
2.73261e-17
1.68681e-17
2.21121e-17
2.51766e-17
2.66994e-17
2.69006e-17
2.60243e-17
2.56042e-17
2.50513e-17
2.48066e-17
2.49421e-17
2.42971e-17
2.45169e-17
2.44115e-17
2.46259e-17
-1.50108e-18
5.28572e-18
5.03591e-18
8.77238e-18
1.71952e-17
9.58462e-18
1.06243e-17
1.59823e-18
-4.19114e-18
-6.53848e-18
-4.32851e-18
-1.08308e-18
5.62152e-18
3.45484e-18
1.32759e-17
2.63506e-18
1.74445e-17
-3.05941e-18
1.21543e-17
-6.45652e-18
1.32388e-17
-7.34815e-18
7.42537e-18
-1.15498e-17
7.01524e-18
-9.82144e-18
1.70291e-18
-8.80259e-18
8.8889e-19
-1.02755e-18
3.21694e-18
-4.00595e-18
7.22373e-18
-3.48392e-18
1.15197e-17
8.6909e-19
1.58281e-18
1.47384e-18
-2.28114e-19
4.55276e-18
3.57571e-18
8.31556e-18
8.25074e-18
8.00869e-18
6.7103e-18
7.54645e-18
6.27516e-18
9.76173e-18
7.07208e-18
9.97768e-18
9.23822e-18
7.94955e-18
7.58877e-18
5.86516e-18
9.32615e-18
5.3731e-18
1.19215e-17
5.14937e-18
1.59181e-17
1.33447e-17
1.33302e-17
1.30011e-17
1.19774e-17
1.11269e-17
9.84383e-18
1.02077e-17
8.09924e-18
1.09571e-17
7.54177e-18
1.03692e-17
9.21766e-18
7.91856e-18
7.21018e-18
7.00246e-18
7.5556e-18
8.14298e-18
8.73868e-18
8.829e-18
9.21093e-18
8.85731e-18
9.78352e-18
8.0199e-18
1.10142e-17
7.51776e-18
1.03871e-17
9.23252e-18
8.06829e-18
6.9934e-18
6.94885e-18
7.5407e-18
8.2836e-18
8.72842e-18
8.92804e-18
9.06634e-18
9.34042e-18
8.98056e-18
9.70883e-18
7.99586e-18
1.09331e-17
7.56107e-18
1.05013e-17
9.30235e-18
8.07695e-18
7.06064e-18
6.94667e-18
7.47136e-18
8.18949e-18
8.79016e-18
9.18434e-18
9.0106e-18
9.57824e-18
8.33193e-18
1.11715e-17
5.47451e-18
1.46493e-17
3.73546e-18
1.26844e-17
9.36798e-18
5.59009e-18
2.52344e-18
1.82536e-18
3.72563e-18
5.99695e-18
7.64068e-18
8.60952e-18
9.01862e-18
9.13781e-18
9.37156e-18
9.23604e-18
9.2194e-18
9.20365e-18
9.29586e-18
9.36441e-18
9.25285e-18
9.71844e-18
8.3296e-18
1.12348e-17
6.3413e-18
1.29883e-17
5.13938e-18
1.52819e-17
1.39648e-17
1.37985e-17
1.33137e-17
1.22253e-17
1.09362e-17
1.01082e-17
9.58302e-18
9.43219e-18
9.28064e-18
9.15123e-18
9.1376e-18
9.09161e-18
9.23227e-18
9.25694e-18
2.43175e-18
1.22753e-17
1.40276e-17
1.98656e-17
2.48584e-17
1.34923e-17
1.81881e-17
1.76134e-18
-2.24838e-18
-5.52627e-18
-5.70909e-18
-4.01965e-18
-5.6466e-19
-1.54754e-19
3.13765e-18
1.78614e-18
2.03131e-18
6.0618e-18
1.12182e-17
-2.30303e-18
5.85745e-18
-1.79163e-18
4.96291e-18
-8.45113e-18
-2.27644e-19
-5.82135e-18
1.74255e-18
-9.89077e-18
5.0643e-19
-1.01627e-17
-4.38458e-18
-8.72903e-18
-2.12398e-19
-6.6685e-18
1.48975e-18
1.40345e-18
-3.26624e-19
-2.21766e-18
-3.63616e-18
-1.55243e-18
-7.75968e-19
1.22003e-18
2.27403e-18
2.49981e-18
1.97799e-18
2.18555e-18
1.61968e-18
2.80256e-18
2.09204e-18
2.61111e-18
3.03095e-18
2.43741e-18
2.76993e-18
6.41209e-19
4.35908e-18
-9.48768e-19
5.66863e-18
6.65568e-19
2.87449e-18
4.76833e-18
6.67906e-18
7.0952e-18
6.14033e-18
4.93146e-18
3.69622e-18
3.38974e-18
2.44947e-18
3.27472e-18
2.32124e-18
2.78863e-18
2.93963e-18
2.59339e-18
2.20764e-18
2.0054e-18
2.13153e-18
2.31698e-18
2.51496e-18
2.56283e-18
2.6968e-18
2.56234e-18
2.90394e-18
2.28443e-18
3.24311e-18
2.25848e-18
2.79162e-18
2.9598e-18
2.63446e-18
2.15126e-18
1.99775e-18
2.13499e-18
2.36651e-18
2.51915e-18
2.61263e-18
2.66691e-18
2.75767e-18
2.61416e-18
2.8937e-18
2.30293e-18
3.24452e-18
2.28125e-18
2.82607e-18
2.99949e-18
2.64845e-18
2.1655e-18
2.00304e-18
2.1065e-18
2.34283e-18
2.55169e-18
2.71157e-18
2.57661e-18
3.01511e-18
1.96178e-18
4.42304e-18
-5.5487e-19
7.63697e-18
-2.92322e-18
7.95347e-18
-3.36491e-18
-3.06256e-18
-4.2017e-18
-4.02598e-18
-2.19859e-18
-1.70636e-19
1.31137e-18
2.13072e-18
2.48526e-18
2.62958e-18
2.75134e-18
2.70417e-18
2.71162e-18
2.71941e-18
2.72216e-18
2.79384e-18
2.57764e-18
3.24341e-18
1.54094e-18
4.99021e-18
-6.36193e-19
6.30057e-18
4.51394e-19
2.73306e-18
5.25081e-18
7.13066e-18
7.31946e-18
6.19878e-18
4.75784e-18
3.71081e-18
3.12631e-18
2.89679e-18
2.75072e-18
2.68987e-18
2.67138e-18
2.64237e-18
2.6959e-18
2.7076e-18
2.70283e-18
-8.45116e-19
3.98367e-18
6.19831e-18
8.11773e-18
1.8276e-17
1.19825e-17
1.43668e-17
8.22827e-18
2.4621e-18
-2.11807e-18
-3.99958e-18
-3.75159e-18
-2.06084e-18
-1.75912e-18
8.03862e-19
-2.37726e-18
4.69472e-18
-9.19552e-18
1.67742e-18
-7.41793e-18
5.52966e-18
-1.01736e-17
-1.01897e-18
-1.16591e-17
3.99197e-19
-1.33665e-17
-4.39984e-18
-1.092e-17
-4.12702e-18
-5.5697e-18
-3.2675e-18
-8.59261e-18
-1.00406e-18
-8.95307e-18
2.45045e-18
-7.5906e-18
-5.82801e-18
-6.10836e-18
-5.85155e-18
-4.41085e-18
-2.66067e-18
-1.2739e-18
-4.77838e-19
-9.28428e-20
4.08728e-20
9.6495e-20
1.02759e-19
1.06307e-19
1.31518e-19
7.73597e-20
2.24541e-19
-1.76087e-19
8.46905e-19
-1.53154e-18
3.05847e-18
-4.22858e-18
5.04035e-18
-4.82124e-18
6.46722e-18
5.52726e-18
6.1819e-18
6.00374e-18
4.57427e-18
2.82731e-18
1.51199e-18
6.03783e-19
4.45252e-19
2.06317e-20
2.32688e-19
1.48272e-19
6.49711e-21
7.37183e-20
2.33885e-19
3.21711e-19
3.18368e-19
2.47221e-19
1.71255e-19
1.34083e-19
9.72251e-20
1.49352e-19
2.95358e-20
2.38701e-19
-4.22194e-20
2.03636e-19
1.527e-19
3.41401e-20
6.84198e-20
2.32e-19
3.41474e-19
3.33141e-19
2.74362e-19
1.96192e-19
1.47236e-19
1.44264e-19
1.09044e-19
1.44136e-19
2.24343e-20
2.64702e-19
-1.9419e-20
2.20248e-19
1.55222e-19
3.69024e-20
8.34195e-20
2.39375e-19
3.2276e-19
3.08973e-19
2.43715e-19
1.79114e-19
1.86499e-19
5.43429e-20
3.61927e-19
-4.76756e-19
1.4678e-18
-2.38846e-18
3.78222e-18
-3.67205e-18
2.35055e-18
1.91208e-19
-2.35583e-18
-4.553e-18
-4.88763e-18
-3.67709e-18
-2.13259e-18
-9.91488e-19
-3.40067e-19
-7.13568e-20
4.65425e-20
1.19092e-19
1.19974e-19
1.23193e-19
1.35258e-19
1.05577e-19
1.85446e-19
-1.126e-19
7.65677e-19
-1.36144e-18
2.97944e-18
-4.3321e-18
5.45322e-18
-5.23595e-18
6.48829e-18
6.02177e-18
6.69285e-18
6.18904e-18
4.51024e-18
2.66261e-18
1.3242e-18
6.25973e-19
3.10716e-19
1.54179e-19
1.14977e-19
1.17431e-19
1.03049e-19
9.68665e-20
1.13659e-19
1.2153e-19
9.73839e-20
3.01281e-18
1.1128e-17
1.41023e-17
1.95945e-17
2.35305e-17
1.27085e-17
1.77882e-17
2.23998e-18
6.579e-19
-1.83014e-18
-3.60014e-18
-3.73322e-18
-3.72561e-18
-2.48337e-18
-3.32421e-18
-1.34129e-18
-4.1547e-18
1.80631e-18
3.87251e-18
-3.64912e-18
1.89163e-18
-4.03442e-18
-1.09477e-18
-8.85603e-18
-3.0353e-18
-7.86611e-18
-2.98138e-18
-1.09124e-17
-1.42098e-18
-1.29895e-17
-8.22867e-18
-1.06124e-17
-3.94022e-18
-8.88665e-18
-2.40828e-18
-3.59889e-18
-4.80658e-18
-6.65893e-18
-6.43742e-18
-6.43012e-18
-4.15032e-18
-3.5465e-18
-3.0732e-18
-2.54512e-18
-1.83415e-18
-1.90158e-18
-1.35503e-18
-2.50529e-18
-1.73858e-18
-2.37315e-18
-2.46221e-18
-2.65232e-18
-1.0802e-18
-3.45926e-18
1.31473e-18
-6.26371e-18
1.81504e-18
-4.32243e-18
-2.70075e-18
-1.8352e-19
2.52107e-18
3.42994e-18
2.37231e-18
5.16828e-19
-6.5993e-19
-2.25724e-18
-1.29517e-18
-3.44494e-18
-1.47072e-18
-2.53796e-18
-2.94859e-18
-2.21049e-18
-1.26803e-18
-8.77389e-19
-1.08188e-18
-1.54868e-18
-2.00576e-18
-2.19114e-18
-2.45288e-18
-2.12938e-18
-2.89679e-18
-1.52588e-18
-3.53891e-18
-1.46853e-18
-2.51425e-18
-2.88171e-18
-2.28454e-18
-1.25145e-18
-7.96608e-19
-1.02522e-18
-1.50382e-18
-1.92672e-18
-2.19875e-18
-2.26732e-18
-2.46474e-18
-2.20018e-18
-2.90664e-18
-1.46117e-18
-3.46349e-18
-1.43526e-18
-2.55103e-18
-2.91347e-18
-2.24905e-18
-1.22725e-18
-8.87027e-19
-1.09745e-18
-1.60899e-18
-2.02148e-18
-2.18969e-18
-2.35538e-18
-2.19887e-18
-2.84387e-18
-1.34003e-18
-4.37487e-18
8.40536e-19
-6.59242e-18
2.53726e-18
-9.32744e-18
-7.8537e-18
-7.63535e-18
-6.79122e-18
-5.42021e-18
-4.07781e-18
-3.22653e-18
-2.70881e-18
-2.55794e-18
-2.46354e-18
-2.38208e-18
-2.34739e-18
-2.35791e-18
-2.33618e-18
-2.39855e-18
-2.34827e-18
-2.66828e-18
-1.67838e-18
-3.95122e-18
5.7968e-19
-6.82698e-18
2.0517e-18
-4.79703e-18
-2.89484e-18
1.76555e-19
3.09964e-18
3.60906e-18
2.23439e-18
3.67813e-19
-1.10754e-18
-1.80352e-18
-2.18134e-18
-2.39196e-18
-2.40227e-18
-2.35703e-18
-2.36687e-18
-2.44004e-18
-2.38779e-18
-2.34096e-18
-2.40859e-18
-2.75393e-20
1.22163e-18
4.2695e-18
4.53149e-18
1.1936e-17
8.91409e-18
1.13245e-17
9.87125e-18
6.92632e-18
2.41155e-18
-2.18793e-18
-4.90155e-18
-7.26907e-18
-7.12737e-18
-8.73368e-18
-8.33023e-18
-5.98935e-18
-1.52382e-17
-8.83994e-18
-1.00156e-17
-4.15131e-18
-1.43289e-17
-9.62623e-18
-1.20016e-17
-7.08302e-18
-1.6083e-17
-1.15899e-17
-1.12966e-17
-1.02361e-17
-1.00028e-17
-7.96e-18
-1.09073e-17
-6.4795e-18
-1.2408e-17
-5.08674e-18
-1.50305e-17
-1.24553e-17
-1.29965e-17
-1.12135e-17
-1.27809e-17
-8.45775e-18
-1.03102e-17
-8.52714e-18
-7.43861e-18
-6.25103e-18
-6.78807e-18
-5.66737e-18
-8.92594e-18
-6.27092e-18
-9.24207e-18
-7.98597e-18
-7.55236e-18
-5.46992e-18
-8.54172e-18
-2.86112e-18
-1.32167e-17
-1.50754e-18
-1.39786e-17
-2.17055e-18
-2.03407e-18
-5.61763e-19
-4.04569e-19
-2.13313e-18
-4.7556e-18
-6.0243e-18
-8.82532e-18
-5.87349e-18
-1.15611e-17
-4.97702e-18
-1.07011e-17
-8.26997e-18
-5.77378e-18
-4.12237e-18
-4.05891e-18
-5.06846e-18
-6.33174e-18
-7.4909e-18
-7.92756e-18
-8.56658e-18
-7.78621e-18
-9.68799e-18
-6.18381e-18
-1.17563e-17
-4.91942e-18
-1.06202e-17
-8.07517e-18
-6.05599e-18
-4.13154e-18
-3.80381e-18
-4.83875e-18
-6.26116e-18
-7.30593e-18
-7.95977e-18
-8.14793e-18
-8.60153e-18
-7.94883e-18
-9.63337e-18
-6.0172e-18
-1.15125e-17
-4.84036e-18
-1.07672e-17
-8.14563e-18
-5.94427e-18
-4.02161e-18
-4.05951e-18
-5.04443e-18
-6.55721e-18
-7.55227e-18
-7.98626e-18
-8.13092e-18
-8.36871e-18
-8.55126e-18
-8.08431e-18
-8.73546e-18
-7.85237e-18
-8.65035e-18
-8.57655e-18
-8.25493e-18
-8.18199e-18
-9.01661e-18
-9.10679e-18
-8.98615e-18
-8.69976e-18
-8.69482e-18
-8.46252e-18
-8.57306e-18
-8.44402e-18
-8.34088e-18
-8.23691e-18
-8.29466e-18
-8.27604e-18
-8.4054e-18
-8.41453e-18
-8.7616e-18
-7.49757e-18
-1.02265e-17
-4.76148e-18
-1.44836e-17
-1.47306e-18
-1.48255e-17
-2.27549e-18
-1.60565e-18
2.3647e-19
-2.70181e-19
-2.46466e-18
-5.01501e-18
-6.88566e-18
-7.62727e-18
-8.15621e-18
-8.50633e-18
-8.47622e-18
-8.34054e-18
-8.33756e-18
-8.53322e-18
-8.44419e-18
-8.25784e-18
-8.44926e-18
-8.33793e-18
4.11856e-19
-1.36867e-18
3.59374e-18
-2.19751e-18
1.09935e-17
1.36347e-17
2.01999e-17
1.97413e-17
7.6551e-18
-2.86117e-18
-1.10921e-17
-1.61885e-17
-1.99677e-17
-1.9982e-17
-2.46202e-17
-1.79009e-17
-2.94801e-17
-7.86866e-18
-1.4575e-17
-1.281e-17
-2.62214e-17
-5.38231e-18
-1.4183e-17
-1.38677e-17
-2.78259e-17
-6.45606e-18
-1.43824e-17
-1.54454e-17
-2.51137e-17
-1.42956e-17
-1.59518e-17
-1.95391e-17
-1.90178e-17
-2.10594e-17
-2.44755e-17
-1.432e-17
-1.8247e-17
-2.27517e-17
-2.23061e-17
-2.6061e-17
-1.9255e-17
-2.70177e-17
-1.46929e-17
-1.66044e-17
-1.72563e-17
-1.90015e-17
-1.80707e-17
-2.31393e-17
-1.75539e-17
-2.63436e-17
-1.42584e-17
-1.67387e-17
-1.66622e-17
-2.0946e-17
-1.53053e-17
-2.63621e-17
-1.39955e-17
-2.82787e-17
-1.46813e-17
-1.41429e-17
-1.29584e-17
-1.32853e-17
-1.47781e-17
-1.78188e-17
-1.89251e-17
-2.24924e-17
-1.78895e-17
-2.74248e-17
-1.44459e-17
-3.16519e-17
-7.74858e-18
-1.05029e-17
-1.22023e-17
-1.45203e-17
-1.69824e-17
-1.8699e-17
-2.05105e-17
-2.10176e-17
-2.19537e-17
-2.08156e-17
-2.37863e-17
-1.84893e-17
-2.78591e-17
-1.4009e-17
-3.14718e-17
-7.14627e-18
-1.14901e-17
-1.23867e-17
-1.39151e-17
-1.63011e-17
-1.88222e-17
-2.04061e-17
-2.12292e-17
-2.1603e-17
-2.23804e-17
-2.12893e-17
-2.32209e-17
-1.82931e-17
-2.72752e-17
-1.39058e-17
-3.19764e-17
-7.41285e-18
-1.1384e-17
-1.21912e-17
-1.427e-17
-1.66831e-17
-1.9293e-17
-2.09303e-17
-2.13167e-17
-2.12e-17
-2.1946e-17
-2.15841e-17
-2.17422e-17
-2.09221e-17
-2.29352e-17
-1.88955e-17
-2.65751e-17
-1.42859e-17
-1.64679e-17
-1.90071e-17
-2.0177e-17
-2.08699e-17
-2.12685e-17
-2.20218e-17
-2.18393e-17
-2.20124e-17
-2.14825e-17
-2.14712e-17
-2.14538e-17
-2.1542e-17
-2.16627e-17
-2.15851e-17
-2.18773e-17
-2.22939e-17
-2.03771e-17
-2.35226e-17
-1.84119e-17
-2.8306e-17
-1.43352e-17
-2.93346e-17
-1.50253e-17
-1.39735e-17
-1.22109e-17
-1.31865e-17
-1.5463e-17
-1.8356e-17
-2.01339e-17
-2.09524e-17
-2.15988e-17
-2.19209e-17
-2.20596e-17
-2.17486e-17
-2.18083e-17
-2.19776e-17
-2.20711e-17
-2.16563e-17
-2.18845e-17
-2.14912e-17
-2.13029e-17
-2.31799e-19
1.39278e-18
3.37413e-18
3.15899e-18
8.17634e-18
5.87935e-18
7.92866e-18
5.77658e-18
2.95499e-18
-3.10507e-20
-1.77748e-18
-2.56333e-18
-9.81999e-19
-3.08485e-18
1.6297e-18
-4.63331e-18
4.94097e-18
-1.00285e-17
9.62102e-20
-9.55789e-18
2.80983e-18
-1.23418e-17
-2.75985e-18
-1.20414e-17
-1.0667e-18
-1.2404e-17
-6.28369e-18
-9.51444e-18
-5.35205e-18
-5.64357e-18
-2.30718e-18
-6.56182e-18
1.45758e-18
-7.25436e-18
3.60861e-18
-6.9108e-18
-5.53088e-18
-6.19948e-18
-6.09738e-18
-4.60749e-18
-2.77503e-18
-1.37638e-18
-6.37554e-19
-3.60818e-19
-1.42675e-19
-8.72404e-21
7.53502e-20
-1.36232e-20
2.66115e-21
1.0878e-19
6.35114e-20
-3.46539e-19
6.47741e-19
-1.85341e-18
3.04152e-18
-4.35426e-18
4.94508e-18
-4.79239e-18
5.85119e-18
5.1504e-18
5.88522e-18
6.05093e-18
4.73716e-18
2.81897e-18
1.70049e-18
-9.44542e-20
1.33682e-18
-1.85373e-18
1.82795e-18
-1.21502e-18
-1.05205e-19
1.22639e-18
2.14314e-18
2.32605e-18
1.77947e-18
1.19883e-18
3.78686e-19
2.81599e-19
-1.80149e-19
3.46746e-19
-9.21844e-19
1.04949e-18
-1.91051e-18
1.69369e-18
-1.0093e-18
3.63531e-20
1.02029e-18
2.31493e-18
2.54989e-18
2.06779e-18
1.33743e-18
6.69922e-19
2.46731e-19
-4.7954e-20
-4.86587e-20
1.63296e-19
-7.97798e-19
1.34367e-18
-1.52763e-18
1.91526e-18
-1.21584e-18
3.37008e-20
9.26497e-19
2.34063e-18
2.35772e-18
1.72075e-18
8.90135e-19
4.45682e-19
2.7873e-19
2.39055e-19
-6.00991e-20
-3.39964e-19
8.12139e-19
-1.21611e-18
1.84705e-18
-1.7498e-18
1.17924e-18
-1.45049e-19
-1.37145e-18
-2.64453e-18
-2.39479e-18
-1.91227e-18
-1.21119e-18
-6.41835e-19
-2.47709e-19
-4.12461e-19
-9.94857e-20
4.95971e-20
1.70603e-19
-1.33069e-20
-2.53881e-20
-1.04711e-19
-5.45806e-20
-2.95959e-19
6.54935e-19
-1.41603e-18
2.82707e-18
-4.54855e-18
5.10298e-18
-5.20313e-18
5.73499e-18
5.46011e-18
6.57547e-18
6.06556e-18
4.4652e-18
2.37826e-18
1.14424e-18
5.97939e-19
1.43921e-19
-1.67673e-19
-6.64657e-20
1.25376e-19
1.53627e-19
-5.21352e-20
1.02155e-19
1.27898e-19
-2.09017e-19
-3.44097e-20
1.39104e-19
2.20855e-18
1.28523e-17
1.09164e-17
2.19652e-17
1.44438e-17
4.73224e-19
8.83774e-20
-1.60769e-17
-6.59203e-18
5.18567e-19
6.70083e-18
1.16797e-17
1.873e-17
1.49151e-17
2.63485e-17
1.25278e-17
3.07629e-17
7.47998e-18
2.32162e-17
8.95159e-19
2.79581e-17
-4.50203e-18
1.38998e-17
-5.22855e-18
2.16717e-17
-5.70978e-18
8.45194e-18
-2.77369e-18
1.82768e-17
-3.10096e-18
7.85261e-18
4.94743e-18
1.99027e-17
8.36981e-18
2.56035e-17
1.28861e-17
1.32225e-17
1.28456e-17
1.10152e-17
1.71466e-17
1.39133e-17
2.40947e-17
1.30633e-17
1.54015e-17
1.66393e-17
1.88154e-17
1.7836e-17